TITLE = "Solution"
VARIABLES = x, y, u, v, psiu, psiv, t, stress
ZONE T="structure" N=153 E=128 F=FEBLOCK ET=QUADRILATERAL VARLOCATION=([7,8]=cellcentered)
0.000000e+00
1.250000e+01
2.500000e+01
3.750000e+01
5.000000e+01
6.250000e+01
7.500000e+01
8.750000e+01
1.000000e+02
1.125000e+02
1.250000e+02
1.375000e+02
1.500000e+02
1.625000e+02
1.750000e+02
1.875000e+02
2.000000e+02
0.000000e+00
1.250000e+01
2.500000e+01
3.750000e+01
5.000000e+01
6.250000e+01
7.500000e+01
8.750000e+01
1.000000e+02
1.125000e+02
1.250000e+02
1.375000e+02
1.500000e+02
1.625000e+02
1.750000e+02
1.875000e+02
2.000000e+02
0.000000e+00
1.250000e+01
2.500000e+01
3.750000e+01
5.000000e+01
6.250000e+01
7.500000e+01
8.750000e+01
1.000000e+02
1.125000e+02
1.250000e+02
1.375000e+02
1.500000e+02
1.625000e+02
1.750000e+02
1.875000e+02
2.000000e+02
0.000000e+00
1.250000e+01
2.500000e+01
3.750000e+01
5.000000e+01
6.250000e+01
7.500000e+01
8.750000e+01
1.000000e+02
1.125000e+02
1.250000e+02
1.375000e+02
1.500000e+02
1.625000e+02
1.750000e+02
1.875000e+02
2.000000e+02
0.000000e+00
1.250000e+01
2.500000e+01
3.750000e+01
5.000000e+01
6.250000e+01
7.500000e+01
8.750000e+01
1.000000e+02
1.125000e+02
1.250000e+02
1.375000e+02
1.500000e+02
1.625000e+02
1.750000e+02
1.875000e+02
2.000000e+02
0.000000e+00
1.250000e+01
2.500000e+01
3.750000e+01
5.000000e+01
6.250000e+01
7.500000e+01
8.750000e+01
1.000000e+02
1.125000e+02
1.250000e+02
1.375000e+02
1.500000e+02
1.625000e+02
1.750000e+02
1.875000e+02
2.000000e+02
0.000000e+00
1.250000e+01
2.500000e+01
3.750000e+01
5.000000e+01
6.250000e+01
7.500000e+01
8.750000e+01
1.000000e+02
1.125000e+02
1.250000e+02
1.375000e+02
1.500000e+02
1.625000e+02
1.750000e+02
1.875000e+02
2.000000e+02
0.000000e+00
1.250000e+01
2.500000e+01
3.750000e+01
5.000000e+01
6.250000e+01
7.500000e+01
8.750000e+01
1.000000e+02
1.125000e+02
1.250000e+02
1.375000e+02
1.500000e+02
1.625000e+02
1.750000e+02
1.875000e+02
2.000000e+02
0.000000e+00
1.250000e+01
2.500000e+01
3.750000e+01
5.000000e+01
6.250000e+01
7.500000e+01
8.750000e+01
1.000000e+02
1.125000e+02
1.250000e+02
1.375000e+02
1.500000e+02
1.625000e+02
1.750000e+02
1.875000e+02
2.000000e+02
0.000000e+00
0.000000e+00
0.000000e+00
0.000000e+00
0.000000e+00
0.000000e+00
0.000000e+00
0.000000e+00
0.000000e+00
0.000000e+00
0.000000e+00
0.000000e+00
0.000000e+00
0.000000e+00
0.000000e+00
0.000000e+00
0.000000e+00
1.250000e+01
1.250000e+01
1.250000e+01
1.250000e+01
1.250000e+01
1.250000e+01
1.250000e+01
1.250000e+01
1.250000e+01
1.250000e+01
1.250000e+01
1.250000e+01
1.250000e+01
1.250000e+01
1.250000e+01
1.250000e+01
1.250000e+01
2.500000e+01
2.500000e+01
2.500000e+01
2.500000e+01
2.500000e+01
2.500000e+01
2.500000e+01
2.500000e+01
2.500000e+01
2.500000e+01
2.500000e+01
2.500000e+01
2.500000e+01
2.500000e+01
2.500000e+01
2.500000e+01
2.500000e+01
3.750000e+01
3.750000e+01
3.750000e+01
3.750000e+01
3.750000e+01
3.750000e+01
3.750000e+01
3.750000e+01
3.750000e+01
3.750000e+01
3.750000e+01
3.750000e+01
3.750000e+01
3.750000e+01
3.750000e+01
3.750000e+01
3.750000e+01
5.000000e+01
5.000000e+01
5.000000e+01
5.000000e+01
5.000000e+01
5.000000e+01
5.000000e+01
5.000000e+01
5.000000e+01
5.000000e+01
5.000000e+01
5.000000e+01
5.000000e+01
5.000000e+01
5.000000e+01
5.000000e+01
5.000000e+01
6.250000e+01
6.250000e+01
6.250000e+01
6.250000e+01
6.250000e+01
6.250000e+01
6.250000e+01
6.250000e+01
6.250000e+01
6.250000e+01
6.250000e+01
6.250000e+01
6.250000e+01
6.250000e+01
6.250000e+01
6.250000e+01
6.250000e+01
7.500000e+01
7.500000e+01
7.500000e+01
7.500000e+01
7.500000e+01
7.500000e+01
7.500000e+01
7.500000e+01
7.500000e+01
7.500000e+01
7.500000e+01
7.500000e+01
7.500000e+01
7.500000e+01
7.500000e+01
7.500000e+01
7.500000e+01
8.750000e+01
8.750000e+01
8.750000e+01
8.750000e+01
8.750000e+01
8.750000e+01
8.750000e+01
8.750000e+01
8.750000e+01
8.750000e+01
8.750000e+01
8.750000e+01
8.750000e+01
8.750000e+01
8.750000e+01
8.750000e+01
8.750000e+01
1.000000e+02
1.000000e+02
1.000000e+02
1.000000e+02
1.000000e+02
1.000000e+02
1.000000e+02
1.000000e+02
1.000000e+02
1.000000e+02
1.000000e+02
1.000000e+02
1.000000e+02
1.000000e+02
1.000000e+02
1.000000e+02
1.000000e+02
0.000000e+00
-9.960352e-01
-1.678950e+00
-2.431183e+00
-3.117341e+00
-3.750336e+00
-4.458295e+00
-5.087154e+00
-5.763213e+00
-6.405564e+00
-7.055479e+00
-7.723541e+00
-8.376396e+00
-9.146363e+00
-1.007743e+01
-1.083395e+01
-1.128406e+01
0.000000e+00
-4.460361e-01
-9.064255e-01
-1.419027e+00
-1.930689e+00
-2.410640e+00
-2.924787e+00
-3.423005e+00
-3.918937e+00
-4.421435e+00
-4.913880e+00
-5.416892e+00
-5.901745e+00
-6.421359e+00
-6.897716e+00
-7.024057e+00
-7.202949e+00
0.000000e+00
-1.460872e-01
-3.488021e-01
-6.395399e-01
-9.775320e-01
-1.302537e+00
-1.655640e+00
-2.012852e+00
-2.356330e+00
-2.718586e+00
-3.057373e+00
-3.391723e+00
-3.687421e+00
-3.927368e+00
-4.036631e+00
-4.034659e+00
-4.183076e+00
0.000000e+00
-7.898961e-02
-1.621089e-01
-3.096564e-01
-4.549133e-01
-6.281472e-01
-8.139777e-01
-9.790511e-01
-1.166913e+00
-1.328817e+00
-1.489885e+00
-1.628952e+00
-1.722367e+00
-1.730544e+00
-1.656886e+00
-1.635928e+00
-1.752965e+00
0.000000e+00
-3.323193e-03
-7.233170e-03
-1.130375e-02
-1.569841e-02
-1.914122e-02
-2.004080e-02
-1.730918e-02
-8.560774e-03
8.294666e-03
3.271031e-02
7.768539e-02
1.602084e-01
2.751223e-01
3.949299e-01
4.358204e-01
3.376385e-01
0.000000e+00
7.317664e-02
1.503888e-01
2.905706e-01
4.290595e-01
5.954887e-01
7.744471e-01
9.425331e-01
1.148641e+00
1.343792e+00
1.561807e+00
1.782094e+00
2.008786e+00
2.216312e+00
2.352106e+00
2.385015e+00
2.319334e+00
0.000000e+00
1.437196e-01
3.434975e-01
6.305042e-01
9.655717e-01
1.290817e+00
1.643042e+00
1.999661e+00
2.358946e+00
2.764583e+00
3.143575e+00
3.510534e+00
3.843349e+00
4.119093e+00
4.295877e+00
4.350528e+00
4.327862e+00
0.000000e+00
4.467583e-01
9.071554e-01
1.419533e+00
1.930495e+00
2.408992e+00
2.920058e+00
3.415643e+00
3.903231e+00
4.396687e+00
4.874974e+00
5.350097e+00
5.777881e+00
6.125555e+00
6.342639e+00
6.438461e+00
6.456173e+00
0.000000e+00
9.983440e-01
1.684034e+00
2.440033e+00
3.128154e+00
3.761639e+00
4.468643e+00
5.095621e+00
5.747595e+00
6.331580e+00
6.905108e+00
7.505994e+00
8.035834e+00
8.447900e+00
8.649137e+00
8.701875e+00
8.702405e+00
0.000000e+00
-6.187973e-01
-1.361850e+00
-2.363303e+00
-3.537498e+00
-4.881005e+00
-6.412546e+00
-8.098678e+00
-9.959160e+00
-1.198267e+01
-1.416743e+01
-1.651831e+01
-1.903196e+01
-2.176307e+01
-2.472729e+01
-2.808671e+01
-3.310236e+01
0.000000e+00
-4.159703e-01
-1.193530e+00
-2.177063e+00
-3.368462e+00
-4.706898e+00
-6.234978e+00
-7.930109e+00
-9.782835e+00
-1.181512e+01
-1.399513e+01
-1.635060e+01
-1.885909e+01
-2.157041e+01
-2.458709e+01
-2.800296e+01
-3.205277e+01
0.000000e+00
-3.904326e-01
-1.091696e+00
-2.073655e+00
-3.249375e+00
-4.580927e+00
-6.115300e+00
-7.800246e+00
-9.663862e+00
-1.169327e+01
-1.388447e+01
-1.625131e+01
-1.877002e+01
-2.150815e+01
-2.457711e+01
-2.785109e+01
-3.088359e+01
0.000000e+00
-4.494196e-01
-1.088074e+00
-2.047519e+00
-3.186983e+00
-4.511290e+00
-6.053748e+00
-7.723503e+00
-9.606276e+00
-1.163456e+01
-1.384754e+01
-1.623425e+01
-1.877851e+01
-2.151849e+01
-2.450744e+01
-2.754142e+01
-3.016729e+01
0.000000e+00
-4.563337e-01
-1.110486e+00
-2.031959e+00
-3.172591e+00
-4.501695e+00
-6.032142e+00
-7.721846e+00
-9.595987e+00
-1.164669e+01
-1.387413e+01
-1.626803e+01
-1.881978e+01
-2.151965e+01
-2.435682e+01
-2.717485e+01
-2.956277e+01
0.000000e+00
-4.481607e-01
-1.087753e+00
-2.049612e+00
-3.193977e+00
-4.528492e+00
-6.081369e+00
-7.760240e+00
-9.658079e+00
-1.171229e+01
-1.394452e+01
-1.632019e+01
-1.885068e+01
-2.150968e+01
-2.422189e+01
-2.685507e+01
-2.912438e+01
0.000000e+00
-3.887554e-01
-1.091712e+00
-2.078488e+00
-3.263210e+00
-4.610249e+00
-6.161090e+00
-7.869541e+00
-9.763037e+00
-1.182864e+01
-1.403091e+01
-1.638748e+01
-1.888987e+01
-2.150958e+01
-2.413950e+01
-2.664785e+01
-2.889062e+01
0.000000e+00
-4.144183e-01
-1.193644e+00
-2.182766e+00
-3.384726e+00
-4.738151e+00
-6.286062e+00
-8.010611e+00
-9.901593e+00
-1.196594e+01
-1.414594e+01
-1.648603e+01
-1.896701e+01
-2.155112e+01
-2.411901e+01
-2.656030e+01
-2.883014e+01
0.000000e+00
-6.178317e-01
-1.362589e+00
-2.369707e+00
-3.554161e+00
-4.912110e+00
-6.464331e+00
-8.178881e+00
-1.007434e+01
-1.212135e+01
-1.430110e+01
-1.663421e+01
-1.909063e+01
-2.163313e+01
-2.414363e+01
-2.654542e+01
-2.882900e+01


0.000000e+00
1.541819e-05
2.508098e-05
3.749397e-05
5.358495e-05
6.716517e-05
8.318825e-05
9.713133e-05
1.118704e-04
1.257453e-04
1.408897e-04
1.552391e-04
1.717915e-04
1.876174e-04
1.977097e-04
2.034561e-04
2.103894e-04
0.000000e+00
1.145704e-05
1.973571e-05
2.841657e-05
4.099142e-05
5.172430e-05
6.185349e-05
7.296492e-05
8.316876e-05
9.458313e-05
1.052346e-04
1.156322e-04
1.264887e-04
1.358476e-04
1.374607e-04
1.412152e-04
1.470377e-04
0.000000e+00
9.527797e-06
1.502534e-05
2.021445e-05
2.884479e-05
3.555218e-05
4.128406e-05
4.863241e-05
5.460330e-05
6.197678e-05
6.837605e-05
7.405322e-05
7.876427e-05
8.095000e-05
8.020181e-05
8.257753e-05
8.680880e-05
0.000000e+00
5.186966e-06
6.843850e-06
9.624562e-06
1.306366e-05
1.351964e-05
1.587638e-05
1.725429e-05
2.089679e-05
2.431855e-05
2.806817e-05
2.913239e-05
2.854861e-05
2.712332e-05
2.684113e-05
2.987337e-05
3.554427e-05
0.000000e+00
-1.759903e-07
-4.385594e-07
-8.629674e-07
-1.737250e-06
-2.900973e-06
-5.021043e-06
-7.269847e-06
-7.842802e-06
-7.895175e-06
-8.831862e-06
-1.196494e-05
-1.470756e-05
-1.614636e-05
-1.582116e-05
-1.366972e-05
-9.679922e-06
0.000000e+00
-5.452420e-06
-7.435969e-06
-1.076025e-05
-1.467029e-05
-1.609152e-05
-2.056866e-05
-2.432865e-05
-3.029868e-05
-3.345108e-05
-3.760144e-05
-4.224238e-05
-4.738566e-05
-4.918241e-05
-4.972324e-05
-5.018769e-05
-4.844997e-05
0.000000e+00
-9.526548e-06
-1.509198e-05
-2.038334e-05
-2.894530e-05
-3.534587e-05
-4.075314e-05
-4.874635e-05
-5.592560e-05
-6.365113e-05
-6.892065e-05
-7.392517e-05
-7.806922e-05
-8.166937e-05
-8.356857e-05
-8.548499e-05
-8.623068e-05
0.000000e+00
-1.138548e-05
-1.964722e-05
-2.831067e-05
-4.076456e-05
-5.166794e-05
-6.160713e-05
-7.279781e-05
-8.319091e-05
-9.458598e-05
-1.052166e-04
-1.136117e-04
-1.183980e-04
-1.234388e-04
-1.270588e-04
-1.283671e-04
-1.284624e-04
0.000000e+00
-1.542848e-05
-2.502120e-05
-3.734000e-05
-5.337342e-05
-6.699031e-05
-8.288144e-05
-9.585458e-05
-1.100103e-04
-1.232868e-04
-1.409478e-04
-1.567959e-04
-1.666259e-04
-1.718545e-04
-1.740577e-04
-1.742813e-04
-1.741024e-04
0.000000e+00
1.259595e-05
1.999679e-05
3.243351e-05
4.873605e-05
6.685554e-05
9.128635e-05
1.201076e-04
1.534077e-04
1.901368e-04
2.302967e-04
2.743031e-04
3.242225e-04
3.783569e-04
4.399006e-04
5.107604e-04
5.841699e-04
0.000000e+00
7.679732e-06
1.610640e-05
2.633188e-05
4.227515e-05
6.089499e-05
8.482581e-05
1.142392e-04
1.471623e-04
1.840201e-04
2.239576e-04
2.680933e-04
3.176514e-04
3.734097e-04
4.346443e-04
5.033800e-04
5.738182e-04
0.000000e+00
4.325308e-06
1.228889e-05
2.172250e-05
3.645258e-05
5.567278e-05
7.940215e-05
1.097325e-04
1.430024e-04
1.795308e-04
2.193712e-04
2.635529e-04
3.138674e-04
3.710129e-04
4.304946e-04
4.959021e-04
5.641373e-04
0.000000e+00
3.198474e-06
1.058767e-05
2.008201e-05
3.450629e-05
5.199783e-05
7.640129e-05
1.087360e-04
1.435473e-04
1.780913e-04
2.173348e-04
2.619072e-04
3.131073e-04
3.695975e-04
4.277571e-04
4.880695e-04
5.499812e-04
0.000000e+00
2.810019e-06
1.026481e-05
2.004105e-05
3.423841e-05
5.070502e-05
7.528421e-05
1.097813e-04
1.447491e-04
1.780119e-04
2.155453e-04
2.618393e-04
3.133210e-04
3.697420e-04
4.266143e-04
4.816886e-04
5.338537e-04
0.000000e+00
3.342374e-06
1.077909e-05
2.046015e-05
3.484848e-05
5.180102e-05
7.717097e-05
1.106702e-04
1.453660e-04
1.778447e-04
2.159320e-04
2.632911e-04
3.156607e-04
3.700767e-04
4.265208e-04
4.793673e-04
5.228187e-04
0.000000e+00
4.479534e-06
1.251853e-05
2.207034e-05
3.673308e-05
5.575784e-05
8.038593e-05
1.117398e-04
1.447128e-04
1.789521e-04
2.181915e-04
2.664979e-04
3.191534e-04
3.721877e-04
4.256162e-04
4.766149e-04
5.193352e-04
0.000000e+00
7.804727e-06
1.634422e-05
2.663537e-05
4.253616e-05
6.131002e-05
8.579859e-05
1.159130e-04
1.481834e-04
1.832489e-04
2.228119e-04
2.702750e-04
3.222010e-04
3.743933e-04
4.257687e-04
4.745909e-04
5.197933e-04
0.000000e+00
1.270957e-05
2.023480e-05
3.272668e-05
4.907910e-05
6.739776e-05
9.233131e-05
1.215694e-04
1.543815e-04
1.894092e-04
2.300801e-04
2.746406e-04
3.245083e-04
3.755481e-04
4.260911e-04
4.741073e-04
5.200566e-04


5.681643e+00
6.142455e+00
6.868695e+00
5.943807e+00
5.770749e+00
6.634212e+00
6.474244e+00
6.454296e+00
5.976303e+00
5.906569e+00
6.285733e+00
7.152141e+00
8.849314e+00
9.831203e+00
9.152097e+00
8.003085e+00
8.087035e+00
8.463163e+00
8.663109e+00
8.359045e+00
8.254210e+00
8.537081e+00
8.696453e+00
8.434956e+00
8.405311e+00
8.271853e+00
8.418832e+00
8.845867e+00
9.508013e+00
9.843841e+00
8.396116e+00
6.475116e+00
9.844166e+00
9.824311e+00
9.999965e+00
9.838380e+00
9.836713e+00
9.974636e+00
9.836342e+00
9.949423e+00
9.849685e+00
9.881517e+00
9.899305e+00
9.877039e+00
9.895312e+00
9.396566e+00
8.001476e+00
6.192761e+00
9.999983e+00
9.999983e+00
9.999983e+00
9.999981e+00
9.999979e+00
9.999974e+00
9.999969e+00
9.999969e+00
9.999972e+00
9.999971e+00
9.999960e+00
9.484103e+00
8.832263e+00
8.374407e+00
7.993590e+00
7.922797e+00
9.999983e+00
9.999982e+00
9.999982e+00
9.999980e+00
9.999976e+00
9.999967e+00
9.935250e+00
9.963443e+00
9.999939e+00
9.919810e+00
9.361603e+00
8.595087e+00
7.709290e+00
7.748081e+00
8.656313e+00
9.171586e+00
9.844660e+00
9.824278e+00
9.999963e+00
9.838277e+00
9.836498e+00
9.717723e+00
9.305359e+00
9.523860e+00
9.388424e+00
8.876520e+00
8.313472e+00
7.900294e+00
8.200872e+00
8.755906e+00
9.450072e+00
9.999938e+00
8.089897e+00
8.464428e+00
8.662586e+00
8.357635e+00
8.176046e+00
8.090445e+00
7.933933e+00
7.833321e+00
7.921884e+00
7.355527e+00
7.491781e+00
8.493270e+00
9.292535e+00
9.848421e+00
9.999964e+00
9.999979e+00
5.688767e+00
6.144857e+00
6.867840e+00
5.936988e+00
5.746114e+00
6.315445e+00
6.124514e+00
6.591891e+00
6.344386e+00
6.553643e+00
7.879624e+00
9.117991e+00
9.987107e+00
9.999972e+00
9.999981e+00
9.999984e+00


-8.193802e-01
-1.668219e-01
-3.975800e-01
-2.587468e-01
-9.237751e-02
-3.076629e-01
-1.231188e-01
-2.097663e-01
-1.619217e-01
-1.576361e-01
-2.154389e-01
-1.496524e-01
-4.612974e-01
-6.862556e-01
3.157039e-01
-8.469546e-01
6.106815e-01
4.816755e-01
2.951134e-01
2.251785e-01
2.911988e-01
1.679626e-01
1.749854e-01
1.734106e-01
1.093674e-01
1.484291e-01
1.278232e-01
2.413432e-01
3.024762e-01
5.092184e-01
6.953421e-01
-9.344231e-01
7.226216e-01
4.716778e-01
5.631284e-02
-2.271332e-02
-3.592431e-02
-1.892347e-01
-8.013762e-02
-1.382598e-01
-7.757816e-02
-1.906165e-02
3.115247e-02
1.853589e-01
2.782484e-01
1.479529e-01
-2.538250e-02
-1.678295e-01
7.278877e-01
5.564672e-01
1.927569e-01
6.131731e-02
-2.202370e-02
-1.072176e-01
-1.626033e-02
-6.227139e-02
1.309467e-02
1.668107e-02
5.852993e-02
1.174010e-01
5.885147e-02
-2.622902e-01
-3.841111e-01
-7.822634e-02
7.307885e-01
5.604176e-01
2.007706e-01
6.951021e-02
-1.800175e-02
-1.131779e-01
-3.626071e-02
-1.030492e-01
-5.259976e-02
-4.397832e-02
2.064296e-02
1.370567e-02
-3.779215e-02
-1.298077e-01
-1.028465e-01
3.104083e-01
7.294275e-01
4.819129e-01
7.438831e-02
-4.751803e-03
-2.373174e-02
-1.628114e-01
-7.286843e-02
-1.875519e-01
-1.820542e-01
-1.090345e-01
-7.752582e-02
-9.791042e-02
-1.116337e-01
4.546376e-02
3.339922e-01
7.245143e-01
6.147558e-01
4.875800e-01
3.025465e-01
2.301434e-01
2.873049e-01
1.614159e-01
1.521798e-01
1.037929e-01
-5.782921e-02
-3.986639e-02
-9.626699e-02
-5.627053e-02
5.736713e-02
3.652118e-01
7.128506e-01
9.478991e-01
-8.251496e-01
-1.721948e-01
-4.052577e-01
-2.618984e-01
-9.141457e-02
-3.017460e-01
-1.191444e-01
-1.574120e-01
-5.594621e-02
-2.197555e-02
-9.261562e-02
1.006640e-01
3.878844e-01
7.721591e-01
9.528996e-01
9.987355e-01
1 2 19 18
2 3 20 19
3 4 21 20
4 5 22 21
5 6 23 22
6 7 24 23
7 8 25 24
8 9 26 25
9 10 27 26
10 11 28 27
11 12 29 28
12 13 30 29
13 14 31 30
14 15 32 31
15 16 33 32
16 17 34 33
18 19 36 35
19 20 37 36
20 21 38 37
21 22 39 38
22 23 40 39
23 24 41 40
24 25 42 41
25 26 43 42
26 27 44 43
27 28 45 44
28 29 46 45
29 30 47 46
30 31 48 47
31 32 49 48
32 33 50 49
33 34 51 50
35 36 53 52
36 37 54 53
37 38 55 54
38 39 56 55
39 40 57 56
40 41 58 57
41 42 59 58
42 43 60 59
43 44 61 60
44 45 62 61
45 46 63 62
46 47 64 63
47 48 65 64
48 49 66 65
49 50 67 66
50 51 68 67
52 53 70 69
53 54 71 70
54 55 72 71
55 56 73 72
56 57 74 73
57 58 75 74
58 59 76 75
59 60 77 76
60 61 78 77
61 62 79 78
62 63 80 79
63 64 81 80
64 65 82 81
65 66 83 82
66 67 84 83
67 68 85 84
69 70 87 86
70 71 88 87
71 72 89 88
72 73 90 89
73 74 91 90
74 75 92 91
75 76 93 92
76 77 94 93
77 78 95 94
78 79 96 95
79 80 97 96
80 81 98 97
81 82 99 98
82 83 100 99
83 84 101 100
84 85 102 101
86 87 104 103
87 88 105 104
88 89 106 105
89 90 107 106
90 91 108 107
91 92 109 108
92 93 110 109
93 94 111 110
94 95 112 111
95 96 113 112
96 97 114 113
97 98 115 114
98 99 116 115
99 100 117 116
100 101 118 117
101 102 119 118
103 104 121 120
104 105 122 121
105 106 123 122
106 107 124 123
107 108 125 124
108 109 126 125
109 110 127 126
110 111 128 127
111 112 129 128
112 113 130 129
113 114 131 130
114 115 132 131
115 116 133 132
116 117 134 133
117 118 135 134
118 119 136 135
120 121 138 137
121 122 139 138
122 123 140 139
123 124 141 140
124 125 142 141
125 126 143 142
126 127 144 143
127 128 145 144
128 129 146 145
129 130 147 146
130 131 148 147
131 132 149 148
132 133 150 149
133 134 151 150
134 135 152 151
135 136 153 152
