TITLE = "Solution"
VARIABLES = x, y, u, v, psiu, psiv, t, stress
ZONE T="structure" N=153 E=128 F=FEBLOCK ET=QUADRILATERAL VARLOCATION=([7,8]=cellcentered)
0.000000e+00
1.250000e+01
2.500000e+01
3.750000e+01
5.000000e+01
6.250000e+01
7.500000e+01
8.750000e+01
1.000000e+02
1.125000e+02
1.250000e+02
1.375000e+02
1.500000e+02
1.625000e+02
1.750000e+02
1.875000e+02
2.000000e+02
0.000000e+00
1.250000e+01
2.500000e+01
3.750000e+01
5.000000e+01
6.250000e+01
7.500000e+01
8.750000e+01
1.000000e+02
1.125000e+02
1.250000e+02
1.375000e+02
1.500000e+02
1.625000e+02
1.750000e+02
1.875000e+02
2.000000e+02
0.000000e+00
1.250000e+01
2.500000e+01
3.750000e+01
5.000000e+01
6.250000e+01
7.500000e+01
8.750000e+01
1.000000e+02
1.125000e+02
1.250000e+02
1.375000e+02
1.500000e+02
1.625000e+02
1.750000e+02
1.875000e+02
2.000000e+02
0.000000e+00
1.250000e+01
2.500000e+01
3.750000e+01
5.000000e+01
6.250000e+01
7.500000e+01
8.750000e+01
1.000000e+02
1.125000e+02
1.250000e+02
1.375000e+02
1.500000e+02
1.625000e+02
1.750000e+02
1.875000e+02
2.000000e+02
0.000000e+00
1.250000e+01
2.500000e+01
3.750000e+01
5.000000e+01
6.250000e+01
7.500000e+01
8.750000e+01
1.000000e+02
1.125000e+02
1.250000e+02
1.375000e+02
1.500000e+02
1.625000e+02
1.750000e+02
1.875000e+02
2.000000e+02
0.000000e+00
1.250000e+01
2.500000e+01
3.750000e+01
5.000000e+01
6.250000e+01
7.500000e+01
8.750000e+01
1.000000e+02
1.125000e+02
1.250000e+02
1.375000e+02
1.500000e+02
1.625000e+02
1.750000e+02
1.875000e+02
2.000000e+02
0.000000e+00
1.250000e+01
2.500000e+01
3.750000e+01
5.000000e+01
6.250000e+01
7.500000e+01
8.750000e+01
1.000000e+02
1.125000e+02
1.250000e+02
1.375000e+02
1.500000e+02
1.625000e+02
1.750000e+02
1.875000e+02
2.000000e+02
0.000000e+00
1.250000e+01
2.500000e+01
3.750000e+01
5.000000e+01
6.250000e+01
7.500000e+01
8.750000e+01
1.000000e+02
1.125000e+02
1.250000e+02
1.375000e+02
1.500000e+02
1.625000e+02
1.750000e+02
1.875000e+02
2.000000e+02
0.000000e+00
1.250000e+01
2.500000e+01
3.750000e+01
5.000000e+01
6.250000e+01
7.500000e+01
8.750000e+01
1.000000e+02
1.125000e+02
1.250000e+02
1.375000e+02
1.500000e+02
1.625000e+02
1.750000e+02
1.875000e+02
2.000000e+02
0.000000e+00
0.000000e+00
0.000000e+00
0.000000e+00
0.000000e+00
0.000000e+00
0.000000e+00
0.000000e+00
0.000000e+00
0.000000e+00
0.000000e+00
0.000000e+00
0.000000e+00
0.000000e+00
0.000000e+00
0.000000e+00
0.000000e+00
1.250000e+01
1.250000e+01
1.250000e+01
1.250000e+01
1.250000e+01
1.250000e+01
1.250000e+01
1.250000e+01
1.250000e+01
1.250000e+01
1.250000e+01
1.250000e+01
1.250000e+01
1.250000e+01
1.250000e+01
1.250000e+01
1.250000e+01
2.500000e+01
2.500000e+01
2.500000e+01
2.500000e+01
2.500000e+01
2.500000e+01
2.500000e+01
2.500000e+01
2.500000e+01
2.500000e+01
2.500000e+01
2.500000e+01
2.500000e+01
2.500000e+01
2.500000e+01
2.500000e+01
2.500000e+01
3.750000e+01
3.750000e+01
3.750000e+01
3.750000e+01
3.750000e+01
3.750000e+01
3.750000e+01
3.750000e+01
3.750000e+01
3.750000e+01
3.750000e+01
3.750000e+01
3.750000e+01
3.750000e+01
3.750000e+01
3.750000e+01
3.750000e+01
5.000000e+01
5.000000e+01
5.000000e+01
5.000000e+01
5.000000e+01
5.000000e+01
5.000000e+01
5.000000e+01
5.000000e+01
5.000000e+01
5.000000e+01
5.000000e+01
5.000000e+01
5.000000e+01
5.000000e+01
5.000000e+01
5.000000e+01
6.250000e+01
6.250000e+01
6.250000e+01
6.250000e+01
6.250000e+01
6.250000e+01
6.250000e+01
6.250000e+01
6.250000e+01
6.250000e+01
6.250000e+01
6.250000e+01
6.250000e+01
6.250000e+01
6.250000e+01
6.250000e+01
6.250000e+01
7.500000e+01
7.500000e+01
7.500000e+01
7.500000e+01
7.500000e+01
7.500000e+01
7.500000e+01
7.500000e+01
7.500000e+01
7.500000e+01
7.500000e+01
7.500000e+01
7.500000e+01
7.500000e+01
7.500000e+01
7.500000e+01
7.500000e+01
8.750000e+01
8.750000e+01
8.750000e+01
8.750000e+01
8.750000e+01
8.750000e+01
8.750000e+01
8.750000e+01
8.750000e+01
8.750000e+01
8.750000e+01
8.750000e+01
8.750000e+01
8.750000e+01
8.750000e+01
8.750000e+01
8.750000e+01
1.000000e+02
1.000000e+02
1.000000e+02
1.000000e+02
1.000000e+02
1.000000e+02
1.000000e+02
1.000000e+02
1.000000e+02
1.000000e+02
1.000000e+02
1.000000e+02
1.000000e+02
1.000000e+02
1.000000e+02
1.000000e+02
1.000000e+02
0.000000e+00
-8.812920e-01
-1.552267e+00
-2.214904e+00
-2.892080e+00
-3.536710e+00
-4.178075e+00
-4.823770e+00
-5.459300e+00
-6.088025e+00
-6.721470e+00
-7.362677e+00
-8.009431e+00
-8.664711e+00
-9.328858e+00
-9.970800e+00
-1.039079e+01
0.000000e+00
-4.534396e-01
-9.300772e-01
-1.412658e+00
-1.918722e+00
-2.402369e+00
-2.882775e+00
-3.367491e+00
-3.844981e+00
-4.315454e+00
-4.784335e+00
-5.248557e+00
-5.695949e+00
-6.100925e+00
-6.388137e+00
-6.458975e+00
-6.610648e+00
0.000000e+00
-2.208104e-01
-4.733985e-01
-7.776701e-01
-1.108647e+00
-1.433545e+00
-1.760974e+00
-2.090473e+00
-2.414573e+00
-2.730634e+00
-3.034260e+00
-3.313374e+00
-3.547290e+00
-3.703108e+00
-3.739338e+00
-3.713835e+00
-3.860626e+00
0.000000e+00
-8.968015e-02
-1.966054e-01
-3.379576e-01
-4.948674e-01
-6.587148e-01
-8.260083e-01
-9.921968e-01
-1.153412e+00
-1.304517e+00
-1.436637e+00
-1.536552e+00
-1.587988e+00
-1.577291e+00
-1.522323e+00
-1.522619e+00
-1.645957e+00
0.000000e+00
-1.179677e-03
-2.392729e-03
-3.475674e-03
-4.165284e-03
-3.995404e-03
-2.075203e-03
3.096295e-03
1.390251e-02
3.419592e-02
6.973179e-02
1.272098e-01
2.106630e-01
3.119327e-01
3.924891e-01
3.952441e-01
3.009698e-01
0.000000e+00
8.772376e-02
1.926041e-01
3.319984e-01
4.876043e-01
6.517183e-01
8.222866e-01
9.971255e-01
1.176183e+00
1.360467e+00
1.549851e+00
1.741428e+00
1.926981e+00
2.087662e+00
2.191443e+00
2.209583e+00
2.156500e+00
0.000000e+00
2.199515e-01
4.714925e-01
7.745414e-01
1.104447e+00
1.429157e+00
1.757796e+00
2.090317e+00
2.420968e+00
2.750174e+00
3.075397e+00
3.384160e+00
3.657188e+00
3.872519e+00
4.008351e+00
4.054878e+00
4.042032e+00
0.000000e+00
4.537471e-01
9.303813e-01
1.412640e+00
1.918048e+00
2.400980e+00
2.879890e+00
3.360424e+00
3.830984e+00
4.292220e+00
4.742432e+00
5.160382e+00
5.514423e+00
5.779248e+00
5.943834e+00
6.015641e+00
6.028957e+00
0.000000e+00
8.824161e-01
1.554458e+00
2.218206e+00
2.896331e+00
3.541664e+00
4.182223e+00
4.822735e+00
5.447886e+00
6.059348e+00
6.652077e+00
7.191412e+00
7.628336e+00
7.925800e+00
8.075750e+00
8.113565e+00
8.112778e+00
0.000000e+00
-5.448551e-01
-1.148195e+00
-1.950732e+00
-2.921353e+00
-4.052129e+00
-5.353485e+00
-6.823054e+00
-8.455982e+00
-1.025341e+01
-1.221710e+01
-1.434757e+01
-1.664811e+01
-1.912860e+01
-2.183652e+01
-2.497279e+01
-2.958019e+01
0.000000e+00
-3.516163e-01
-9.854254e-01
-1.776303e+00
-2.749200e+00
-3.884278e+00
-5.184901e+00
-6.655435e+00
-8.291413e+00
-1.009043e+01
-1.205471e+01
-1.418724e+01
-1.649298e+01
-1.898968e+01
-2.172766e+01
-2.487492e+01
-2.869638e+01
0.000000e+00
-3.017079e-01
-8.813828e-01
-1.663406e+00
-2.630559e+00
-3.764633e+00
-5.065707e+00
-6.537902e+00
-8.177361e+00
-9.981862e+00
-1.195429e+01
-1.409872e+01
-1.642278e+01
-1.895029e+01
-2.171622e+01
-2.470119e+01
-2.751337e+01
0.000000e+00
-3.140580e-01
-8.511126e-01
-1.610690e+00
-2.565399e+00
-3.695225e+00
-4.997423e+00
-6.472366e+00
-8.117305e+00
-9.931852e+00
-1.191895e+01
-1.408139e+01
-1.642362e+01
-1.895578e+01
-2.166125e+01
-2.437912e+01
-2.676324e+01
0.000000e+00
-3.233996e-01
-8.500242e-01
-1.598417e+00
-2.546943e+00
-3.675724e+00
-4.980385e+00
-6.459442e+00
-8.110883e+00
-9.935649e+00
-1.193636e+01
-1.411218e+01
-1.645704e+01
-1.895487e+01
-2.154045e+01
-2.404955e+01
-2.621439e+01
0.000000e+00
-3.138646e-01
-8.515480e-01
-1.612567e+00
-2.569799e+00
-3.703751e+00
-5.012265e+00
-6.495853e+00
-8.152071e+00
-9.982228e+00
-1.198940e+01
-1.416857e+01
-1.650059e+01
-1.894525e+01
-2.142066e+01
-2.378804e+01
-2.586181e+01
0.000000e+00
-3.014099e-01
-8.820984e-01
-1.666442e+00
-2.637727e+00
-3.778550e+00
-5.089950e+00
-6.576278e+00
-8.234245e+00
-1.006462e+01
-1.207095e+01
-1.424474e+01
-1.655613e+01
-1.895052e+01
-2.134329e+01
-2.362694e+01
-2.569588e+01
0.000000e+00
-3.513703e-01
-9.862207e-01
-1.779642e+00
-2.757237e+00
-3.899934e+00
-5.211984e+00
-6.698207e+00
-8.355063e+00
-1.018304e+01
-1.218409e+01
-1.434601e+01
-1.663333e+01
-1.898624e+01
-2.132268e+01
-2.355778e+01
-2.565592e+01
0.000000e+00
-5.448702e-01
-1.149182e+00
-1.954259e+00
-2.929634e+00
-4.068039e+00
-5.380327e+00
-6.864725e+00
-8.517888e+00
-1.034234e+01
-1.233531e+01
-1.447828e+01
-1.673416e+01
-1.904610e+01
-2.133971e+01
-2.354491e+01
-2.565661e+01


0.000000e+00
1.429003e-05
2.733331e-05
4.072764e-05
5.645774e-05
7.236128e-05
8.741306e-05
1.027199e-04
1.187855e-04
1.346398e-04
1.489087e-04
1.604783e-04
1.691165e-04
1.754524e-04
1.801432e-04
1.848461e-04
1.904700e-04
0.000000e+00
1.027892e-05
2.153954e-05
3.142116e-05
4.347813e-05
5.578137e-05
6.700166e-05
7.842382e-05
9.081550e-05
1.029528e-04
1.132254e-04
1.206257e-04
1.249206e-04
1.264123e-04
1.269620e-04
1.308734e-04
1.370129e-04
0.000000e+00
7.883128e-06
1.547173e-05
2.209252e-05
3.016197e-05
3.829952e-05
4.581681e-05
5.347193e-05
6.148588e-05
6.887277e-05
7.460953e-05
7.817689e-05
7.958105e-05
7.944124e-05
7.966418e-05
8.309600e-05
8.879171e-05
0.000000e+00
3.864276e-06
7.030106e-06
1.074885e-05
1.460787e-05
1.844910e-05
2.226441e-05
2.609593e-05
2.965383e-05
3.261263e-05
3.468063e-05
3.567413e-05
3.583666e-05
3.590254e-05
3.675060e-05
3.952337e-05
4.402915e-05
0.000000e+00
-3.251638e-08
-7.422673e-08
-1.304413e-07
-2.081039e-07
-3.121475e-07
-4.484362e-07
-6.392518e-07
-9.459811e-07
-1.454004e-06
-2.191116e-06
-3.020357e-06
-3.651529e-06
-3.666797e-06
-2.849674e-06
-1.282034e-06
1.240551e-06
0.000000e+00
-3.910695e-06
-7.138592e-06
-1.094150e-05
-1.491887e-05
-1.891708e-05
-2.292013e-05
-2.699959e-05
-3.094927e-05
-3.454992e-05
-3.754897e-05
-3.969255e-05
-4.095489e-05
-4.146248e-05
-4.159608e-05
-4.147183e-05
-4.061413e-05
0.000000e+00
-7.888808e-06
-1.550625e-05
-2.217928e-05
-3.031412e-05
-3.851657e-05
-4.610343e-05
-5.385946e-05
-6.195662e-05
-6.925419e-05
-7.466296e-05
-7.794968e-05
-7.974142e-05
-8.084751e-05
-8.166379e-05
-8.216151e-05
-8.210641e-05
0.000000e+00
-1.025949e-05
-2.152499e-05
-3.142346e-05
-4.348673e-05
-5.577416e-05
-6.697493e-05
-7.843980e-05
-9.085988e-05
-1.026185e-04
-1.116779e-04
-1.173209e-04
-1.204506e-04
-1.223246e-04
-1.235093e-04
-1.241013e-04
-1.242236e-04
0.000000e+00
-1.428090e-05
-2.730737e-05
-4.067054e-05
-5.632910e-05
-7.212712e-05
-8.705572e-05
-1.022894e-04
-1.182998e-04
-1.337677e-04
-1.467747e-04
-1.560803e-04
-1.619284e-04
-1.652268e-04
-1.667338e-04
-1.671427e-04
-1.671671e-04
0.000000e+00
1.229224e-05
2.147752e-05
3.376551e-05
5.056255e-05
7.040332e-05
9.398577e-05
1.224006e-04
1.551363e-04
1.910741e-04
2.296111e-04
2.705354e-04
3.140770e-04
3.613315e-04
4.164222e-04
4.803278e-04
5.450483e-04
0.000000e+00
6.586209e-06
1.612537e-05
2.752528e-05
4.348709e-05
6.354109e-05
8.736956e-05
1.154514e-04
1.479594e-04
1.843967e-04
2.241459e-04
2.666540e-04
3.117059e-04
3.597892e-04
4.123147e-04
4.726635e-04
5.353618e-04
0.000000e+00
2.933225e-06
1.151573e-05
2.274740e-05
3.813902e-05
5.831956e-05
8.244833e-05
1.104691e-04
1.429391e-04
1.799004e-04
2.206678e-04
2.643745e-04
3.105210e-04
3.587232e-04
4.076685e-04
4.633599e-04
5.230627e-04
0.000000e+00
1.755960e-06
9.255911e-06
2.050799e-05
3.589139e-05
5.600901e-05
8.023883e-05
1.084655e-04
1.411669e-04
1.784175e-04
2.195400e-04
2.635525e-04
3.098648e-04
3.575452e-04
4.042618e-04
4.551436e-04
5.101400e-04
0.000000e+00
1.538538e-06
8.597744e-06
1.975346e-05
3.526234e-05
5.529785e-05
7.952699e-05
1.079128e-04
1.408255e-04
1.782654e-04
2.195121e-04
2.634917e-04
3.095189e-04
3.567590e-04
4.027536e-04
4.500625e-04
4.995248e-04
0.000000e+00
1.776932e-06
9.278912e-06
2.052978e-05
3.590993e-05
5.601091e-05
8.020697e-05
1.084528e-04
1.413476e-04
1.789720e-04
2.204112e-04
2.643565e-04
3.100323e-04
3.566315e-04
4.026307e-04
4.481706e-04
4.933305e-04
0.000000e+00
2.960972e-06
1.155047e-05
2.278491e-05
3.817400e-05
5.832272e-05
8.239370e-05
1.104579e-04
1.432753e-04
1.809131e-04
2.223165e-04
2.660435e-04
3.112081e-04
3.571286e-04
4.027098e-04
4.474158e-04
4.908327e-04
0.000000e+00
6.613966e-06
1.617325e-05
2.758455e-05
4.353886e-05
6.354971e-05
8.732481e-05
1.154704e-04
1.483169e-04
1.853695e-04
2.257089e-04
2.683250e-04
3.125498e-04
3.577297e-04
4.028181e-04
4.470582e-04
4.902514e-04
0.000000e+00
1.232002e-05
2.153482e-05
3.383657e-05
5.061936e-05
7.041127e-05
9.395646e-05
1.224633e-04
1.554595e-04
1.916899e-04
2.303423e-04
2.711286e-04
3.140224e-04
3.583967e-04
4.030159e-04
4.469909e-04
4.902184e-04


2.546891e+00
2.362540e+00
2.433812e+00
2.580345e+00
2.642848e+00
2.877014e+00
3.179589e+00
3.489452e+00
3.909819e+00
4.487571e+00
5.153678e+00
5.802721e+00
6.286362e+00
6.200619e+00
5.306819e+00
4.427617e+00
3.989386e+00
3.808452e+00
3.832531e+00
3.899084e+00
3.913845e+00
4.065018e+00
4.271973e+00
4.480701e+00
4.764081e+00
5.156633e+00
5.615008e+00
6.067374e+00
6.372534e+00
6.096564e+00
5.059526e+00
4.068402e+00
5.856125e+00
5.760736e+00
5.739643e+00
5.727706e+00
5.687463e+00
5.733071e+00
5.802803e+00
5.862934e+00
5.944598e+00
6.062459e+00
6.204774e+00
6.354499e+00
6.430573e+00
6.083507e+00
5.171606e+00
4.393104e+00
6.875663e+00
6.829388e+00
6.798679e+00
6.736549e+00
6.686222e+00
6.667709e+00
6.648451e+00
6.609955e+00
6.553303e+00
6.481163e+00
6.404578e+00
6.353192e+00
6.326308e+00
6.144095e+00
5.720213e+00
5.369029e+00
6.875371e+00
6.828460e+00
6.797539e+00
6.735231e+00
6.682116e+00
6.654634e+00
6.616631e+00
6.547760e+00
6.452996e+00
6.343399e+00
6.239164e+00
6.185993e+00
6.221383e+00
6.275366e+00
6.270103e+00
6.245014e+00
5.855518e+00
5.757968e+00
5.734703e+00
5.720504e+00
5.673066e+00
5.698670e+00
5.727595e+00
5.728780e+00
5.751372e+00
5.822475e+00
5.930648e+00
6.078250e+00
6.283647e+00
6.514272e+00
6.701003e+00
6.802317e+00
3.988958e+00
3.805004e+00
3.825167e+00
3.887940e+00
3.897014e+00
4.034205e+00
4.214299e+00
4.402340e+00
4.702044e+00
5.137523e+00
5.617941e+00
6.062649e+00
6.450937e+00
6.769925e+00
6.991788e+00
7.098843e+00
2.546811e+00
2.360095e+00
2.428156e+00
2.572380e+00
2.635037e+00
2.868968e+00
3.171906e+00
3.513959e+00
4.034471e+00
4.741579e+00
5.476280e+00
6.104393e+00
6.586700e+00
6.925465e+00
7.128676e+00
7.218418e+00


-5.665737e-01
-1.660660e-01
-1.507634e-01
-2.267611e-01
-1.192623e-01
-1.076194e-01
-1.256157e-01
-9.361737e-02
-6.855947e-02
-7.469890e-02
-7.809952e-02
-4.997549e-02
2.615822e-02
2.227740e-01
5.482817e-01
-5.071646e-01
5.556059e-01
4.451570e-01
3.765900e-01
3.009047e-01
3.389080e-01
3.316163e-01
3.104359e-01
3.182073e-01
3.311795e-01
3.464344e-01
3.920482e-01
4.905999e-01
6.475477e-01
8.319756e-01
7.600488e-01
-1.057954e+00
8.285159e-01
6.988436e-01
5.703473e-01
5.057819e-01
4.978731e-01
4.801179e-01
4.657245e-01
4.674653e-01
4.788793e-01
5.019257e-01
5.445117e-01
5.981658e-01
6.151991e-01
5.051846e-01
2.322974e-01
-2.240113e-01
8.764690e-01
7.543391e-01
6.124817e-01
5.298451e-01
4.982046e-01
4.847949e-01
4.804528e-01
4.842905e-01
4.893045e-01
4.868226e-01
4.688229e-01
4.161388e-01
2.927864e-01
1.156891e-01
7.974474e-02
1.605747e-01
8.773579e-01
7.554736e-01
6.136720e-01
5.299056e-01
4.955557e-01
4.771423e-01
4.644520e-01
4.542811e-01
4.349728e-01
3.942326e-01
3.272670e-01
2.339275e-01
1.297612e-01
1.010752e-01
2.610278e-01
5.539866e-01
8.305547e-01
7.015277e-01
5.732794e-01
5.065981e-01
4.928601e-01
4.643837e-01
4.321168e-01
4.033042e-01
3.611704e-01
3.010644e-01
2.378607e-01
1.938182e-01
2.044132e-01
3.259594e-01
5.694851e-01
8.444203e-01
5.567753e-01
4.469231e-01
3.786371e-01
3.020763e-01
3.363046e-01
3.231596e-01
2.939237e-01
2.843287e-01
2.622435e-01
2.301468e-01
2.330448e-01
2.995124e-01
4.302671e-01
6.211778e-01
8.306319e-01
9.714889e-01
-5.693838e-01
-1.681603e-01
-1.523804e-01
-2.276757e-01
-1.199485e-01
-1.046540e-01
-1.105448e-01
-6.669969e-02
-3.034940e-02
1.450105e-02
1.517811e-01
3.949505e-01
6.630318e-01
8.678827e-01
9.729305e-01
9.994232e-01
1 2 19 18
2 3 20 19
3 4 21 20
4 5 22 21
5 6 23 22
6 7 24 23
7 8 25 24
8 9 26 25
9 10 27 26
10 11 28 27
11 12 29 28
12 13 30 29
13 14 31 30
14 15 32 31
15 16 33 32
16 17 34 33
18 19 36 35
19 20 37 36
20 21 38 37
21 22 39 38
22 23 40 39
23 24 41 40
24 25 42 41
25 26 43 42
26 27 44 43
27 28 45 44
28 29 46 45
29 30 47 46
30 31 48 47
31 32 49 48
32 33 50 49
33 34 51 50
35 36 53 52
36 37 54 53
37 38 55 54
38 39 56 55
39 40 57 56
40 41 58 57
41 42 59 58
42 43 60 59
43 44 61 60
44 45 62 61
45 46 63 62
46 47 64 63
47 48 65 64
48 49 66 65
49 50 67 66
50 51 68 67
52 53 70 69
53 54 71 70
54 55 72 71
55 56 73 72
56 57 74 73
57 58 75 74
58 59 76 75
59 60 77 76
60 61 78 77
61 62 79 78
62 63 80 79
63 64 81 80
64 65 82 81
65 66 83 82
66 67 84 83
67 68 85 84
69 70 87 86
70 71 88 87
71 72 89 88
72 73 90 89
73 74 91 90
74 75 92 91
75 76 93 92
76 77 94 93
77 78 95 94
78 79 96 95
79 80 97 96
80 81 98 97
81 82 99 98
82 83 100 99
83 84 101 100
84 85 102 101
86 87 104 103
87 88 105 104
88 89 106 105
89 90 107 106
90 91 108 107
91 92 109 108
92 93 110 109
93 94 111 110
94 95 112 111
95 96 113 112
96 97 114 113
97 98 115 114
98 99 116 115
99 100 117 116
100 101 118 117
101 102 119 118
103 104 121 120
104 105 122 121
105 106 123 122
106 107 124 123
107 108 125 124
108 109 126 125
109 110 127 126
110 111 128 127
111 112 129 128
112 113 130 129
113 114 131 130
114 115 132 131
115 116 133 132
116 117 134 133
117 118 135 134
118 119 136 135
120 121 138 137
121 122 139 138
122 123 140 139
123 124 141 140
124 125 142 141
125 126 143 142
126 127 144 143
127 128 145 144
128 129 146 145
129 130 147 146
130 131 148 147
131 132 149 148
132 133 150 149
133 134 151 150
134 135 152 151
135 136 153 152
