TITLE = "Solution"
VARIABLES = x, y, u, v, psiu, psiv, t, stress
ZONE T="structure" N=561 E=512 F=FEBLOCK ET=QUADRILATERAL VARLOCATION=([7,8]=cellcentered)
0.000000e+00
6.250000e+00
1.250000e+01
1.875000e+01
2.500000e+01
3.125000e+01
3.750000e+01
4.375000e+01
5.000000e+01
5.625000e+01
6.250000e+01
6.875000e+01
7.500000e+01
8.125000e+01
8.750000e+01
9.375000e+01
1.000000e+02
1.062500e+02
1.125000e+02
1.187500e+02
1.250000e+02
1.312500e+02
1.375000e+02
1.437500e+02
1.500000e+02
1.562500e+02
1.625000e+02
1.687500e+02
1.750000e+02
1.812500e+02
1.875000e+02
1.937500e+02
2.000000e+02
0.000000e+00
6.250000e+00
1.250000e+01
1.875000e+01
2.500000e+01
3.125000e+01
3.750000e+01
4.375000e+01
5.000000e+01
5.625000e+01
6.250000e+01
6.875000e+01
7.500000e+01
8.125000e+01
8.750000e+01
9.375000e+01
1.000000e+02
1.062500e+02
1.125000e+02
1.187500e+02
1.250000e+02
1.312500e+02
1.375000e+02
1.437500e+02
1.500000e+02
1.562500e+02
1.625000e+02
1.687500e+02
1.750000e+02
1.812500e+02
1.875000e+02
1.937500e+02
2.000000e+02
0.000000e+00
6.250000e+00
1.250000e+01
1.875000e+01
2.500000e+01
3.125000e+01
3.750000e+01
4.375000e+01
5.000000e+01
5.625000e+01
6.250000e+01
6.875000e+01
7.500000e+01
8.125000e+01
8.750000e+01
9.375000e+01
1.000000e+02
1.062500e+02
1.125000e+02
1.187500e+02
1.250000e+02
1.312500e+02
1.375000e+02
1.437500e+02
1.500000e+02
1.562500e+02
1.625000e+02
1.687500e+02
1.750000e+02
1.812500e+02
1.875000e+02
1.937500e+02
2.000000e+02
0.000000e+00
6.250000e+00
1.250000e+01
1.875000e+01
2.500000e+01
3.125000e+01
3.750000e+01
4.375000e+01
5.000000e+01
5.625000e+01
6.250000e+01
6.875000e+01
7.500000e+01
8.125000e+01
8.750000e+01
9.375000e+01
1.000000e+02
1.062500e+02
1.125000e+02
1.187500e+02
1.250000e+02
1.312500e+02
1.375000e+02
1.437500e+02
1.500000e+02
1.562500e+02
1.625000e+02
1.687500e+02
1.750000e+02
1.812500e+02
1.875000e+02
1.937500e+02
2.000000e+02
0.000000e+00
6.250000e+00
1.250000e+01
1.875000e+01
2.500000e+01
3.125000e+01
3.750000e+01
4.375000e+01
5.000000e+01
5.625000e+01
6.250000e+01
6.875000e+01
7.500000e+01
8.125000e+01
8.750000e+01
9.375000e+01
1.000000e+02
1.062500e+02
1.125000e+02
1.187500e+02
1.250000e+02
1.312500e+02
1.375000e+02
1.437500e+02
1.500000e+02
1.562500e+02
1.625000e+02
1.687500e+02
1.750000e+02
1.812500e+02
1.875000e+02
1.937500e+02
2.000000e+02
0.000000e+00
6.250000e+00
1.250000e+01
1.875000e+01
2.500000e+01
3.125000e+01
3.750000e+01
4.375000e+01
5.000000e+01
5.625000e+01
6.250000e+01
6.875000e+01
7.500000e+01
8.125000e+01
8.750000e+01
9.375000e+01
1.000000e+02
1.062500e+02
1.125000e+02
1.187500e+02
1.250000e+02
1.312500e+02
1.375000e+02
1.437500e+02
1.500000e+02
1.562500e+02
1.625000e+02
1.687500e+02
1.750000e+02
1.812500e+02
1.875000e+02
1.937500e+02
2.000000e+02
0.000000e+00
6.250000e+00
1.250000e+01
1.875000e+01
2.500000e+01
3.125000e+01
3.750000e+01
4.375000e+01
5.000000e+01
5.625000e+01
6.250000e+01
6.875000e+01
7.500000e+01
8.125000e+01
8.750000e+01
9.375000e+01
1.000000e+02
1.062500e+02
1.125000e+02
1.187500e+02
1.250000e+02
1.312500e+02
1.375000e+02
1.437500e+02
1.500000e+02
1.562500e+02
1.625000e+02
1.687500e+02
1.750000e+02
1.812500e+02
1.875000e+02
1.937500e+02
2.000000e+02
0.000000e+00
6.250000e+00
1.250000e+01
1.875000e+01
2.500000e+01
3.125000e+01
3.750000e+01
4.375000e+01
5.000000e+01
5.625000e+01
6.250000e+01
6.875000e+01
7.500000e+01
8.125000e+01
8.750000e+01
9.375000e+01
1.000000e+02
1.062500e+02
1.125000e+02
1.187500e+02
1.250000e+02
1.312500e+02
1.375000e+02
1.437500e+02
1.500000e+02
1.562500e+02
1.625000e+02
1.687500e+02
1.750000e+02
1.812500e+02
1.875000e+02
1.937500e+02
2.000000e+02
0.000000e+00
6.250000e+00
1.250000e+01
1.875000e+01
2.500000e+01
3.125000e+01
3.750000e+01
4.375000e+01
5.000000e+01
5.625000e+01
6.250000e+01
6.875000e+01
7.500000e+01
8.125000e+01
8.750000e+01
9.375000e+01
1.000000e+02
1.062500e+02
1.125000e+02
1.187500e+02
1.250000e+02
1.312500e+02
1.375000e+02
1.437500e+02
1.500000e+02
1.562500e+02
1.625000e+02
1.687500e+02
1.750000e+02
1.812500e+02
1.875000e+02
1.937500e+02
2.000000e+02
0.000000e+00
6.250000e+00
1.250000e+01
1.875000e+01
2.500000e+01
3.125000e+01
3.750000e+01
4.375000e+01
5.000000e+01
5.625000e+01
6.250000e+01
6.875000e+01
7.500000e+01
8.125000e+01
8.750000e+01
9.375000e+01
1.000000e+02
1.062500e+02
1.125000e+02
1.187500e+02
1.250000e+02
1.312500e+02
1.375000e+02
1.437500e+02
1.500000e+02
1.562500e+02
1.625000e+02
1.687500e+02
1.750000e+02
1.812500e+02
1.875000e+02
1.937500e+02
2.000000e+02
0.000000e+00
6.250000e+00
1.250000e+01
1.875000e+01
2.500000e+01
3.125000e+01
3.750000e+01
4.375000e+01
5.000000e+01
5.625000e+01
6.250000e+01
6.875000e+01
7.500000e+01
8.125000e+01
8.750000e+01
9.375000e+01
1.000000e+02
1.062500e+02
1.125000e+02
1.187500e+02
1.250000e+02
1.312500e+02
1.375000e+02
1.437500e+02
1.500000e+02
1.562500e+02
1.625000e+02
1.687500e+02
1.750000e+02
1.812500e+02
1.875000e+02
1.937500e+02
2.000000e+02
0.000000e+00
6.250000e+00
1.250000e+01
1.875000e+01
2.500000e+01
3.125000e+01
3.750000e+01
4.375000e+01
5.000000e+01
5.625000e+01
6.250000e+01
6.875000e+01
7.500000e+01
8.125000e+01
8.750000e+01
9.375000e+01
1.000000e+02
1.062500e+02
1.125000e+02
1.187500e+02
1.250000e+02
1.312500e+02
1.375000e+02
1.437500e+02
1.500000e+02
1.562500e+02
1.625000e+02
1.687500e+02
1.750000e+02
1.812500e+02
1.875000e+02
1.937500e+02
2.000000e+02
0.000000e+00
6.250000e+00
1.250000e+01
1.875000e+01
2.500000e+01
3.125000e+01
3.750000e+01
4.375000e+01
5.000000e+01
5.625000e+01
6.250000e+01
6.875000e+01
7.500000e+01
8.125000e+01
8.750000e+01
9.375000e+01
1.000000e+02
1.062500e+02
1.125000e+02
1.187500e+02
1.250000e+02
1.312500e+02
1.375000e+02
1.437500e+02
1.500000e+02
1.562500e+02
1.625000e+02
1.687500e+02
1.750000e+02
1.812500e+02
1.875000e+02
1.937500e+02
2.000000e+02
0.000000e+00
6.250000e+00
1.250000e+01
1.875000e+01
2.500000e+01
3.125000e+01
3.750000e+01
4.375000e+01
5.000000e+01
5.625000e+01
6.250000e+01
6.875000e+01
7.500000e+01
8.125000e+01
8.750000e+01
9.375000e+01
1.000000e+02
1.062500e+02
1.125000e+02
1.187500e+02
1.250000e+02
1.312500e+02
1.375000e+02
1.437500e+02
1.500000e+02
1.562500e+02
1.625000e+02
1.687500e+02
1.750000e+02
1.812500e+02
1.875000e+02
1.937500e+02
2.000000e+02
0.000000e+00
6.250000e+00
1.250000e+01
1.875000e+01
2.500000e+01
3.125000e+01
3.750000e+01
4.375000e+01
5.000000e+01
5.625000e+01
6.250000e+01
6.875000e+01
7.500000e+01
8.125000e+01
8.750000e+01
9.375000e+01
1.000000e+02
1.062500e+02
1.125000e+02
1.187500e+02
1.250000e+02
1.312500e+02
1.375000e+02
1.437500e+02
1.500000e+02
1.562500e+02
1.625000e+02
1.687500e+02
1.750000e+02
1.812500e+02
1.875000e+02
1.937500e+02
2.000000e+02
0.000000e+00
6.250000e+00
1.250000e+01
1.875000e+01
2.500000e+01
3.125000e+01
3.750000e+01
4.375000e+01
5.000000e+01
5.625000e+01
6.250000e+01
6.875000e+01
7.500000e+01
8.125000e+01
8.750000e+01
9.375000e+01
1.000000e+02
1.062500e+02
1.125000e+02
1.187500e+02
1.250000e+02
1.312500e+02
1.375000e+02
1.437500e+02
1.500000e+02
1.562500e+02
1.625000e+02
1.687500e+02
1.750000e+02
1.812500e+02
1.875000e+02
1.937500e+02
2.000000e+02
0.000000e+00
6.250000e+00
1.250000e+01
1.875000e+01
2.500000e+01
3.125000e+01
3.750000e+01
4.375000e+01
5.000000e+01
5.625000e+01
6.250000e+01
6.875000e+01
7.500000e+01
8.125000e+01
8.750000e+01
9.375000e+01
1.000000e+02
1.062500e+02
1.125000e+02
1.187500e+02
1.250000e+02
1.312500e+02
1.375000e+02
1.437500e+02
1.500000e+02
1.562500e+02
1.625000e+02
1.687500e+02
1.750000e+02
1.812500e+02
1.875000e+02
1.937500e+02
2.000000e+02
0.000000e+00
0.000000e+00
0.000000e+00
0.000000e+00
0.000000e+00
0.000000e+00
0.000000e+00
0.000000e+00
0.000000e+00
0.000000e+00
0.000000e+00
0.000000e+00
0.000000e+00
0.000000e+00
0.000000e+00
0.000000e+00
0.000000e+00
0.000000e+00
0.000000e+00
0.000000e+00
0.000000e+00
0.000000e+00
0.000000e+00
0.000000e+00
0.000000e+00
0.000000e+00
0.000000e+00
0.000000e+00
0.000000e+00
0.000000e+00
0.000000e+00
0.000000e+00
0.000000e+00
6.250000e+00
6.250000e+00
6.250000e+00
6.250000e+00
6.250000e+00
6.250000e+00
6.250000e+00
6.250000e+00
6.250000e+00
6.250000e+00
6.250000e+00
6.250000e+00
6.250000e+00
6.250000e+00
6.250000e+00
6.250000e+00
6.250000e+00
6.250000e+00
6.250000e+00
6.250000e+00
6.250000e+00
6.250000e+00
6.250000e+00
6.250000e+00
6.250000e+00
6.250000e+00
6.250000e+00
6.250000e+00
6.250000e+00
6.250000e+00
6.250000e+00
6.250000e+00
6.250000e+00
1.250000e+01
1.250000e+01
1.250000e+01
1.250000e+01
1.250000e+01
1.250000e+01
1.250000e+01
1.250000e+01
1.250000e+01
1.250000e+01
1.250000e+01
1.250000e+01
1.250000e+01
1.250000e+01
1.250000e+01
1.250000e+01
1.250000e+01
1.250000e+01
1.250000e+01
1.250000e+01
1.250000e+01
1.250000e+01
1.250000e+01
1.250000e+01
1.250000e+01
1.250000e+01
1.250000e+01
1.250000e+01
1.250000e+01
1.250000e+01
1.250000e+01
1.250000e+01
1.250000e+01
1.875000e+01
1.875000e+01
1.875000e+01
1.875000e+01
1.875000e+01
1.875000e+01
1.875000e+01
1.875000e+01
1.875000e+01
1.875000e+01
1.875000e+01
1.875000e+01
1.875000e+01
1.875000e+01
1.875000e+01
1.875000e+01
1.875000e+01
1.875000e+01
1.875000e+01
1.875000e+01
1.875000e+01
1.875000e+01
1.875000e+01
1.875000e+01
1.875000e+01
1.875000e+01
1.875000e+01
1.875000e+01
1.875000e+01
1.875000e+01
1.875000e+01
1.875000e+01
1.875000e+01
2.500000e+01
2.500000e+01
2.500000e+01
2.500000e+01
2.500000e+01
2.500000e+01
2.500000e+01
2.500000e+01
2.500000e+01
2.500000e+01
2.500000e+01
2.500000e+01
2.500000e+01
2.500000e+01
2.500000e+01
2.500000e+01
2.500000e+01
2.500000e+01
2.500000e+01
2.500000e+01
2.500000e+01
2.500000e+01
2.500000e+01
2.500000e+01
2.500000e+01
2.500000e+01
2.500000e+01
2.500000e+01
2.500000e+01
2.500000e+01
2.500000e+01
2.500000e+01
2.500000e+01
3.125000e+01
3.125000e+01
3.125000e+01
3.125000e+01
3.125000e+01
3.125000e+01
3.125000e+01
3.125000e+01
3.125000e+01
3.125000e+01
3.125000e+01
3.125000e+01
3.125000e+01
3.125000e+01
3.125000e+01
3.125000e+01
3.125000e+01
3.125000e+01
3.125000e+01
3.125000e+01
3.125000e+01
3.125000e+01
3.125000e+01
3.125000e+01
3.125000e+01
3.125000e+01
3.125000e+01
3.125000e+01
3.125000e+01
3.125000e+01
3.125000e+01
3.125000e+01
3.125000e+01
3.750000e+01
3.750000e+01
3.750000e+01
3.750000e+01
3.750000e+01
3.750000e+01
3.750000e+01
3.750000e+01
3.750000e+01
3.750000e+01
3.750000e+01
3.750000e+01
3.750000e+01
3.750000e+01
3.750000e+01
3.750000e+01
3.750000e+01
3.750000e+01
3.750000e+01
3.750000e+01
3.750000e+01
3.750000e+01
3.750000e+01
3.750000e+01
3.750000e+01
3.750000e+01
3.750000e+01
3.750000e+01
3.750000e+01
3.750000e+01
3.750000e+01
3.750000e+01
3.750000e+01
4.375000e+01
4.375000e+01
4.375000e+01
4.375000e+01
4.375000e+01
4.375000e+01
4.375000e+01
4.375000e+01
4.375000e+01
4.375000e+01
4.375000e+01
4.375000e+01
4.375000e+01
4.375000e+01
4.375000e+01
4.375000e+01
4.375000e+01
4.375000e+01
4.375000e+01
4.375000e+01
4.375000e+01
4.375000e+01
4.375000e+01
4.375000e+01
4.375000e+01
4.375000e+01
4.375000e+01
4.375000e+01
4.375000e+01
4.375000e+01
4.375000e+01
4.375000e+01
4.375000e+01
5.000000e+01
5.000000e+01
5.000000e+01
5.000000e+01
5.000000e+01
5.000000e+01
5.000000e+01
5.000000e+01
5.000000e+01
5.000000e+01
5.000000e+01
5.000000e+01
5.000000e+01
5.000000e+01
5.000000e+01
5.000000e+01
5.000000e+01
5.000000e+01
5.000000e+01
5.000000e+01
5.000000e+01
5.000000e+01
5.000000e+01
5.000000e+01
5.000000e+01
5.000000e+01
5.000000e+01
5.000000e+01
5.000000e+01
5.000000e+01
5.000000e+01
5.000000e+01
5.000000e+01
5.625000e+01
5.625000e+01
5.625000e+01
5.625000e+01
5.625000e+01
5.625000e+01
5.625000e+01
5.625000e+01
5.625000e+01
5.625000e+01
5.625000e+01
5.625000e+01
5.625000e+01
5.625000e+01
5.625000e+01
5.625000e+01
5.625000e+01
5.625000e+01
5.625000e+01
5.625000e+01
5.625000e+01
5.625000e+01
5.625000e+01
5.625000e+01
5.625000e+01
5.625000e+01
5.625000e+01
5.625000e+01
5.625000e+01
5.625000e+01
5.625000e+01
5.625000e+01
5.625000e+01
6.250000e+01
6.250000e+01
6.250000e+01
6.250000e+01
6.250000e+01
6.250000e+01
6.250000e+01
6.250000e+01
6.250000e+01
6.250000e+01
6.250000e+01
6.250000e+01
6.250000e+01
6.250000e+01
6.250000e+01
6.250000e+01
6.250000e+01
6.250000e+01
6.250000e+01
6.250000e+01
6.250000e+01
6.250000e+01
6.250000e+01
6.250000e+01
6.250000e+01
6.250000e+01
6.250000e+01
6.250000e+01
6.250000e+01
6.250000e+01
6.250000e+01
6.250000e+01
6.250000e+01
6.875000e+01
6.875000e+01
6.875000e+01
6.875000e+01
6.875000e+01
6.875000e+01
6.875000e+01
6.875000e+01
6.875000e+01
6.875000e+01
6.875000e+01
6.875000e+01
6.875000e+01
6.875000e+01
6.875000e+01
6.875000e+01
6.875000e+01
6.875000e+01
6.875000e+01
6.875000e+01
6.875000e+01
6.875000e+01
6.875000e+01
6.875000e+01
6.875000e+01
6.875000e+01
6.875000e+01
6.875000e+01
6.875000e+01
6.875000e+01
6.875000e+01
6.875000e+01
6.875000e+01
7.500000e+01
7.500000e+01
7.500000e+01
7.500000e+01
7.500000e+01
7.500000e+01
7.500000e+01
7.500000e+01
7.500000e+01
7.500000e+01
7.500000e+01
7.500000e+01
7.500000e+01
7.500000e+01
7.500000e+01
7.500000e+01
7.500000e+01
7.500000e+01
7.500000e+01
7.500000e+01
7.500000e+01
7.500000e+01
7.500000e+01
7.500000e+01
7.500000e+01
7.500000e+01
7.500000e+01
7.500000e+01
7.500000e+01
7.500000e+01
7.500000e+01
7.500000e+01
7.500000e+01
8.125000e+01
8.125000e+01
8.125000e+01
8.125000e+01
8.125000e+01
8.125000e+01
8.125000e+01
8.125000e+01
8.125000e+01
8.125000e+01
8.125000e+01
8.125000e+01
8.125000e+01
8.125000e+01
8.125000e+01
8.125000e+01
8.125000e+01
8.125000e+01
8.125000e+01
8.125000e+01
8.125000e+01
8.125000e+01
8.125000e+01
8.125000e+01
8.125000e+01
8.125000e+01
8.125000e+01
8.125000e+01
8.125000e+01
8.125000e+01
8.125000e+01
8.125000e+01
8.125000e+01
8.750000e+01
8.750000e+01
8.750000e+01
8.750000e+01
8.750000e+01
8.750000e+01
8.750000e+01
8.750000e+01
8.750000e+01
8.750000e+01
8.750000e+01
8.750000e+01
8.750000e+01
8.750000e+01
8.750000e+01
8.750000e+01
8.750000e+01
8.750000e+01
8.750000e+01
8.750000e+01
8.750000e+01
8.750000e+01
8.750000e+01
8.750000e+01
8.750000e+01
8.750000e+01
8.750000e+01
8.750000e+01
8.750000e+01
8.750000e+01
8.750000e+01
8.750000e+01
8.750000e+01
9.375000e+01
9.375000e+01
9.375000e+01
9.375000e+01
9.375000e+01
9.375000e+01
9.375000e+01
9.375000e+01
9.375000e+01
9.375000e+01
9.375000e+01
9.375000e+01
9.375000e+01
9.375000e+01
9.375000e+01
9.375000e+01
9.375000e+01
9.375000e+01
9.375000e+01
9.375000e+01
9.375000e+01
9.375000e+01
9.375000e+01
9.375000e+01
9.375000e+01
9.375000e+01
9.375000e+01
9.375000e+01
9.375000e+01
9.375000e+01
9.375000e+01
9.375000e+01
9.375000e+01
1.000000e+02
1.000000e+02
1.000000e+02
1.000000e+02
1.000000e+02
1.000000e+02
1.000000e+02
1.000000e+02
1.000000e+02
1.000000e+02
1.000000e+02
1.000000e+02
1.000000e+02
1.000000e+02
1.000000e+02
1.000000e+02
1.000000e+02
1.000000e+02
1.000000e+02
1.000000e+02
1.000000e+02
1.000000e+02
1.000000e+02
1.000000e+02
1.000000e+02
1.000000e+02
1.000000e+02
1.000000e+02
1.000000e+02
1.000000e+02
1.000000e+02
1.000000e+02
1.000000e+02
0.000000e+00
-3.953564e-02
-7.173217e-02
-1.015577e-01
-1.301818e-01
-1.578227e-01
-1.845359e-01
-2.103191e-01
-2.351559e-01
-2.590284e-01
-2.819215e-01
-3.038251e-01
-3.247336e-01
-3.446467e-01
-3.635690e-01
-3.815105e-01
-3.984873e-01
-4.145227e-01
-4.296490e-01
-4.439096e-01
-4.573627e-01
-4.700847e-01
-4.821772e-01
-4.937745e-01
-5.050568e-01
-5.162689e-01
-5.277508e-01
-5.399873e-01
-5.536899e-01
-5.699052e-01
-5.899911e-01
-6.139281e-01
-6.285364e-01
0.000000e+00
-2.650759e-02
-5.515189e-02
-8.215968e-02
-1.078295e-01
-1.324059e-01
-1.560185e-01
-1.787244e-01
-2.005461e-01
-2.214909e-01
-2.415602e-01
-2.607542e-01
-2.790736e-01
-2.965214e-01
-3.131035e-01
-3.288290e-01
-3.437114e-01
-3.577690e-01
-3.710261e-01
-3.835145e-01
-3.952745e-01
-4.063569e-01
-4.168249e-01
-4.267556e-01
-4.362415e-01
-4.453887e-01
-4.543093e-01
-4.630955e-01
-4.717467e-01
-4.799816e-01
-4.868435e-01
-4.908552e-01
-4.964403e-01
0.000000e+00
-2.102589e-02
-4.328685e-02
-6.595204e-02
-8.797558e-02
-1.091875e-01
-1.295743e-01
-1.491552e-01
-1.679476e-01
-1.859632e-01
-2.032099e-01
-2.196929e-01
-2.354168e-01
-2.503862e-01
-2.646067e-01
-2.780852e-01
-2.908305e-01
-3.028535e-01
-3.141678e-01
-3.247894e-01
-3.347371e-01
-3.440308e-01
-3.526904e-01
-3.607312e-01
-3.681565e-01
-3.749424e-01
-3.810113e-01
-3.861845e-01
-3.901122e-01
-3.922272e-01
-3.920418e-01
-3.908541e-01
-3.973760e-01
0.000000e+00
-1.668218e-02
-3.428568e-02
-5.237107e-02
-7.041408e-02
-8.802004e-02
-1.050382e-01
-1.214144e-01
-1.371341e-01
-1.521967e-01
-1.666059e-01
-1.803667e-01
-1.934836e-01
-2.059608e-01
-2.178020e-01
-2.290105e-01
-2.395895e-01
-2.495415e-01
-2.588686e-01
-2.675715e-01
-2.756478e-01
-2.830901e-01
-2.898821e-01
-2.959919e-01
-3.013633e-01
-3.059014e-01
-3.094560e-01
-3.118100e-01
-3.127088e-01
-3.120415e-01
-3.104211e-01
-3.103243e-01
-3.165380e-01
0.000000e+00
-1.294770e-02
-2.651247e-02
-4.051056e-02
-5.462237e-02
-6.856109e-02
-8.213441e-02
-9.524495e-02
-1.078484e-01
-1.199279e-01
-1.314787e-01
-1.425017e-01
-1.529988e-01
-1.629718e-01
-1.724214e-01
-1.813467e-01
-1.897449e-01
-1.976111e-01
-2.049370e-01
-2.117103e-01
-2.179130e-01
-2.235184e-01
-2.284882e-01
-2.327679e-01
-2.362817e-01
-2.389304e-01
-2.405971e-01
-2.411817e-01
-2.407021e-01
-2.395284e-01
-2.387670e-01
-2.405254e-01
-2.458259e-01
0.000000e+00
-9.515804e-03
-1.943930e-02
-2.968161e-02
-4.006575e-02
-5.039789e-02
-6.052414e-02
-7.034447e-02
-7.980399e-02
-8.887599e-02
-9.754922e-02
-1.058197e-01
-1.136860e-01
-1.211468e-01
-1.281991e-01
-1.348381e-01
-1.410558e-01
-1.468408e-01
-1.521776e-01
-1.570451e-01
-1.614161e-01
-1.652550e-01
-1.685171e-01
-1.711475e-01
-1.730839e-01
-1.742655e-01
-1.746575e-01
-1.743057e-01
-1.734386e-01
-1.726137e-01
-1.728146e-01
-1.750561e-01
-1.794420e-01
0.000000e+00
-6.262543e-03
-1.277280e-02
-1.948958e-02
-2.631710e-02
-3.314043e-02
-3.985668e-02
-4.639085e-02
-5.269597e-02
-5.874617e-02
-6.452834e-02
-7.003592e-02
-7.526467e-02
-8.021026e-02
-8.486670e-02
-8.922549e-02
-9.327487e-02
-9.699926e-02
-1.003787e-01
-1.033883e-01
-1.059978e-01
-1.081718e-01
-1.098708e-01
-1.110548e-01
-1.116910e-01
-1.117699e-01
-1.113349e-01
-1.105301e-01
-1.096615e-01
-1.092405e-01
-1.098974e-01
-1.120797e-01
-1.156201e-01
0.000000e+00
-3.110603e-03
-6.338805e-03
-9.668014e-03
-1.305618e-02
-1.644979e-02
-1.979800e-02
-2.306104e-02
-2.621204e-02
-2.923458e-02
-3.211894e-02
-3.485868e-02
-3.744819e-02
-3.988107e-02
-4.214900e-02
-4.424111e-02
-4.614335e-02
-4.783818e-02
-4.930427e-02
-5.051666e-02
-5.144734e-02
-5.206682e-02
-5.234745e-02
-5.226939e-02
-5.183113e-02
-5.106610e-02
-5.006688e-02
-4.901404e-02
-4.819672e-02
-4.799198e-02
-4.876264e-02
-5.066645e-02
-5.347563e-02
0.000000e+00
-5.018615e-06
-1.088179e-05
-1.726472e-05
-2.383166e-05
-3.012991e-05
-3.547723e-05
-3.883687e-05
-3.867151e-05
-3.276749e-05
-1.802252e-05
9.806656e-06
5.639648e-05
1.291821e-04
2.377006e-04
3.939222e-04
6.125185e-04
9.109838e-04
1.309480e-03
1.830201e-03
2.495967e-03
3.327608e-03
4.339548e-03
5.532886e-03
6.885267e-03
8.337449e-03
9.778252e-03
1.103353e-02
1.187148e-02
1.204141e-02
1.135718e-02
9.807633e-03
7.637410e-03
0.000000e+00
3.101150e-03
6.318267e-03
9.635363e-03
1.301101e-02
1.639251e-02
1.973030e-02
2.298654e-02
2.613723e-02
2.917008e-02
3.208119e-02
3.487209e-02
3.754783e-02
4.011601e-02
4.258633e-02
4.497052e-02
4.728236e-02
4.953754e-02
5.175325e-02
5.394721e-02
5.613581e-02
5.833109e-02
6.053620e-02
6.273887e-02
6.490332e-02
6.696124e-02
6.880490e-02
7.028776e-02
7.124054e-02
7.151028e-02
7.102175e-02
6.984464e-02
6.823391e-02
0.000000e+00
6.254821e-03
1.275590e-02
1.946253e-02
2.627938e-02
3.309216e-02
3.979897e-02
4.632632e-02
5.262955e-02
5.868608e-02
6.448753e-02
7.003375e-02
7.532925e-02
8.038115e-02
8.519832e-02
8.979102e-02
9.417075e-02
9.835000e-02
1.023417e-01
1.061583e-01
1.098097e-01
1.133004e-01
1.166258e-01
1.197665e-01
1.226833e-01
1.253114e-01
1.275593e-01
1.293150e-01
1.304641e-01
1.309236e-01
1.306873e-01
1.298728e-01
1.287486e-01
0.000000e+00
9.510878e-03
1.942833e-02
2.966374e-02
4.004038e-02
5.036477e-02
6.048361e-02
7.029782e-02
7.975392e-02
8.882729e-02
9.750965e-02
1.058012e-01
1.137062e-01
1.212307e-01
1.283819e-01
1.351674e-01
1.415951e-01
1.476732e-01
1.534095e-01
1.588106e-01
1.638804e-01
1.686175e-01
1.730129e-01
1.770458e-01
1.806806e-01
1.838644e-01
1.865287e-01
1.885965e-01
1.899988e-01
1.907014e-01
1.907409e-01
1.902631e-01
1.895526e-01
0.000000e+00
1.294647e-02
2.650941e-02
4.050508e-02
5.461390e-02
6.854916e-02
8.211870e-02
9.522543e-02
1.078255e-01
1.199025e-01
1.314529e-01
1.424788e-01
1.529840e-01
1.629730e-01
1.724500e-01
1.814188e-01
1.898828e-01
1.978449e-01
2.053068e-01
2.122691e-01
2.187295e-01
2.246821e-01
2.301155e-01
2.350110e-01
2.393409e-01
2.430690e-01
2.461525e-01
2.485490e-01
2.502286e-01
2.511935e-01
2.515065e-01
2.513271e-01
2.509528e-01
0.000000e+00
1.668528e-02
3.429198e-02
5.238045e-02
7.042626e-02
8.803468e-02
1.050548e-01
1.214321e-01
1.371516e-01
1.522118e-01
1.666154e-01
1.803657e-01
1.934654e-01
2.059158e-01
2.177172e-01
2.288686e-01
2.393680e-01
2.492119e-01
2.583954e-01
2.669121e-01
2.747533e-01
2.819081e-01
2.883629e-01
2.941015e-01
2.991055e-01
3.033561e-01
3.068375e-01
3.095418e-01
3.114773e-01
3.126801e-01
3.132333e-01
3.132993e-01
3.131751e-01
0.000000e+00
2.103345e-02
4.330300e-02
6.597733e-02
8.801050e-02
1.092325e-01
1.296293e-01
1.492197e-01
1.680197e-01
1.860394e-01
2.032834e-01
2.197533e-01
2.354478e-01
2.503641e-01
2.644974e-01
2.778414e-01
2.903878e-01
3.021264e-01
3.130448e-01
3.231284e-01
3.323607e-01
3.407238e-01
3.481994e-01
3.547708e-01
3.604256e-01
3.651594e-01
3.689808e-01
3.719167e-01
3.740179e-01
3.753637e-01
3.760681e-01
3.762976e-01
3.763249e-01
0.000000e+00
2.651894e-02
5.517671e-02
8.219960e-02
1.078865e-01
1.324818e-01
1.561152e-01
1.788426e-01
2.006854e-01
2.216486e-01
2.417297e-01
2.609234e-01
2.792223e-01
2.966181e-01
3.131009e-01
3.286590e-01
3.432781e-01
3.569412e-01
3.696275e-01
3.813133e-01
3.919716e-01
4.015736e-01
4.100911e-01
4.174995e-01
4.237836e-01
4.289436e-01
4.330040e-01
4.360219e-01
4.380951e-01
4.393653e-01
4.400143e-01
4.402496e-01
4.403073e-01
0.000000e+00
3.954808e-02
7.176118e-02
1.016074e-01
1.302562e-01
1.579259e-01
1.846720e-01
2.104921e-01
2.353690e-01
2.592829e-01
2.822153e-01
3.041502e-01
3.250737e-01
3.449722e-01
3.638320e-01
3.816372e-01
3.983690e-01
4.140040e-01
4.285137e-01
4.418636e-01
4.540137e-01
4.649191e-01
4.745331e-01
4.828116e-01
4.897204e-01
4.952455e-01
4.994067e-01
5.022734e-01
5.039820e-01
5.047519e-01
5.048918e-01
5.047759e-01
5.047107e-01
0.000000e+00
-2.443227e-02
-4.263958e-02
-6.250813e-02
-8.463295e-02
-1.096251e-01
-1.376584e-01
-1.687814e-01
-2.029632e-01
-2.401305e-01
-2.801848e-01
-3.230127e-01
-3.684922e-01
-4.164958e-01
-4.668938e-01
-5.195554e-01
-5.743507e-01
-6.311520e-01
-6.898360e-01
-7.502863e-01
-8.123979e-01
-8.760822e-01
-9.412760e-01
-1.007954e+00
-1.076150e+00
-1.145989e+00
-1.217750e+00
-1.291974e+00
-1.369698e+00
-1.452973e+00
-1.546225e+00
-1.659899e+00
-1.816944e+00
0.000000e+00
-1.518373e-02
-3.424198e-02
-5.424456e-02
-7.667776e-02
-1.019415e-01
-1.302471e-01
-1.616425e-01
-1.960994e-01
-2.335445e-01
-2.738788e-01
-3.169879e-01
-3.627487e-01
-4.110328e-01
-4.617092e-01
-5.146458e-01
-5.697111e-01
-6.267755e-01
-6.857133e-01
-7.464052e-01
-8.087426e-01
-8.726322e-01
-9.380051e-01
-1.004829e+00
-1.073128e+00
-1.143016e+00
-1.214757e+00
-1.288877e+00
-1.366388e+00
-1.449310e+00
-1.541842e+00
-1.652986e+00
-1.799705e+00
0.000000e+00
-1.115332e-02
-2.760572e-02
-4.733544e-02
-6.980783e-02
-9.525770e-02
-1.237868e-01
-1.554215e-01
-1.901238e-01
-2.278169e-01
-2.684002e-01
-3.117585e-01
-3.577680e-01
-4.062998e-01
-4.572225e-01
-5.104035e-01
-5.657107e-01
-6.230136e-01
-6.821858e-01
-7.431071e-01
-8.056676e-01
-8.697737e-01
-9.353560e-01
-1.002383e+00
-1.070882e+00
-1.140974e+00
-1.212934e+00
-1.287300e+00
-1.365075e+00
-1.448074e+00
-1.539402e+00
-1.642727e+00
-1.757345e+00
0.000000e+00
-8.931105e-03
-2.337647e-02
-4.205410e-02
-6.423769e-02
-8.967966e-02
-1.183307e-01
-1.501427e-01
-1.850469e-01
-2.229527e-01
-2.637528e-01
-3.073293e-01
-3.535573e-01
-4.023077e-01
-4.534492e-01
-5.068496e-01
-5.623771e-01
-6.199019e-01
-6.792981e-01
-7.404465e-01
-8.032388e-01
-8.675834e-01
-9.334147e-01
-1.000706e+00
-1.069491e+00
-1.139897e+00
-1.212197e+00
-1.286885e+00
-1.364782e+00
-1.447085e+00
-1.534940e+00
-1.627599e+00
-1.713856e+00
0.000000e+00
-7.557181e-03
-2.061069e-02
-3.830373e-02
-5.998163e-02
-8.525679e-02
-1.139187e-01
-1.458339e-01
-1.808874e-01
-2.189643e-01
-2.599458e-01
-3.037082e-01
-3.501246e-01
-3.990654e-01
-4.503999e-01
-5.039967e-01
-5.597253e-01
-6.174575e-01
-6.770689e-01
-7.384426e-01
-8.014726e-01
-8.660701e-01
-9.321721e-01
-9.997539e-01
-1.068847e+00
-1.139562e+00
-1.212122e+00
-1.286883e+00
-1.364317e+00
-1.444804e+00
-1.527960e+00
-1.610732e+00
-1.685852e+00
0.000000e+00
-6.682940e-03
-1.879599e-02
-3.572288e-02
-5.691280e-02
-8.195121e-02
-1.105508e-01
-1.425069e-01
-1.776585e-01
-2.158637e-01
-2.569889e-01
-3.009031e-01
-3.474762e-01
-3.965782e-01
-4.480788e-01
-5.018481e-01
-5.577573e-01
-6.156800e-01
-6.754939e-01
-7.370838e-01
-8.003454e-01
-8.651903e-01
-9.315536e-01
-9.994033e-01
-1.068751e+00
-1.139665e+00
-1.212268e+00
-1.286719e+00
-1.363102e+00
-1.441161e+00
-1.519707e+00
-1.595932e+00
-1.665602e+00
0.000000e+00
-6.139610e-03
-1.764866e-02
-3.404528e-02
-5.485692e-02
-7.967956e-02
-1.081942e-01
-1.401543e-01
-1.753639e-01
-2.136580e-01
-2.548890e-01
-2.989192e-01
-3.456153e-01
-3.948467e-01
-4.464840e-01
-5.003987e-01
-5.564638e-01
-6.145545e-01
-6.745500e-01
-7.363359e-01
-7.998068e-01
-8.648709e-01
-9.314547e-01
-9.995079e-01
-1.069007e+00
-1.139953e+00
-1.212353e+00
-1.286165e+00
-1.361176e+00
-1.436776e+00
-1.511656e+00
-1.583658e+00
-1.650136e+00
0.000000e+00
-5.841041e-03
-1.701202e-02
-3.309991e-02
-5.367805e-02
-7.835634e-02
-1.068055e-01
-1.387586e-01
-1.739996e-01
-2.123486e-01
-2.536490e-01
-2.977582e-01
-3.445413e-01
-3.938674e-01
-4.456082e-01
-4.996366e-01
-5.558271e-01
-6.140560e-01
-6.742030e-01
-7.361523e-01
-7.997950e-01
-8.650310e-01
-9.317717e-01
-9.999400e-01
-1.069468e+00
-1.140283e+00
-1.212282e+00
-1.285268e+00
-1.358852e+00
-1.432309e+00
-1.504461e+00
-1.573683e+00
-1.638170e+00
0.000000e+00
-5.744844e-03
-1.680663e-02
-3.279351e-02
-5.329384e-02
-7.792328e-02
-1.063507e-01
-1.383033e-01
-1.735591e-01
-2.119337e-01
-2.532680e-01
-2.974182e-01
-3.442497e-01
-3.936326e-01
-4.454396e-01
-4.995450e-01
-5.558243e-01
-6.141543e-01
-6.744136e-01
-7.364834e-01
-8.002484e-01
-8.655968e-01
-9.324201e-01
-1.000611e+00
-1.070053e+00
-1.140609e+00
-1.212087e+00
-1.284193e+00
-1.356460e+00
-1.428177e+00
-1.498346e+00
-1.565728e+00
-1.629000e+00
0.000000e+00
-5.838259e-03
-1.700816e-02
-3.309659e-02
-5.367704e-02
-7.835987e-02
-1.068165e-01
-1.387809e-01
-1.740383e-01
-2.124105e-01
-2.537427e-01
-2.978945e-01
-3.447336e-01
-3.941320e-01
-4.459640e-01
-5.001049e-01
-5.564308e-01
-6.148180e-01
-6.751432e-01
-7.372831e-01
-8.011137e-01
-8.665098e-01
-9.333415e-01
-1.001470e+00
-1.070737e+00
-1.140952e+00
-1.211861e+00
-1.283120e+00
-1.354250e+00
-1.424601e+00
-1.493352e+00
-1.559543e+00
-1.622165e+00
0.000000e+00
-6.134270e-03
-1.764125e-02
-3.403887e-02
-5.485491e-02
-7.968619e-02
-1.082150e-01
-1.401968e-01
-1.754379e-01
-2.137763e-01
-2.550683e-01
-2.991802e-01
-3.459840e-01
-3.953541e-01
-4.471665e-01
-5.012974e-01
-5.576231e-01
-6.160186e-01
-6.763581e-01
-7.385126e-01
-8.023495e-01
-8.677291e-01
-9.345015e-01
-1.002500e+00
-1.071531e+00
-1.141363e+00
-1.211708e+00
-1.282201e+00
-1.352381e+00
-1.421681e+00
-1.489435e+00
-1.554904e+00
-1.617313e+00
0.000000e+00
-6.675518e-03
-1.878569e-02
-3.571393e-02
-5.690991e-02
-8.196028e-02
-1.105796e-01
-1.425659e-01
-1.777615e-01
-2.160288e-01
-2.572391e-01
-3.012677e-01
-3.479915e-01
-3.972877e-01
-4.490337e-01
-5.031063e-01
-5.593814e-01
-6.177328e-01
-6.780314e-01
-7.401431e-01
-8.039266e-01
-8.692296e-01
-9.358842e-01
-1.003701e+00
-1.072460e+00
-1.141901e+00
-1.211718e+00
-1.281542e+00
-1.350946e+00
-1.419444e+00
-1.486510e+00
-1.551595e+00
-1.614133e+00
0.000000e+00
-7.548438e-03
-2.059857e-02
-3.829318e-02
-5.997827e-02
-8.526777e-02
-1.139534e-01
-1.459052e-01
-1.810117e-01
-2.191636e-01
-2.602481e-01
-3.041491e-01
-3.507477e-01
-3.999237e-01
-4.515554e-01
-5.055197e-01
-5.616920e-01
-6.199446e-01
-6.801456e-01
-7.421562e-01
-8.058280e-01
-8.709982e-01
-9.374853e-01
-1.005082e+00
-1.073551e+00
-1.142614e+00
-1.211954e+00
-1.281210e+00
-1.349987e+00
-1.417874e+00
-1.484469e+00
-1.549398e+00
-1.612313e+00
0.000000e+00
-8.922119e-03
-2.336402e-02
-4.204338e-02
-6.423481e-02
-8.969256e-02
-1.183700e-01
-1.502222e-01
-1.851852e-01
-2.231739e-01
-2.640880e-01
-3.078175e-01
-3.542468e-01
-4.032569e-01
-4.547263e-01
-5.085320e-01
-5.645486e-01
-6.226470e-01
-6.826930e-01
-7.445443e-01
-8.080471e-01
-8.730315e-01
-9.393065e-01
-1.006654e+00
-1.074823e+00
-1.143529e+00
-1.212448e+00
-1.281228e+00
-1.349503e+00
-1.416922e+00
-1.483186e+00
-1.548086e+00
-1.611519e+00
0.000000e+00
-1.114549e-02
-2.759481e-02
-4.732638e-02
-6.980697e-02
-9.527340e-02
-1.238301e-01
-1.555070e-01
-1.902707e-01
-2.280503e-01
-2.687521e-01
-3.122692e-01
-3.584871e-01
-4.072871e-01
-4.585478e-01
-5.121456e-01
-5.679542e-01
-6.258435e-01
-6.856776e-01
-7.473118e-01
-8.105890e-01
-8.753349e-01
-9.413533e-01
-1.008421e+00
-1.076281e+00
-1.144645e+00
-1.213190e+00
-1.281573e+00
-1.349449e+00
-1.416505e+00
-1.482520e+00
-1.547427e+00
-1.611381e+00
0.000000e+00
-1.517869e-02
-3.423456e-02
-5.423923e-02
-7.668106e-02
-1.019619e-01
-1.302959e-01
-1.617343e-01
-1.962534e-01
-2.337854e-01
-2.742382e-01
-3.175054e-01
-3.634727e-01
-4.120211e-01
-4.630287e-01
-5.163715e-01
-5.719222e-01
-6.295498e-01
-6.891168e-01
-7.504771e-01
-8.134716e-01
-8.779244e-01
-9.436374e-01
-1.010386e+00
-1.077913e+00
-1.145933e+00
-1.214129e+00
-1.282165e+00
-1.349713e+00
-1.416486e+00
-1.482304e+00
-1.547188e+00
-1.611498e+00
0.000000e+00
-2.443156e-02
-4.263711e-02
-6.250861e-02
-8.464293e-02
-1.096532e-01
-1.377157e-01
-1.688825e-01
-2.031269e-01
-2.403808e-01
-2.805522e-01
-3.235349e-01
-3.692147e-01
-4.174724e-01
-4.681859e-01
-5.212302e-01
-5.764772e-01
-6.337945e-01
-6.930433e-01
-7.540758e-01
-8.167315e-01
-8.808335e-01
-9.461834e-01