TITLE = "Solution"
VARIABLES = x, y, u, v, psiu, psiv, t, stress
ZONE T="structure" N=561 E=512 F=FEBLOCK ET=QUADRILATERAL VARLOCATION=([7,8]=cellcentered)
0.000000e+00
6.250000e+00
1.250000e+01
1.875000e+01
2.500000e+01
3.125000e+01
3.750000e+01
4.375000e+01
5.000000e+01
5.625000e+01
6.250000e+01
6.875000e+01
7.500000e+01
8.125000e+01
8.750000e+01
9.375000e+01
1.000000e+02
1.062500e+02
1.125000e+02
1.187500e+02
1.250000e+02
1.312500e+02
1.375000e+02
1.437500e+02
1.500000e+02
1.562500e+02
1.625000e+02
1.687500e+02
1.750000e+02
1.812500e+02
1.875000e+02
1.937500e+02
2.000000e+02
0.000000e+00
6.250000e+00
1.250000e+01
1.875000e+01
2.500000e+01
3.125000e+01
3.750000e+01
4.375000e+01
5.000000e+01
5.625000e+01
6.250000e+01
6.875000e+01
7.500000e+01
8.125000e+01
8.750000e+01
9.375000e+01
1.000000e+02
1.062500e+02
1.125000e+02
1.187500e+02
1.250000e+02
1.312500e+02
1.375000e+02
1.437500e+02
1.500000e+02
1.562500e+02
1.625000e+02
1.687500e+02
1.750000e+02
1.812500e+02
1.875000e+02
1.937500e+02
2.000000e+02
0.000000e+00
6.250000e+00
1.250000e+01
1.875000e+01
2.500000e+01
3.125000e+01
3.750000e+01
4.375000e+01
5.000000e+01
5.625000e+01
6.250000e+01
6.875000e+01
7.500000e+01
8.125000e+01
8.750000e+01
9.375000e+01
1.000000e+02
1.062500e+02
1.125000e+02
1.187500e+02
1.250000e+02
1.312500e+02
1.375000e+02
1.437500e+02
1.500000e+02
1.562500e+02
1.625000e+02
1.687500e+02
1.750000e+02
1.812500e+02
1.875000e+02
1.937500e+02
2.000000e+02
0.000000e+00
6.250000e+00
1.250000e+01
1.875000e+01
2.500000e+01
3.125000e+01
3.750000e+01
4.375000e+01
5.000000e+01
5.625000e+01
6.250000e+01
6.875000e+01
7.500000e+01
8.125000e+01
8.750000e+01
9.375000e+01
1.000000e+02
1.062500e+02
1.125000e+02
1.187500e+02
1.250000e+02
1.312500e+02
1.375000e+02
1.437500e+02
1.500000e+02
1.562500e+02
1.625000e+02
1.687500e+02
1.750000e+02
1.812500e+02
1.875000e+02
1.937500e+02
2.000000e+02
0.000000e+00
6.250000e+00
1.250000e+01
1.875000e+01
2.500000e+01
3.125000e+01
3.750000e+01
4.375000e+01
5.000000e+01
5.625000e+01
6.250000e+01
6.875000e+01
7.500000e+01
8.125000e+01
8.750000e+01
9.375000e+01
1.000000e+02
1.062500e+02
1.125000e+02
1.187500e+02
1.250000e+02
1.312500e+02
1.375000e+02
1.437500e+02
1.500000e+02
1.562500e+02
1.625000e+02
1.687500e+02
1.750000e+02
1.812500e+02
1.875000e+02
1.937500e+02
2.000000e+02
0.000000e+00
6.250000e+00
1.250000e+01
1.875000e+01
2.500000e+01
3.125000e+01
3.750000e+01
4.375000e+01
5.000000e+01
5.625000e+01
6.250000e+01
6.875000e+01
7.500000e+01
8.125000e+01
8.750000e+01
9.375000e+01
1.000000e+02
1.062500e+02
1.125000e+02
1.187500e+02
1.250000e+02
1.312500e+02
1.375000e+02
1.437500e+02
1.500000e+02
1.562500e+02
1.625000e+02
1.687500e+02
1.750000e+02
1.812500e+02
1.875000e+02
1.937500e+02
2.000000e+02
0.000000e+00
6.250000e+00
1.250000e+01
1.875000e+01
2.500000e+01
3.125000e+01
3.750000e+01
4.375000e+01
5.000000e+01
5.625000e+01
6.250000e+01
6.875000e+01
7.500000e+01
8.125000e+01
8.750000e+01
9.375000e+01
1.000000e+02
1.062500e+02
1.125000e+02
1.187500e+02
1.250000e+02
1.312500e+02
1.375000e+02
1.437500e+02
1.500000e+02
1.562500e+02
1.625000e+02
1.687500e+02
1.750000e+02
1.812500e+02
1.875000e+02
1.937500e+02
2.000000e+02
0.000000e+00
6.250000e+00
1.250000e+01
1.875000e+01
2.500000e+01
3.125000e+01
3.750000e+01
4.375000e+01
5.000000e+01
5.625000e+01
6.250000e+01
6.875000e+01
7.500000e+01
8.125000e+01
8.750000e+01
9.375000e+01
1.000000e+02
1.062500e+02
1.125000e+02
1.187500e+02
1.250000e+02
1.312500e+02
1.375000e+02
1.437500e+02
1.500000e+02
1.562500e+02
1.625000e+02
1.687500e+02
1.750000e+02
1.812500e+02
1.875000e+02
1.937500e+02
2.000000e+02
0.000000e+00
6.250000e+00
1.250000e+01
1.875000e+01
2.500000e+01
3.125000e+01
3.750000e+01
4.375000e+01
5.000000e+01
5.625000e+01
6.250000e+01
6.875000e+01
7.500000e+01
8.125000e+01
8.750000e+01
9.375000e+01
1.000000e+02
1.062500e+02
1.125000e+02
1.187500e+02
1.250000e+02
1.312500e+02
1.375000e+02
1.437500e+02
1.500000e+02
1.562500e+02
1.625000e+02
1.687500e+02
1.750000e+02
1.812500e+02
1.875000e+02
1.937500e+02
2.000000e+02
0.000000e+00
6.250000e+00
1.250000e+01
1.875000e+01
2.500000e+01
3.125000e+01
3.750000e+01
4.375000e+01
5.000000e+01
5.625000e+01
6.250000e+01
6.875000e+01
7.500000e+01
8.125000e+01
8.750000e+01
9.375000e+01
1.000000e+02
1.062500e+02
1.125000e+02
1.187500e+02
1.250000e+02
1.312500e+02
1.375000e+02
1.437500e+02
1.500000e+02
1.562500e+02
1.625000e+02
1.687500e+02
1.750000e+02
1.812500e+02
1.875000e+02
1.937500e+02
2.000000e+02
0.000000e+00
6.250000e+00
1.250000e+01
1.875000e+01
2.500000e+01
3.125000e+01
3.750000e+01
4.375000e+01
5.000000e+01
5.625000e+01
6.250000e+01
6.875000e+01
7.500000e+01
8.125000e+01
8.750000e+01
9.375000e+01
1.000000e+02
1.062500e+02
1.125000e+02
1.187500e+02
1.250000e+02
1.312500e+02
1.375000e+02
1.437500e+02
1.500000e+02
1.562500e+02
1.625000e+02
1.687500e+02
1.750000e+02
1.812500e+02
1.875000e+02
1.937500e+02
2.000000e+02
0.000000e+00
6.250000e+00
1.250000e+01
1.875000e+01
2.500000e+01
3.125000e+01
3.750000e+01
4.375000e+01
5.000000e+01
5.625000e+01
6.250000e+01
6.875000e+01
7.500000e+01
8.125000e+01
8.750000e+01
9.375000e+01
1.000000e+02
1.062500e+02
1.125000e+02
1.187500e+02
1.250000e+02
1.312500e+02
1.375000e+02
1.437500e+02
1.500000e+02
1.562500e+02
1.625000e+02
1.687500e+02
1.750000e+02
1.812500e+02
1.875000e+02
1.937500e+02
2.000000e+02
0.000000e+00
6.250000e+00
1.250000e+01
1.875000e+01
2.500000e+01
3.125000e+01
3.750000e+01
4.375000e+01
5.000000e+01
5.625000e+01
6.250000e+01
6.875000e+01
7.500000e+01
8.125000e+01
8.750000e+01
9.375000e+01
1.000000e+02
1.062500e+02
1.125000e+02
1.187500e+02
1.250000e+02
1.312500e+02
1.375000e+02
1.437500e+02
1.500000e+02
1.562500e+02
1.625000e+02
1.687500e+02
1.750000e+02
1.812500e+02
1.875000e+02
1.937500e+02
2.000000e+02
0.000000e+00
6.250000e+00
1.250000e+01
1.875000e+01
2.500000e+01
3.125000e+01
3.750000e+01
4.375000e+01
5.000000e+01
5.625000e+01
6.250000e+01
6.875000e+01
7.500000e+01
8.125000e+01
8.750000e+01
9.375000e+01
1.000000e+02
1.062500e+02
1.125000e+02
1.187500e+02
1.250000e+02
1.312500e+02
1.375000e+02
1.437500e+02
1.500000e+02
1.562500e+02
1.625000e+02
1.687500e+02
1.750000e+02
1.812500e+02
1.875000e+02
1.937500e+02
2.000000e+02
0.000000e+00
6.250000e+00
1.250000e+01
1.875000e+01
2.500000e+01
3.125000e+01
3.750000e+01
4.375000e+01
5.000000e+01
5.625000e+01
6.250000e+01
6.875000e+01
7.500000e+01
8.125000e+01
8.750000e+01
9.375000e+01
1.000000e+02
1.062500e+02
1.125000e+02
1.187500e+02
1.250000e+02
1.312500e+02
1.375000e+02
1.437500e+02
1.500000e+02
1.562500e+02
1.625000e+02
1.687500e+02
1.750000e+02
1.812500e+02
1.875000e+02
1.937500e+02
2.000000e+02
0.000000e+00
6.250000e+00
1.250000e+01
1.875000e+01
2.500000e+01
3.125000e+01
3.750000e+01
4.375000e+01
5.000000e+01
5.625000e+01
6.250000e+01
6.875000e+01
7.500000e+01
8.125000e+01
8.750000e+01
9.375000e+01
1.000000e+02
1.062500e+02
1.125000e+02
1.187500e+02
1.250000e+02
1.312500e+02
1.375000e+02
1.437500e+02
1.500000e+02
1.562500e+02
1.625000e+02
1.687500e+02
1.750000e+02
1.812500e+02
1.875000e+02
1.937500e+02
2.000000e+02
0.000000e+00
6.250000e+00
1.250000e+01
1.875000e+01
2.500000e+01
3.125000e+01
3.750000e+01
4.375000e+01
5.000000e+01
5.625000e+01
6.250000e+01
6.875000e+01
7.500000e+01
8.125000e+01
8.750000e+01
9.375000e+01
1.000000e+02
1.062500e+02
1.125000e+02
1.187500e+02
1.250000e+02
1.312500e+02
1.375000e+02
1.437500e+02
1.500000e+02
1.562500e+02
1.625000e+02
1.687500e+02
1.750000e+02
1.812500e+02
1.875000e+02
1.937500e+02
2.000000e+02
0.000000e+00
0.000000e+00
0.000000e+00
0.000000e+00
0.000000e+00
0.000000e+00
0.000000e+00
0.000000e+00
0.000000e+00
0.000000e+00
0.000000e+00
0.000000e+00
0.000000e+00
0.000000e+00
0.000000e+00
0.000000e+00
0.000000e+00
0.000000e+00
0.000000e+00
0.000000e+00
0.000000e+00
0.000000e+00
0.000000e+00
0.000000e+00
0.000000e+00
0.000000e+00
0.000000e+00
0.000000e+00
0.000000e+00
0.000000e+00
0.000000e+00
0.000000e+00
0.000000e+00
6.250000e+00
6.250000e+00
6.250000e+00
6.250000e+00
6.250000e+00
6.250000e+00
6.250000e+00
6.250000e+00
6.250000e+00
6.250000e+00
6.250000e+00
6.250000e+00
6.250000e+00
6.250000e+00
6.250000e+00
6.250000e+00
6.250000e+00
6.250000e+00
6.250000e+00
6.250000e+00
6.250000e+00
6.250000e+00
6.250000e+00
6.250000e+00
6.250000e+00
6.250000e+00
6.250000e+00
6.250000e+00
6.250000e+00
6.250000e+00
6.250000e+00
6.250000e+00
6.250000e+00
1.250000e+01
1.250000e+01
1.250000e+01
1.250000e+01
1.250000e+01
1.250000e+01
1.250000e+01
1.250000e+01
1.250000e+01
1.250000e+01
1.250000e+01
1.250000e+01
1.250000e+01
1.250000e+01
1.250000e+01
1.250000e+01
1.250000e+01
1.250000e+01
1.250000e+01
1.250000e+01
1.250000e+01
1.250000e+01
1.250000e+01
1.250000e+01
1.250000e+01
1.250000e+01
1.250000e+01
1.250000e+01
1.250000e+01
1.250000e+01
1.250000e+01
1.250000e+01
1.250000e+01
1.875000e+01
1.875000e+01
1.875000e+01
1.875000e+01
1.875000e+01
1.875000e+01
1.875000e+01
1.875000e+01
1.875000e+01
1.875000e+01
1.875000e+01
1.875000e+01
1.875000e+01
1.875000e+01
1.875000e+01
1.875000e+01
1.875000e+01
1.875000e+01
1.875000e+01
1.875000e+01
1.875000e+01
1.875000e+01
1.875000e+01
1.875000e+01
1.875000e+01
1.875000e+01
1.875000e+01
1.875000e+01
1.875000e+01
1.875000e+01
1.875000e+01
1.875000e+01
1.875000e+01
2.500000e+01
2.500000e+01
2.500000e+01
2.500000e+01
2.500000e+01
2.500000e+01
2.500000e+01
2.500000e+01
2.500000e+01
2.500000e+01
2.500000e+01
2.500000e+01
2.500000e+01
2.500000e+01
2.500000e+01
2.500000e+01
2.500000e+01
2.500000e+01
2.500000e+01
2.500000e+01
2.500000e+01
2.500000e+01
2.500000e+01
2.500000e+01
2.500000e+01
2.500000e+01
2.500000e+01
2.500000e+01
2.500000e+01
2.500000e+01
2.500000e+01
2.500000e+01
2.500000e+01
3.125000e+01
3.125000e+01
3.125000e+01
3.125000e+01
3.125000e+01
3.125000e+01
3.125000e+01
3.125000e+01
3.125000e+01
3.125000e+01
3.125000e+01
3.125000e+01
3.125000e+01
3.125000e+01
3.125000e+01
3.125000e+01
3.125000e+01
3.125000e+01
3.125000e+01
3.125000e+01
3.125000e+01
3.125000e+01
3.125000e+01
3.125000e+01
3.125000e+01
3.125000e+01
3.125000e+01
3.125000e+01
3.125000e+01
3.125000e+01
3.125000e+01
3.125000e+01
3.125000e+01
3.750000e+01
3.750000e+01
3.750000e+01
3.750000e+01
3.750000e+01
3.750000e+01
3.750000e+01
3.750000e+01
3.750000e+01
3.750000e+01
3.750000e+01
3.750000e+01
3.750000e+01
3.750000e+01
3.750000e+01
3.750000e+01
3.750000e+01
3.750000e+01
3.750000e+01
3.750000e+01
3.750000e+01
3.750000e+01
3.750000e+01
3.750000e+01
3.750000e+01
3.750000e+01
3.750000e+01
3.750000e+01
3.750000e+01
3.750000e+01
3.750000e+01
3.750000e+01
3.750000e+01
4.375000e+01
4.375000e+01
4.375000e+01
4.375000e+01
4.375000e+01
4.375000e+01
4.375000e+01
4.375000e+01
4.375000e+01
4.375000e+01
4.375000e+01
4.375000e+01
4.375000e+01
4.375000e+01
4.375000e+01
4.375000e+01
4.375000e+01
4.375000e+01
4.375000e+01
4.375000e+01
4.375000e+01
4.375000e+01
4.375000e+01
4.375000e+01
4.375000e+01
4.375000e+01
4.375000e+01
4.375000e+01
4.375000e+01
4.375000e+01
4.375000e+01
4.375000e+01
4.375000e+01
5.000000e+01
5.000000e+01
5.000000e+01
5.000000e+01
5.000000e+01
5.000000e+01
5.000000e+01
5.000000e+01
5.000000e+01
5.000000e+01
5.000000e+01
5.000000e+01
5.000000e+01
5.000000e+01
5.000000e+01
5.000000e+01
5.000000e+01
5.000000e+01
5.000000e+01
5.000000e+01
5.000000e+01
5.000000e+01
5.000000e+01
5.000000e+01
5.000000e+01
5.000000e+01
5.000000e+01
5.000000e+01
5.000000e+01
5.000000e+01
5.000000e+01
5.000000e+01
5.000000e+01
5.625000e+01
5.625000e+01
5.625000e+01
5.625000e+01
5.625000e+01
5.625000e+01
5.625000e+01
5.625000e+01
5.625000e+01
5.625000e+01
5.625000e+01
5.625000e+01
5.625000e+01
5.625000e+01
5.625000e+01
5.625000e+01
5.625000e+01
5.625000e+01
5.625000e+01
5.625000e+01
5.625000e+01
5.625000e+01
5.625000e+01
5.625000e+01
5.625000e+01
5.625000e+01
5.625000e+01
5.625000e+01
5.625000e+01
5.625000e+01
5.625000e+01
5.625000e+01
5.625000e+01
6.250000e+01
6.250000e+01
6.250000e+01
6.250000e+01
6.250000e+01
6.250000e+01
6.250000e+01
6.250000e+01
6.250000e+01
6.250000e+01
6.250000e+01
6.250000e+01
6.250000e+01
6.250000e+01
6.250000e+01
6.250000e+01
6.250000e+01
6.250000e+01
6.250000e+01
6.250000e+01
6.250000e+01
6.250000e+01
6.250000e+01
6.250000e+01
6.250000e+01
6.250000e+01
6.250000e+01
6.250000e+01
6.250000e+01
6.250000e+01
6.250000e+01
6.250000e+01
6.250000e+01
6.875000e+01
6.875000e+01
6.875000e+01
6.875000e+01
6.875000e+01
6.875000e+01
6.875000e+01
6.875000e+01
6.875000e+01
6.875000e+01
6.875000e+01
6.875000e+01
6.875000e+01
6.875000e+01
6.875000e+01
6.875000e+01
6.875000e+01
6.875000e+01
6.875000e+01
6.875000e+01
6.875000e+01
6.875000e+01
6.875000e+01
6.875000e+01
6.875000e+01
6.875000e+01
6.875000e+01
6.875000e+01
6.875000e+01
6.875000e+01
6.875000e+01
6.875000e+01
6.875000e+01
7.500000e+01
7.500000e+01
7.500000e+01
7.500000e+01
7.500000e+01
7.500000e+01
7.500000e+01
7.500000e+01
7.500000e+01
7.500000e+01
7.500000e+01
7.500000e+01
7.500000e+01
7.500000e+01
7.500000e+01
7.500000e+01
7.500000e+01
7.500000e+01
7.500000e+01
7.500000e+01
7.500000e+01
7.500000e+01
7.500000e+01
7.500000e+01
7.500000e+01
7.500000e+01
7.500000e+01
7.500000e+01
7.500000e+01
7.500000e+01
7.500000e+01
7.500000e+01
7.500000e+01
8.125000e+01
8.125000e+01
8.125000e+01
8.125000e+01
8.125000e+01
8.125000e+01
8.125000e+01
8.125000e+01
8.125000e+01
8.125000e+01
8.125000e+01
8.125000e+01
8.125000e+01
8.125000e+01
8.125000e+01
8.125000e+01
8.125000e+01
8.125000e+01
8.125000e+01
8.125000e+01
8.125000e+01
8.125000e+01
8.125000e+01
8.125000e+01
8.125000e+01
8.125000e+01
8.125000e+01
8.125000e+01
8.125000e+01
8.125000e+01
8.125000e+01
8.125000e+01
8.125000e+01
8.750000e+01
8.750000e+01
8.750000e+01
8.750000e+01
8.750000e+01
8.750000e+01
8.750000e+01
8.750000e+01
8.750000e+01
8.750000e+01
8.750000e+01
8.750000e+01
8.750000e+01
8.750000e+01
8.750000e+01
8.750000e+01
8.750000e+01
8.750000e+01
8.750000e+01
8.750000e+01
8.750000e+01
8.750000e+01
8.750000e+01
8.750000e+01
8.750000e+01
8.750000e+01
8.750000e+01
8.750000e+01
8.750000e+01
8.750000e+01
8.750000e+01
8.750000e+01
8.750000e+01
9.375000e+01
9.375000e+01
9.375000e+01
9.375000e+01
9.375000e+01
9.375000e+01
9.375000e+01
9.375000e+01
9.375000e+01
9.375000e+01
9.375000e+01
9.375000e+01
9.375000e+01
9.375000e+01
9.375000e+01
9.375000e+01
9.375000e+01
9.375000e+01
9.375000e+01
9.375000e+01
9.375000e+01
9.375000e+01
9.375000e+01
9.375000e+01
9.375000e+01
9.375000e+01
9.375000e+01
9.375000e+01
9.375000e+01
9.375000e+01
9.375000e+01
9.375000e+01
9.375000e+01
1.000000e+02
1.000000e+02
1.000000e+02
1.000000e+02
1.000000e+02
1.000000e+02
1.000000e+02
1.000000e+02
1.000000e+02
1.000000e+02
1.000000e+02
1.000000e+02
1.000000e+02
1.000000e+02
1.000000e+02
1.000000e+02
1.000000e+02
1.000000e+02
1.000000e+02
1.000000e+02
1.000000e+02
1.000000e+02
1.000000e+02
1.000000e+02
1.000000e+02
1.000000e+02
1.000000e+02
1.000000e+02
1.000000e+02
1.000000e+02
1.000000e+02
1.000000e+02
1.000000e+02
0.000000e+00
-3.956704e-02
-7.178913e-02
-1.016383e-01
-1.302852e-01
-1.579480e-01
-1.846825e-01
-2.104861e-01
-2.353427e-01
-2.592341e-01
-2.821455e-01
-3.040664e-01
-3.249915e-01
-3.449205e-01
-3.638578e-01
-3.818136e-01
-3.988039e-01
-4.148521e-01
-4.299904e-01
-4.442624e-01
-4.577262e-01
-4.704583e-01
-4.825604e-01
-4.941670e-01
-5.054582e-01
-5.166793e-01
-5.281703e-01
-5.404166e-01
-5.541301e-01
-5.703582e-01
-5.904602e-01
-6.144161e-01
-6.290361e-01
0.000000e+00
-2.652864e-02
-5.519568e-02
-8.222492e-02
-1.079152e-01
-1.325110e-01
-1.561424e-01
-1.788663e-01
-2.007053e-01
-2.216668e-01
-2.417521e-01
-2.609613e-01
-2.792953e-01
-2.967570e-01
-3.133522e-01
-3.290903e-01
-3.439845e-01
-3.580533e-01
-3.713210e-01
-3.838193e-01
-3.955886e-01
-4.066799e-01
-4.171562e-01
-4.270948e-01
-4.365883e-01
-4.457427e-01
-4.546704e-01
-4.634636e-01
-4.721217e-01
-4.803631e-01
-4.872305e-01
-4.912454e-01
-4.968349e-01
0.000000e+00
-2.104258e-02
-4.332121e-02
-6.600440e-02
-8.804543e-02
-1.092742e-01
-1.296772e-01
-1.492736e-01
-1.680809e-01
-1.861109e-01
-2.033713e-01
-2.198674e-01
-2.356038e-01
-2.505851e-01
-2.648169e-01
-2.783062e-01
-2.910616e-01
-3.030942e-01
-3.144174e-01
-3.250476e-01
-3.350031e-01
-3.443042e-01
-3.529707e-01
-3.610179e-01
-3.684491e-01
-3.752404e-01
-3.813141e-01
-3.864915e-01
-3.904223e-01
-3.925390e-01
-3.923534e-01
-3.911648e-01
-3.976919e-01
0.000000e+00
-1.669542e-02
-3.431290e-02
-5.241265e-02
-7.046999e-02
-8.808993e-02
-1.051216e-01
-1.215108e-01
-1.372430e-01
-1.523176e-01
-1.667382e-01
-1.805099e-01
-1.936373e-01
-2.061245e-01
-2.179751e-01
-2.291925e-01
-2.397798e-01
-2.497398e-01
-2.590744e-01
-2.677841e-01
-2.758669e-01
-2.833151e-01
-2.901125e-01
-2.962272e-01
-3.016028e-01
-3.061446e-01
-3.097020e-01
-3.120578e-01
-3.129573e-01
-3.122896e-01
-3.106678e-01
-3.105710e-01
-3.167896e-01
0.000000e+00
-1.295798e-02
-2.653352e-02
-4.054272e-02
-5.466574e-02
-6.861553e-02
-8.219963e-02
-9.532058e-02
-1.079341e-01
-1.200231e-01
-1.315832e-01
-1.426149e-01
-1.531203e-01
-1.631013e-01
-1.725584e-01
-1.814908e-01
-1.898957e-01
-1.977681e-01
-2.050998e-01
-2.118786e-01
-2.180861e-01
-2.236960e-01
-2.286698e-01
-2.329529e-01
-2.364695e-01
-2.391203e-01
-2.407883e-01
-2.413734e-01
-2.408934e-01
-2.397188e-01
-2.389568e-01
-2.407165e-01
-2.460213e-01
0.000000e+00
-9.523359e-03
-1.945474e-02
-2.970518e-02
-4.009756e-02
-5.043791e-02
-6.057220e-02
-7.040033e-02
-7.986737e-02
-8.894658e-02
-9.762670e-02
-1.059037e-01
-1.137763e-01
-1.212430e-01
-1.283010e-01
-1.349452e-01
-1.411679e-01
-1.469575e-01
-1.522985e-01
-1.571699e-01
-1.615444e-01
-1.653864e-01
-1.686510e-01
-1.712836e-01
-1.732215e-01
-1.744040e-01
-1.747963e-01
-1.744442e-01
-1.735765e-01
-1.727509e-01
-1.729519e-01
-1.751952e-01
-1.795846e-01
0.000000e+00
-6.267515e-03
-1.278294e-02
-1.950505e-02
-2.633799e-02
-3.316675e-02
-3.988833e-02
-4.642769e-02
-5.273782e-02
-5.879282e-02
-6.457960e-02
-7.009155e-02
-7.532446e-02
-8.027398e-02
-8.493413e-02
-8.929638e-02
-9.334898e-02
-9.707634e-02
-1.004585e-01
-1.034704e-01
-1.060820e-01
-1.082578e-01
-1.099581e-01
-1.111431e-01
-1.117797e-01
-1.118587e-01
-1.114234e-01
-1.106179e-01
-1.097487e-01
-1.093273e-01
-1.099847e-01
-1.121688e-01
-1.157120e-01
0.000000e+00
-3.113073e-03
-6.343838e-03
-9.675690e-03
-1.306655e-02
-1.646285e-02
-1.981372e-02
-2.307935e-02
-2.623285e-02
-2.925780e-02
-3.214445e-02
-3.488637e-02
-3.747794e-02
-3.991275e-02
-4.218249e-02
-4.427626e-02
-4.618002e-02
-4.787619e-02
-4.934345e-02
-5.055680e-02
-5.148822e-02
-5.210820e-02
-5.238905e-02
-5.231093e-02
-5.187232e-02
-5.110668e-02
-5.010666e-02
-4.905298e-02
-4.823502e-02
-4.803011e-02
-4.880138e-02
-5.070671e-02
-5.351812e-02
0.000000e+00
-5.022624e-06
-1.089048e-05
-1.727851e-05
-2.385068e-05
-3.015396e-05
-3.550555e-05
-3.886787e-05
-3.870240e-05
-3.279369e-05
-1.803700e-05
9.814305e-06
5.644119e-05
1.292847e-04
2.378895e-04
3.942354e-04
6.130057e-04
9.117085e-04
1.310521e-03
1.831657e-03
2.497953e-03
3.330255e-03
4.343001e-03
5.537289e-03
6.890746e-03
8.344085e-03
9.786034e-03
1.104231e-02
1.188092e-02
1.205099e-02
1.136622e-02
9.815441e-03
7.643490e-03
0.000000e+00
3.103613e-03
6.323284e-03
9.643013e-03
1.302134e-02
1.640552e-02
1.974597e-02
2.300480e-02
2.615799e-02
2.919325e-02
3.210667e-02
3.489979e-02
3.757766e-02
4.014788e-02
4.262017e-02
4.500625e-02
4.731993e-02
4.957690e-02
5.179438e-02
5.399009e-02
5.618042e-02
5.837745e-02
6.058431e-02
6.278874e-02
6.495491e-02
6.701447e-02
6.885960e-02
7.034364e-02
7.129718e-02
7.156714e-02
7.107822e-02
6.990017e-02
6.828815e-02
0.000000e+00
6.259787e-03
1.276603e-02
1.947798e-02
2.630024e-02
3.311844e-02
3.983057e-02
4.636311e-02
5.267135e-02
5.873269e-02
6.453875e-02
7.008938e-02
7.538909e-02
8.044501e-02
8.526601e-02
8.986236e-02
9.424557e-02
9.842815e-02
1.024231e-01
1.062427e-01
1.098970e-01
1.133904e-01
1.167184e-01
1.198617e-01
1.227808e-01
1.254110e-01
1.276607e-01
1.294178e-01
1.305678e-01
1.310277e-01
1.307912e-01
1.299761e-01
1.288510e-01
0.000000e+00
9.518429e-03
1.944375e-02
2.968729e-02
4.007217e-02
5.040476e-02
6.053164e-02
7.035365e-02
7.981726e-02
8.889784e-02
9.758710e-02
1.058852e-01
1.137965e-01
1.213270e-01
1.284839e-01
1.352748e-01
1.417076e-01
1.477905e-01
1.535314e-01
1.589368e-01
1.640106e-01
1.687515e-01
1.731504e-01
1.771866e-01
1.808242e-01
1.840106e-01
1.866770e-01
1.887464e-01
1.901498e-01
1.908530e-01
1.908926e-01
1.904144e-01
1.897033e-01
0.000000e+00
1.295675e-02
2.653046e-02
4.053724e-02
5.465727e-02
6.860359e-02
8.218391e-02
9.530105e-02
1.079111e-01
1.199977e-01
1.315574e-01
1.425920e-01
1.531055e-01
1.631025e-01
1.725870e-01
1.815629e-01
1.900337e-01
1.980021e-01
2.054700e-01
2.124377e-01
2.189033e-01
2.248607e-01
2.302984e-01
2.351977e-01
2.395311e-01
2.432622e-01
2.463482e-01
2.487466e-01
2.504275e-01
2.513932e-01
2.517064e-01
2.515269e-01
2.511523e-01
0.000000e+00
1.669852e-02
3.431920e-02
5.242203e-02
7.048218e-02
8.810458e-02
1.051382e-01
1.215286e-01
1.372605e-01
1.523327e-01
1.667477e-01
1.805090e-01
1.936191e-01
2.060794e-01
2.178902e-01
2.290505e-01
2.395582e-01
2.494099e-01
2.586008e-01
2.671242e-01
2.749717e-01
2.821322e-01
2.885921e-01
2.943352e-01
2.993432e-01
3.035973e-01
3.070814e-01
3.097879e-01
3.117249e-01
3.129286e-01
3.134823e-01
3.135483e-01
3.134241e-01
0.000000e+00
2.105015e-02
4.333737e-02
6.602971e-02
8.808037e-02
1.093192e-01
1.297323e-01
1.493382e-01
1.681532e-01
1.861871e-01
2.034449e-01
2.199278e-01
2.356349e-01
2.505630e-01
2.647075e-01
2.780621e-01
2.906185e-01
3.023665e-01
3.132936e-01
3.233852e-01
3.326249e-01
3.409946e-01
3.484762e-01
3.550528e-01
3.607121e-01
3.654496e-01
3.692741e-01
3.722123e-01
3.743152e-01
3.756621e-01
3.763671e-01
3.765967e-01
3.766241e-01
0.000000e+00
2.654000e-02
5.522051e-02
8.226486e-02
1.079722e-01
1.325870e-01
1.562391e-01
1.789847e-01
2.008448e-01
2.218246e-01
2.419218e-01
2.611307e-01
2.794442e-01
2.968538e-01
3.133497e-01
3.289201e-01
3.435509e-01
3.572248e-01
3.699213e-01
3.816163e-01
3.922831e-01
4.018928e-01
4.104170e-01
4.178314e-01
4.241204e-01
4.292846e-01
4.333482e-01
4.363685e-01
4.384433e-01
4.397146e-01
4.403641e-01
4.405996e-01
4.406573e-01
0.000000e+00
3.957948e-02
7.181816e-02
1.016881e-01
1.303596e-01
1.580513e-01
1.848187e-01
2.106593e-01
2.355560e-01
2.594889e-01
2.824395e-01
3.043919e-01
3.253319e-01
3.452463e-01
3.641210e-01
3.819404e-01
3.986855e-01
4.143330e-01
4.288542e-01
4.422148e-01
4.543745e-01
4.652886e-01
4.749102e-01
4.831953e-01
4.901096e-01
4.956392e-01
4.998037e-01
5.026726e-01
5.043826e-01
5.051531e-01
5.052932e-01
5.051772e-01
5.051119e-01
0.000000e+00
-2.445167e-02
-4.267344e-02
-6.255778e-02
-8.470018e-02
-1.097122e-01
-1.377677e-01
-1.689155e-01
-2.031244e-01
-2.403213e-01
-2.804074e-01
-3.232694e-01
-3.687849e-01
-4.168267e-01
-4.672647e-01
-5.199682e-01
-5.748071e-01
-6.316535e-01
-6.903841e-01
-7.508826e-01
-8.130435e-01
-8.767784e-01
-9.420240e-01
-1.008755e+00
-1.077005e+00
-1.146900e+00
-1.218718e+00
-1.293001e+00
-1.370787e+00
-1.454127e+00
-1.547454e+00
-1.661219e+00
-1.818388e+00
0.000000e+00
-1.519578e-02
-3.426918e-02
-5.428765e-02
-7.673867e-02
-1.020225e-01
-1.303506e-01
-1.617709e-01
-1.962552e-01
-2.337301e-01
-2.740964e-01
-3.172398e-01
-3.630369e-01
-4.113594e-01
-4.620761e-01
-5.150548e-01
-5.701638e-01
-6.272736e-01
-6.862582e-01
-7.469984e-01
-8.093853e-01
-8.733257e-01
-9.387505e-01
-1.005627e+00
-1.073980e+00
-1.143924e+00
-1.215723e+00
-1.289901e+00
-1.367474e+00
-1.450461e+00
-1.543067e+00
-1.654299e+00
-1.801136e+00
0.000000e+00
-1.116218e-02
-2.762764e-02
-4.737304e-02
-6.986328e-02
-9.533338e-02
-1.238851e-01
-1.555449e-01
-1.902748e-01
-2.279979e-01
-2.686135e-01
-3.120062e-01
-3.580522e-01
-4.066226e-01
-4.575858e-01
-5.108091e-01
-5.661602e-01
-6.235087e-01
-6.827279e-01
-7.436976e-01
-8.063079e-01
-8.704649e-01
-9.360993e-01
-1.003180e+00
-1.071733e+00
-1.141881e+00
-1.213898e+00
-1.288323e+00
-1.366160e+00
-1.449225e+00
-1.540626e+00
-1.644033e+00
-1.758742e+00
0.000000e+00
-8.938198e-03
-2.339504e-02
-4.208751e-02
-6.428872e-02
-8.975090e-02
-1.184248e-01
-1.502619e-01
-1.851940e-01
-2.231298e-01
-2.639624e-01
-3.075735e-01
-3.538382e-01
-4.026274e-01
-4.538095e-01
-5.072524e-01
-5.628240e-01
-6.203945e-01
-6.798378e-01
-7.410348e-01
-8.038771e-01
-8.682729e-01
-9.341565e-01
-1.001501e+00
-1.070341e+00
-1.140803e+00
-1.213160e+00
-1.287907e+00
-1.365866e+00
-1.448235e+00
-1.536160e+00
-1.628893e+00
-1.715218e+00
0.000000e+00
-7.563185e-03
-2.062707e-02
-3.833416e-02
-6.002928e-02
-8.532452e-02
-1.140092e-01
-1.459498e-01
-1.810311e-01
-2.191383e-01
-2.601523e-01
-3.039495e-01
-3.504028e-01
-3.993825e-01
-4.507577e-01
-5.043971e-01
-5.601701e-01
-6.179481e-01
-6.776070e-01
-7.390294e-01
-8.021095e-01
-8.667584e-01
-9.329129e-01
-1.000548e+00
-1.069696e+00
-1.140468e+00
-1.213085e+00
-1.287906e+00
-1.365401e+00
-1.445952e+00
-1.529174e+00
-1.612012e+00
-1.687192e+00
0.000000e+00
-6.688252e-03
-1.881093e-02
-3.575127e-02
-5.695802e-02
-8.201632e-02
-1.106386e-01
-1.426201e-01
-1.777996e-01
-2.160352e-01
-2.571930e-01
-3.011421e-01
-3.477523e-01
-3.968933e-01
-4.484348e-01
-5.022468e-01
-5.582005e-01
-6.161692e-01
-6.760306e-01
-7.376695e-01
-8.009814e-01
-8.658778e-01
-9.322939e-01
-1.000198e+00
-1.069601e+00
-1.140571e+00
-1.213232e+00
-1.287741e+00
-1.364185e+00
-1.442307e+00
-1.520915e+00
-1.597200e+00
-1.666925e+00
0.000000e+00
-6.144490e-03
-1.766268e-02
-3.407233e-02
-5.490050e-02
-7.974286e-02
-1.082801e-01
-1.402657e-01
-1.755033e-01
-2.138277e-01
-2.550915e-01
-2.991566e-01
-3.458899e-01
-3.951605e-01
-4.468388e-01
-5.007963e-01
-5.569059e-01
-6.150428e-01
-6.750860e-01
-7.369210e-01
-8.004424e-01
-8.655582e-01
-9.321949e-01
-1.000302e+00
-1.069857e+00
-1.140859e+00
-1.213317e+00
-1.287187e+00
-1.362258e+00
-1.437918e+00
-1.512858e+00
-1.584917e+00
-1.651448e+00
0.000000e+00
-5.845686e-03
-1.702554e-02
-3.312621e-02
-5.372069e-02
-7.841860e-02
-1.068904e-01
-1.388689e-01
-1.741378e-01
-2.125173e-01
-2.538505e-01
-2.979948e-01
-3.448150e-01
-3.941804e-01
-4.459623e-01
-5.000336e-01
-5.562687e-01
-6.145439e-01
-6.747387e-01
-7.367373e-01
-8.004305e-01
-8.657185e-01
-9.325122e-01
-1.000735e+00
-1.070318e+00
-1.141189e+00
-1.213245e+00
-1.286290e+00
-1.359932e+00
-1.433448e+00
-1.505657e+00
-1.574934e+00
-1.639473e+00
0.000000e+00
-5.749412e-03
-1.681999e-02
-3.281957e-02
-5.333618e-02
-7.798519e-02
-1.064351e-01
-1.384131e-01
-1.736970e-01
-2.121021e-01
-2.534692e-01
-2.976545e-01
-3.445233e-01
-3.939454e-01
-4.457935e-01
-4.999419e-01
-5.562659e-01
-6.146423e-01
-6.749495e-01
-7.370687e-01
-8.008843e-01
-8.662846e-01
-9.331611e-01
-1.001406e+00
-1.070903e+00
-1.141515e+00
-1.213050e+00
-1.285213e+00
-1.357538e+00
-1.429313e+00
-1.499537e+00
-1.566972e+00
-1.630295e+00
0.000000e+00
-5.842901e-03
-1.702168e-02
-3.312289e-02
-5.371969e-02
-7.842213e-02
-1.069014e-01
-1.388912e-01
-1.741766e-01
-2.125792e-01
-2.539443e-01
-2.981312e-01
-3.450075e-01
-3.944452e-01
-4.463183e-01
-5.005022e-01
-5.568729e-01
-6.153066e-01
-6.756797e-01
-7.378690e-01
-8.017504e-01
-8.671984e-01
-9.340832e-01
-1.002266e+00
-1.071588e+00
-1.141858e+00
-1.212824e+00
-1.284140e+00
-1.355326e+00
-1.425733e+00
-1.494539e+00
-1.560783e+00
-1.623454e+00
0.000000e+00
-6.139147e-03
-1.765527e-02
-3.406591e-02
-5.489849e-02
-7.974950e-02
-1.083010e-01
-1.403082e-01
-1.755773e-01
-2.139462e-01
-2.552709e-01
-2.994179e-01
-3.462588e-01
-3.956682e-01
-4.475218e-01
-5.016958e-01
-5.580661e-01
-6.165081e-01
-6.768955e-01
-7.390995e-01
-8.029871e-01
-8.684187e-01
-9.352441e-01
-1.003296e+00
-1.072382e+00
-1.142270e+00
-1.212671e+00
-1.283220e+00
-1.353455e+00
-1.422810e+00
-1.490618e+00
-1.556140e+00
-1.618599e+00
0.000000e+00
-6.680824e-03
-1.880062e-02
-3.574231e-02
-5.695512e-02
-8.202540e-02
-1.106675e-01
-1.426792e-01
-1.779027e-01
-2.162004e-01
-2.574434e-01
-3.015071e-01
-3.482679e-01
-3.976033e-01
-4.493905e-01
-5.035061e-01
-5.598259e-01
-6.182237e-01
-6.785702e-01
-7.407313e-01
-8.045655e-01
-8.699204e-01
-9.366280e-01
-1.004498e+00
-1.073312e+00
-1.142809e+00
-1.212681e+00
-1.282561e+00
-1.352019e+00
-1.420572e+00
-1.487692e+00
-1.552828e+00
-1.615416e+00
0.000000e+00
-7.554436e-03
-2.061493e-02
-3.832360e-02
-6.002592e-02
-8.533551e-02
-1.140440e-01
-1.460211e-01
-1.811555e-01
-2.193378e-01
-2.604549e-01
-3.043907e-01
-3.510264e-01
-4.002415e-01
-4.519142e-01
-5.059214e-01
-5.621383e-01
-6.204372e-01
-6.806860e-01
-7.427460e-01
-8.064683e-01
-8.716904e-01
-9.382303e-01
-1.005881e+00
-1.074404e+00
-1.143522e+00
-1.212917e+00
-1.282228e+00
-1.351060e+00
-1.419001e+00
-1.485649e+00
-1.550629e+00
-1.613594e+00
0.000000e+00
-8.929206e-03
-2.338258e-02
-4.207678e-02
-6.428584e-02
-8.976381e-02
-1.184640e-01
-1.503415e-01
-1.853324e-01
-2.233512e-01
-2.642978e-01
-3.080621e-01
-3.545283e-01
-4.035773e-01
-4.550876e-01
-5.089361e-01
-5.649972e-01
-6.231417e-01
-6.832355e-01
-7.451360e-01
-8.086893e-01
-8.737253e-01
-9.400529e-01
-1.007454e+00
-1.075678e+00
-1.144438e+00
-1.213411e+00
-1.282246e+00
-1.350576e+00
-1.418048e+00
-1.484364e+00
-1.549316e+00
-1.612800e+00
0.000000e+00
-1.115434e-02
-2.761673e-02
-4.736398e-02
-6.986242e-02
-9.534909e-02
-1.239284e-01
-1.556305e-01
-1.904219e-01
-2.282315e-01
-2.689657e-01
-3.125173e-01
-3.587719e-01
-4.076107e-01
-4.589121e-01
-5.125525e-01
-5.684055e-01
-6.263408e-01
-6.862225e-01
-7.479057e-01
-8.112331e-01
-8.760305e-01
-9.421014e-01
-1.009222e+00
-1.077136e+00
-1.145554e+00
-1.214154e+00
-1.282592e+00
-1.350521e+00
-1.417631e+00
-1.483698e+00
-1.548656e+00
-1.612661e+00
0.000000e+00
-1.519075e-02
-3.426175e-02
-5.428232e-02
-7.674197e-02
-1.020429e-01
-1.303994e-01
-1.618628e-01
-1.964093e-01
-2.339712e-01
-2.744561e-01
-3.177577e-01
-3.637615e-01
-4.123484e-01
-4.633967e-01
-5.167818e-01
-5.723767e-01
-6.300500e-01
-6.896644e-01
-7.510735e-01
-8.141181e-01
-8.786221e-01
-9.443873e-01
-1.011189e+00
-1.078770e+00
-1.146844e+00
-1.215093e+00
-1.283184e+00
-1.350786e+00
-1.417612e+00
-1.483482e+00
-1.548418e+00
-1.612779e+00
0.000000e+00
-2.445096e-02
-4.267097e-02
-6.255826e-02
-8.471017e-02
-1.097403e-01
-1.378251e-01
-1.690167e-01
-2.032883e-01
-2.405718e-01
-2.807751e-01
-3.237920e-01
-3.695080e-01
-4.178041e-01
-4.685579e-01
-5.216444e-01
-5.769353e-01
-6.342982e-01
-6.935941e-01
-7.546750e-01
-8.173806e-01
-8.815335e-01
-9.469353e-01