TITLE = "Solution"
VARIABLES = x, y, u, v, psiu, psiv, t, stress
ZONE T="structure" N=561 E=512 F=FEBLOCK ET=QUADRILATERAL VARLOCATION=([7,8]=cellcentered)
0.000000e+00
6.250000e+00
1.250000e+01
1.875000e+01
2.500000e+01
3.125000e+01
3.750000e+01
4.375000e+01
5.000000e+01
5.625000e+01
6.250000e+01
6.875000e+01
7.500000e+01
8.125000e+01
8.750000e+01
9.375000e+01
1.000000e+02
1.062500e+02
1.125000e+02
1.187500e+02
1.250000e+02
1.312500e+02
1.375000e+02
1.437500e+02
1.500000e+02
1.562500e+02
1.625000e+02
1.687500e+02
1.750000e+02
1.812500e+02
1.875000e+02
1.937500e+02
2.000000e+02
0.000000e+00
6.250000e+00
1.250000e+01
1.875000e+01
2.500000e+01
3.125000e+01
3.750000e+01
4.375000e+01
5.000000e+01
5.625000e+01
6.250000e+01
6.875000e+01
7.500000e+01
8.125000e+01
8.750000e+01
9.375000e+01
1.000000e+02
1.062500e+02
1.125000e+02
1.187500e+02
1.250000e+02
1.312500e+02
1.375000e+02
1.437500e+02
1.500000e+02
1.562500e+02
1.625000e+02
1.687500e+02
1.750000e+02
1.812500e+02
1.875000e+02
1.937500e+02
2.000000e+02
0.000000e+00
6.250000e+00
1.250000e+01
1.875000e+01
2.500000e+01
3.125000e+01
3.750000e+01
4.375000e+01
5.000000e+01
5.625000e+01
6.250000e+01
6.875000e+01
7.500000e+01
8.125000e+01
8.750000e+01
9.375000e+01
1.000000e+02
1.062500e+02
1.125000e+02
1.187500e+02
1.250000e+02
1.312500e+02
1.375000e+02
1.437500e+02
1.500000e+02
1.562500e+02
1.625000e+02
1.687500e+02
1.750000e+02
1.812500e+02
1.875000e+02
1.937500e+02
2.000000e+02
0.000000e+00
6.250000e+00
1.250000e+01
1.875000e+01
2.500000e+01
3.125000e+01
3.750000e+01
4.375000e+01
5.000000e+01
5.625000e+01
6.250000e+01
6.875000e+01
7.500000e+01
8.125000e+01
8.750000e+01
9.375000e+01
1.000000e+02
1.062500e+02
1.125000e+02
1.187500e+02
1.250000e+02
1.312500e+02
1.375000e+02
1.437500e+02
1.500000e+02
1.562500e+02
1.625000e+02
1.687500e+02
1.750000e+02
1.812500e+02
1.875000e+02
1.937500e+02
2.000000e+02
0.000000e+00
6.250000e+00
1.250000e+01
1.875000e+01
2.500000e+01
3.125000e+01
3.750000e+01
4.375000e+01
5.000000e+01
5.625000e+01
6.250000e+01
6.875000e+01
7.500000e+01
8.125000e+01
8.750000e+01
9.375000e+01
1.000000e+02
1.062500e+02
1.125000e+02
1.187500e+02
1.250000e+02
1.312500e+02
1.375000e+02
1.437500e+02
1.500000e+02
1.562500e+02
1.625000e+02
1.687500e+02
1.750000e+02
1.812500e+02
1.875000e+02
1.937500e+02
2.000000e+02
0.000000e+00
6.250000e+00
1.250000e+01
1.875000e+01
2.500000e+01
3.125000e+01
3.750000e+01
4.375000e+01
5.000000e+01
5.625000e+01
6.250000e+01
6.875000e+01
7.500000e+01
8.125000e+01
8.750000e+01
9.375000e+01
1.000000e+02
1.062500e+02
1.125000e+02
1.187500e+02
1.250000e+02
1.312500e+02
1.375000e+02
1.437500e+02
1.500000e+02
1.562500e+02
1.625000e+02
1.687500e+02
1.750000e+02
1.812500e+02
1.875000e+02
1.937500e+02
2.000000e+02
0.000000e+00
6.250000e+00
1.250000e+01
1.875000e+01
2.500000e+01
3.125000e+01
3.750000e+01
4.375000e+01
5.000000e+01
5.625000e+01
6.250000e+01
6.875000e+01
7.500000e+01
8.125000e+01
8.750000e+01
9.375000e+01
1.000000e+02
1.062500e+02
1.125000e+02
1.187500e+02
1.250000e+02
1.312500e+02
1.375000e+02
1.437500e+02
1.500000e+02
1.562500e+02
1.625000e+02
1.687500e+02
1.750000e+02
1.812500e+02
1.875000e+02
1.937500e+02
2.000000e+02
0.000000e+00
6.250000e+00
1.250000e+01
1.875000e+01
2.500000e+01
3.125000e+01
3.750000e+01
4.375000e+01
5.000000e+01
5.625000e+01
6.250000e+01
6.875000e+01
7.500000e+01
8.125000e+01
8.750000e+01
9.375000e+01
1.000000e+02
1.062500e+02
1.125000e+02
1.187500e+02
1.250000e+02
1.312500e+02
1.375000e+02
1.437500e+02
1.500000e+02
1.562500e+02
1.625000e+02
1.687500e+02
1.750000e+02
1.812500e+02
1.875000e+02
1.937500e+02
2.000000e+02
0.000000e+00
6.250000e+00
1.250000e+01
1.875000e+01
2.500000e+01
3.125000e+01
3.750000e+01
4.375000e+01
5.000000e+01
5.625000e+01
6.250000e+01
6.875000e+01
7.500000e+01
8.125000e+01
8.750000e+01
9.375000e+01
1.000000e+02
1.062500e+02
1.125000e+02
1.187500e+02
1.250000e+02
1.312500e+02
1.375000e+02
1.437500e+02
1.500000e+02
1.562500e+02
1.625000e+02
1.687500e+02
1.750000e+02
1.812500e+02
1.875000e+02
1.937500e+02
2.000000e+02
0.000000e+00
6.250000e+00
1.250000e+01
1.875000e+01
2.500000e+01
3.125000e+01
3.750000e+01
4.375000e+01
5.000000e+01
5.625000e+01
6.250000e+01
6.875000e+01
7.500000e+01
8.125000e+01
8.750000e+01
9.375000e+01
1.000000e+02
1.062500e+02
1.125000e+02
1.187500e+02
1.250000e+02
1.312500e+02
1.375000e+02
1.437500e+02
1.500000e+02
1.562500e+02
1.625000e+02
1.687500e+02
1.750000e+02
1.812500e+02
1.875000e+02
1.937500e+02
2.000000e+02
0.000000e+00
6.250000e+00
1.250000e+01
1.875000e+01
2.500000e+01
3.125000e+01
3.750000e+01
4.375000e+01
5.000000e+01
5.625000e+01
6.250000e+01
6.875000e+01
7.500000e+01
8.125000e+01
8.750000e+01
9.375000e+01
1.000000e+02
1.062500e+02
1.125000e+02
1.187500e+02
1.250000e+02
1.312500e+02
1.375000e+02
1.437500e+02
1.500000e+02
1.562500e+02
1.625000e+02
1.687500e+02
1.750000e+02
1.812500e+02
1.875000e+02
1.937500e+02
2.000000e+02
0.000000e+00
6.250000e+00
1.250000e+01
1.875000e+01
2.500000e+01
3.125000e+01
3.750000e+01
4.375000e+01
5.000000e+01
5.625000e+01
6.250000e+01
6.875000e+01
7.500000e+01
8.125000e+01
8.750000e+01
9.375000e+01
1.000000e+02
1.062500e+02
1.125000e+02
1.187500e+02
1.250000e+02
1.312500e+02
1.375000e+02
1.437500e+02
1.500000e+02
1.562500e+02
1.625000e+02
1.687500e+02
1.750000e+02
1.812500e+02
1.875000e+02
1.937500e+02
2.000000e+02
0.000000e+00
6.250000e+00
1.250000e+01
1.875000e+01
2.500000e+01
3.125000e+01
3.750000e+01
4.375000e+01
5.000000e+01
5.625000e+01
6.250000e+01
6.875000e+01
7.500000e+01
8.125000e+01
8.750000e+01
9.375000e+01
1.000000e+02
1.062500e+02
1.125000e+02
1.187500e+02
1.250000e+02
1.312500e+02
1.375000e+02
1.437500e+02
1.500000e+02
1.562500e+02
1.625000e+02
1.687500e+02
1.750000e+02
1.812500e+02
1.875000e+02
1.937500e+02
2.000000e+02
0.000000e+00
6.250000e+00
1.250000e+01
1.875000e+01
2.500000e+01
3.125000e+01
3.750000e+01
4.375000e+01
5.000000e+01
5.625000e+01
6.250000e+01
6.875000e+01
7.500000e+01
8.125000e+01
8.750000e+01
9.375000e+01
1.000000e+02
1.062500e+02
1.125000e+02
1.187500e+02
1.250000e+02
1.312500e+02
1.375000e+02
1.437500e+02
1.500000e+02
1.562500e+02
1.625000e+02
1.687500e+02
1.750000e+02
1.812500e+02
1.875000e+02
1.937500e+02
2.000000e+02
0.000000e+00
6.250000e+00
1.250000e+01
1.875000e+01
2.500000e+01
3.125000e+01
3.750000e+01
4.375000e+01
5.000000e+01
5.625000e+01
6.250000e+01
6.875000e+01
7.500000e+01
8.125000e+01
8.750000e+01
9.375000e+01
1.000000e+02
1.062500e+02
1.125000e+02
1.187500e+02
1.250000e+02
1.312500e+02
1.375000e+02
1.437500e+02
1.500000e+02
1.562500e+02
1.625000e+02
1.687500e+02
1.750000e+02
1.812500e+02
1.875000e+02
1.937500e+02
2.000000e+02
0.000000e+00
6.250000e+00
1.250000e+01
1.875000e+01
2.500000e+01
3.125000e+01
3.750000e+01
4.375000e+01
5.000000e+01
5.625000e+01
6.250000e+01
6.875000e+01
7.500000e+01
8.125000e+01
8.750000e+01
9.375000e+01
1.000000e+02
1.062500e+02
1.125000e+02
1.187500e+02
1.250000e+02
1.312500e+02
1.375000e+02
1.437500e+02
1.500000e+02
1.562500e+02
1.625000e+02
1.687500e+02
1.750000e+02
1.812500e+02
1.875000e+02
1.937500e+02
2.000000e+02
0.000000e+00
6.250000e+00
1.250000e+01
1.875000e+01
2.500000e+01
3.125000e+01
3.750000e+01
4.375000e+01
5.000000e+01
5.625000e+01
6.250000e+01
6.875000e+01
7.500000e+01
8.125000e+01
8.750000e+01
9.375000e+01
1.000000e+02
1.062500e+02
1.125000e+02
1.187500e+02
1.250000e+02
1.312500e+02
1.375000e+02
1.437500e+02
1.500000e+02
1.562500e+02
1.625000e+02
1.687500e+02
1.750000e+02
1.812500e+02
1.875000e+02
1.937500e+02
2.000000e+02
0.000000e+00
0.000000e+00
0.000000e+00
0.000000e+00
0.000000e+00
0.000000e+00
0.000000e+00
0.000000e+00
0.000000e+00
0.000000e+00
0.000000e+00
0.000000e+00
0.000000e+00
0.000000e+00
0.000000e+00
0.000000e+00
0.000000e+00
0.000000e+00
0.000000e+00
0.000000e+00
0.000000e+00
0.000000e+00
0.000000e+00
0.000000e+00
0.000000e+00
0.000000e+00
0.000000e+00
0.000000e+00
0.000000e+00
0.000000e+00
0.000000e+00
0.000000e+00
0.000000e+00
6.250000e+00
6.250000e+00
6.250000e+00
6.250000e+00
6.250000e+00
6.250000e+00
6.250000e+00
6.250000e+00
6.250000e+00
6.250000e+00
6.250000e+00
6.250000e+00
6.250000e+00
6.250000e+00
6.250000e+00
6.250000e+00
6.250000e+00
6.250000e+00
6.250000e+00
6.250000e+00
6.250000e+00
6.250000e+00
6.250000e+00
6.250000e+00
6.250000e+00
6.250000e+00
6.250000e+00
6.250000e+00
6.250000e+00
6.250000e+00
6.250000e+00
6.250000e+00
6.250000e+00
1.250000e+01
1.250000e+01
1.250000e+01
1.250000e+01
1.250000e+01
1.250000e+01
1.250000e+01
1.250000e+01
1.250000e+01
1.250000e+01
1.250000e+01
1.250000e+01
1.250000e+01
1.250000e+01
1.250000e+01
1.250000e+01
1.250000e+01
1.250000e+01
1.250000e+01
1.250000e+01
1.250000e+01
1.250000e+01
1.250000e+01
1.250000e+01
1.250000e+01
1.250000e+01
1.250000e+01
1.250000e+01
1.250000e+01
1.250000e+01
1.250000e+01
1.250000e+01
1.250000e+01
1.875000e+01
1.875000e+01
1.875000e+01
1.875000e+01
1.875000e+01
1.875000e+01
1.875000e+01
1.875000e+01
1.875000e+01
1.875000e+01
1.875000e+01
1.875000e+01
1.875000e+01
1.875000e+01
1.875000e+01
1.875000e+01
1.875000e+01
1.875000e+01
1.875000e+01
1.875000e+01
1.875000e+01
1.875000e+01
1.875000e+01
1.875000e+01
1.875000e+01
1.875000e+01
1.875000e+01
1.875000e+01
1.875000e+01
1.875000e+01
1.875000e+01
1.875000e+01
1.875000e+01
2.500000e+01
2.500000e+01
2.500000e+01
2.500000e+01
2.500000e+01
2.500000e+01
2.500000e+01
2.500000e+01
2.500000e+01
2.500000e+01
2.500000e+01
2.500000e+01
2.500000e+01
2.500000e+01
2.500000e+01
2.500000e+01
2.500000e+01
2.500000e+01
2.500000e+01
2.500000e+01
2.500000e+01
2.500000e+01
2.500000e+01
2.500000e+01
2.500000e+01
2.500000e+01
2.500000e+01
2.500000e+01
2.500000e+01
2.500000e+01
2.500000e+01
2.500000e+01
2.500000e+01
3.125000e+01
3.125000e+01
3.125000e+01
3.125000e+01
3.125000e+01
3.125000e+01
3.125000e+01
3.125000e+01
3.125000e+01
3.125000e+01
3.125000e+01
3.125000e+01
3.125000e+01
3.125000e+01
3.125000e+01
3.125000e+01
3.125000e+01
3.125000e+01
3.125000e+01
3.125000e+01
3.125000e+01
3.125000e+01
3.125000e+01
3.125000e+01
3.125000e+01
3.125000e+01
3.125000e+01
3.125000e+01
3.125000e+01
3.125000e+01
3.125000e+01
3.125000e+01
3.125000e+01
3.750000e+01
3.750000e+01
3.750000e+01
3.750000e+01
3.750000e+01
3.750000e+01
3.750000e+01
3.750000e+01
3.750000e+01
3.750000e+01
3.750000e+01
3.750000e+01
3.750000e+01
3.750000e+01
3.750000e+01
3.750000e+01
3.750000e+01
3.750000e+01
3.750000e+01
3.750000e+01
3.750000e+01
3.750000e+01
3.750000e+01
3.750000e+01
3.750000e+01
3.750000e+01
3.750000e+01
3.750000e+01
3.750000e+01
3.750000e+01
3.750000e+01
3.750000e+01
3.750000e+01
4.375000e+01
4.375000e+01
4.375000e+01
4.375000e+01
4.375000e+01
4.375000e+01
4.375000e+01
4.375000e+01
4.375000e+01
4.375000e+01
4.375000e+01
4.375000e+01
4.375000e+01
4.375000e+01
4.375000e+01
4.375000e+01
4.375000e+01
4.375000e+01
4.375000e+01
4.375000e+01
4.375000e+01
4.375000e+01
4.375000e+01
4.375000e+01
4.375000e+01
4.375000e+01
4.375000e+01
4.375000e+01
4.375000e+01
4.375000e+01
4.375000e+01
4.375000e+01
4.375000e+01
5.000000e+01
5.000000e+01
5.000000e+01
5.000000e+01
5.000000e+01
5.000000e+01
5.000000e+01
5.000000e+01
5.000000e+01
5.000000e+01
5.000000e+01
5.000000e+01
5.000000e+01
5.000000e+01
5.000000e+01
5.000000e+01
5.000000e+01
5.000000e+01
5.000000e+01
5.000000e+01
5.000000e+01
5.000000e+01
5.000000e+01
5.000000e+01
5.000000e+01
5.000000e+01
5.000000e+01
5.000000e+01
5.000000e+01
5.000000e+01
5.000000e+01
5.000000e+01
5.000000e+01
5.625000e+01
5.625000e+01
5.625000e+01
5.625000e+01
5.625000e+01
5.625000e+01
5.625000e+01
5.625000e+01
5.625000e+01
5.625000e+01
5.625000e+01
5.625000e+01
5.625000e+01
5.625000e+01
5.625000e+01
5.625000e+01
5.625000e+01
5.625000e+01
5.625000e+01
5.625000e+01
5.625000e+01
5.625000e+01
5.625000e+01
5.625000e+01
5.625000e+01
5.625000e+01
5.625000e+01
5.625000e+01
5.625000e+01
5.625000e+01
5.625000e+01
5.625000e+01
5.625000e+01
6.250000e+01
6.250000e+01
6.250000e+01
6.250000e+01
6.250000e+01
6.250000e+01
6.250000e+01
6.250000e+01
6.250000e+01
6.250000e+01
6.250000e+01
6.250000e+01
6.250000e+01
6.250000e+01
6.250000e+01
6.250000e+01
6.250000e+01
6.250000e+01
6.250000e+01
6.250000e+01
6.250000e+01
6.250000e+01
6.250000e+01
6.250000e+01
6.250000e+01
6.250000e+01
6.250000e+01
6.250000e+01
6.250000e+01
6.250000e+01
6.250000e+01
6.250000e+01
6.250000e+01
6.875000e+01
6.875000e+01
6.875000e+01
6.875000e+01
6.875000e+01
6.875000e+01
6.875000e+01
6.875000e+01
6.875000e+01
6.875000e+01
6.875000e+01
6.875000e+01
6.875000e+01
6.875000e+01
6.875000e+01
6.875000e+01
6.875000e+01
6.875000e+01
6.875000e+01
6.875000e+01
6.875000e+01
6.875000e+01
6.875000e+01
6.875000e+01
6.875000e+01
6.875000e+01
6.875000e+01
6.875000e+01
6.875000e+01
6.875000e+01
6.875000e+01
6.875000e+01
6.875000e+01
7.500000e+01
7.500000e+01
7.500000e+01
7.500000e+01
7.500000e+01
7.500000e+01
7.500000e+01
7.500000e+01
7.500000e+01
7.500000e+01
7.500000e+01
7.500000e+01
7.500000e+01
7.500000e+01
7.500000e+01
7.500000e+01
7.500000e+01
7.500000e+01
7.500000e+01
7.500000e+01
7.500000e+01
7.500000e+01
7.500000e+01
7.500000e+01
7.500000e+01
7.500000e+01
7.500000e+01
7.500000e+01
7.500000e+01
7.500000e+01
7.500000e+01
7.500000e+01
7.500000e+01
8.125000e+01
8.125000e+01
8.125000e+01
8.125000e+01
8.125000e+01
8.125000e+01
8.125000e+01
8.125000e+01
8.125000e+01
8.125000e+01
8.125000e+01
8.125000e+01
8.125000e+01
8.125000e+01
8.125000e+01
8.125000e+01
8.125000e+01
8.125000e+01
8.125000e+01
8.125000e+01
8.125000e+01
8.125000e+01
8.125000e+01
8.125000e+01
8.125000e+01
8.125000e+01
8.125000e+01
8.125000e+01
8.125000e+01
8.125000e+01
8.125000e+01
8.125000e+01
8.125000e+01
8.750000e+01
8.750000e+01
8.750000e+01
8.750000e+01
8.750000e+01
8.750000e+01
8.750000e+01
8.750000e+01
8.750000e+01
8.750000e+01
8.750000e+01
8.750000e+01
8.750000e+01
8.750000e+01
8.750000e+01
8.750000e+01
8.750000e+01
8.750000e+01
8.750000e+01
8.750000e+01
8.750000e+01
8.750000e+01
8.750000e+01
8.750000e+01
8.750000e+01
8.750000e+01
8.750000e+01
8.750000e+01
8.750000e+01
8.750000e+01
8.750000e+01
8.750000e+01
8.750000e+01
9.375000e+01
9.375000e+01
9.375000e+01
9.375000e+01
9.375000e+01
9.375000e+01
9.375000e+01
9.375000e+01
9.375000e+01
9.375000e+01
9.375000e+01
9.375000e+01
9.375000e+01
9.375000e+01
9.375000e+01
9.375000e+01
9.375000e+01
9.375000e+01
9.375000e+01
9.375000e+01
9.375000e+01
9.375000e+01
9.375000e+01
9.375000e+01
9.375000e+01
9.375000e+01
9.375000e+01
9.375000e+01
9.375000e+01
9.375000e+01
9.375000e+01
9.375000e+01
9.375000e+01
1.000000e+02
1.000000e+02
1.000000e+02
1.000000e+02
1.000000e+02
1.000000e+02
1.000000e+02
1.000000e+02
1.000000e+02
1.000000e+02
1.000000e+02
1.000000e+02
1.000000e+02
1.000000e+02
1.000000e+02
1.000000e+02
1.000000e+02
1.000000e+02
1.000000e+02
1.000000e+02
1.000000e+02
1.000000e+02
1.000000e+02
1.000000e+02
1.000000e+02
1.000000e+02
1.000000e+02
1.000000e+02
1.000000e+02
1.000000e+02
1.000000e+02
1.000000e+02
1.000000e+02
0.000000e+00
-3.924503e-02
-7.120491e-02
-1.008112e-01
-1.292248e-01
-1.566625e-01
-1.831792e-01
-2.087727e-01
-2.334269e-01
-2.571237e-01
-2.798484e-01
-3.015907e-01
-3.223453e-01
-3.421118e-01
-3.608948e-01
-3.787042e-01
-3.955560e-01
-4.114734e-01
-4.264882e-01
-4.406439e-01
-4.539978e-01
-4.666261e-01
-4.786295e-01
-4.901414e-01
-5.013406e-01
-5.124700e-01
-5.238673e-01
-5.360138e-01
-5.496154e-01
-5.657113e-01
-5.856494e-01
-6.094101e-01
-6.239110e-01
0.000000e+00
-2.631276e-02
-5.474655e-02
-8.155584e-02
-1.070370e-01
-1.314326e-01
-1.548716e-01
-1.774104e-01
-1.990716e-01
-2.198623e-01
-2.397839e-01
-2.588366e-01
-2.770212e-01
-2.943406e-01
-3.108006e-01
-3.264103e-01
-3.411831e-01
-3.551372e-01
-3.682967e-01
-3.806931e-01
-3.923665e-01
-4.033672e-01
-4.137581e-01
-4.236157e-01
-4.330317e-01
-4.421115e-01
-4.509663e-01
-4.596878e-01
-4.682753e-01
-4.764495e-01
-4.832609e-01
-4.872431e-01
-4.927871e-01
0.000000e+00
-2.087137e-02
-4.296873e-02
-6.546734e-02
-8.732898e-02
-1.083849e-01
-1.286218e-01
-1.480586e-01
-1.667128e-01
-1.845959e-01
-2.017156e-01
-2.180773e-01
-2.336855e-01
-2.485447e-01
-2.626606e-01
-2.760398e-01
-2.886913e-01
-3.006257e-01
-3.118567e-01
-3.224001e-01
-3.322744e-01
-3.414997e-01
-3.500955e-01
-3.580771e-01
-3.654477e-01
-3.721836e-01
-3.782077e-01
-3.833429e-01
-3.872416e-01
-3.893410e-01
-3.891569e-01
-3.879780e-01
-3.944519e-01
0.000000e+00
-1.655958e-02
-3.403371e-02
-5.198619e-02
-6.989656e-02
-8.737308e-02
-1.042661e-01
-1.205219e-01
-1.361259e-01
-1.510777e-01
-1.653809e-01
-1.790404e-01
-1.920607e-01
-2.044461e-01
-2.162001e-01
-2.273261e-01
-2.378272e-01
-2.477059e-01
-2.569644e-01
-2.656031e-01
-2.736199e-01
-2.810075e-01
-2.877493e-01
-2.938142e-01
-2.991460e-01
-3.036507e-01
-3.071791e-01
-3.095157e-01
-3.104078e-01
-3.097455e-01
-3.081369e-01
-3.080409e-01
-3.142089e-01
0.000000e+00
-1.285254e-02
-2.631763e-02
-4.021284e-02
-5.422091e-02
-6.805716e-02
-8.153067e-02
-9.454478e-02
-1.070556e-01
-1.190461e-01
-1.305120e-01
-1.414538e-01
-1.518737e-01
-1.617733e-01
-1.711533e-01
-1.800129e-01
-1.883493e-01
-1.961575e-01
-2.034294e-01
-2.101529e-01
-2.163099e-01
-2.218740e-01
-2.268072e-01
-2.310553e-01
-2.345433e-01
-2.371724e-01
-2.388268e-01
-2.394072e-01
-2.389310e-01
-2.377660e-01
-2.370102e-01
-2.387556e-01
-2.440172e-01
0.000000e+00
-9.445866e-03
-1.929643e-02
-2.946346e-02
-3.977128e-02
-5.002746e-02
-6.007924e-02
-6.982735e-02
-7.921729e-02
-8.822255e-02
-9.683196e-02
-1.050416e-01
-1.128500e-01
-1.202558e-01
-1.272563e-01
-1.338464e-01
-1.400183e-01
-1.457607e-01
-1.510581e-01
-1.558899e-01
-1.602286e-01
-1.640393e-01
-1.672773e-01
-1.698884e-01
-1.718105e-01
-1.729833e-01
-1.733724e-01
-1.730232e-01
-1.721626e-01
-1.713437e-01
-1.715431e-01
-1.737681e-01
-1.781217e-01
0.000000e+00
-6.216515e-03
-1.267892e-02
-1.934633e-02
-2.612367e-02
-3.289684e-02
-3.956371e-02
-4.604982e-02
-5.230857e-02
-5.831425e-02
-6.405388e-02
-6.952093e-02
-7.471120e-02
-7.962038e-02
-8.424255e-02
-8.856924e-02
-9.258880e-02
-9.628577e-02
-9.964032e-02
-1.026277e-01
-1.052180e-01
-1.073760e-01
-1.090625e-01
-1.102378e-01
-1.108693e-01
-1.109476e-01
-1.105158e-01
-1.097169e-01
-1.088548e-01
-1.084369e-01
-1.090889e-01
-1.112552e-01
-1.147695e-01
0.000000e+00
-3.087741e-03
-6.292216e-03
-9.596955e-03
-1.296022e-02
-1.632887e-02
-1.965246e-02
-2.289151e-02
-2.601933e-02
-2.901964e-02
-3.188277e-02
-3.460235e-02
-3.717281e-02
-3.958778e-02
-4.183902e-02
-4.391572e-02
-4.580396e-02
-4.748630e-02
-4.894160e-02
-5.014506e-02
-5.106888e-02
-5.168380e-02
-5.196236e-02
-5.188488e-02
-5.144985e-02
-5.069045e-02
-4.969859e-02
-4.865351e-02
-4.784222e-02
-4.763900e-02
-4.840398e-02
-5.029377e-02
-5.308225e-02
0.000000e+00
-4.981504e-06
-1.080135e-05
-1.713712e-05
-2.365555e-05
-2.990727e-05
-3.521508e-05
-3.854985e-05
-3.838559e-05
-3.252494e-05
-1.788846e-05
9.735855e-06
5.598264e-05
1.282323e-04
2.359516e-04
3.910226e-04
6.080090e-04
9.042759e-04
1.299836e-03
1.816722e-03
2.477584e-03
3.303098e-03
4.307583e-03
5.492129e-03
6.834546e-03
8.276029e-03
9.706213e-03
1.095223e-02
1.178401e-02
1.195268e-02
1.127349e-02
9.735357e-03
7.581123e-03
0.000000e+00
3.078358e-03
6.271830e-03
9.564546e-03
1.291538e-02
1.627202e-02
1.958527e-02
2.281757e-02
2.594508e-02
2.895562e-02
3.184531e-02
3.461567e-02
3.727172e-02
3.982100e-02
4.227313e-02
4.463977e-02
4.693458e-02
4.917315e-02
5.137255e-02
5.355035e-02
5.572282e-02
5.790194e-02
6.009079e-02
6.227724e-02
6.442574e-02
6.646850e-02
6.829857e-02
6.977050e-02
7.071626e-02
7.098401e-02
7.049908e-02
6.933063e-02
6.773177e-02
0.000000e+00
6.208850e-03
1.266215e-02
1.931948e-02
2.608623e-02
3.284893e-02
3.950642e-02
4.598577e-02
5.224263e-02
5.825461e-02
6.401337e-02
6.951878e-02
7.477530e-02
7.979002e-02
8.457172e-02
8.913061e-02
9.347809e-02
9.762656e-02
1.015889e-01
1.053774e-01
1.090018e-01
1.124668e-01
1.157677e-01
1.188853e-01
1.217806e-01
1.243893e-01
1.266207e-01
1.283634e-01
1.295041e-01
1.299602e-01
1.297257e-01
1.289172e-01
1.278013e-01
0.000000e+00
9.440978e-03
1.928554e-02
2.944572e-02
3.974609e-02
4.999458e-02
6.003902e-02
6.978105e-02
7.916759e-02
8.817421e-02
9.679269e-02
1.050232e-01
1.128700e-01
1.203392e-01
1.274377e-01
1.341732e-01
1.405536e-01
1.465870e-01
1.522810e-01
1.576424e-01
1.626748e-01
1.673770e-01
1.717400e-01
1.757432e-01
1.793512e-01
1.825116e-01
1.851563e-01
1.872088e-01
1.886007e-01
1.892982e-01
1.893374e-01
1.888631e-01
1.881579e-01
0.000000e+00
1.285132e-02
2.631459e-02
4.020740e-02
5.421251e-02
6.804531e-02
8.151507e-02
9.452541e-02
1.070328e-01
1.190210e-01
1.304864e-01
1.414311e-01
1.518590e-01
1.617744e-01
1.711817e-01
1.800845e-01
1.884862e-01
1.963896e-01
2.037966e-01
2.107075e-01
2.171203e-01
2.230291e-01
2.284225e-01
2.332819e-01
2.375799e-01
2.412805e-01
2.443414e-01
2.467202e-01
2.483874e-01
2.493452e-01
2.496559e-01
2.494778e-01
2.491063e-01
0.000000e+00
1.656266e-02
3.403997e-02
5.199549e-02
6.990865e-02
8.738761e-02
1.042825e-01
1.205395e-01
1.361433e-01
1.510927e-01
1.653903e-01
1.790394e-01
1.920427e-01
2.044014e-01
2.161159e-01
2.271853e-01
2.376074e-01
2.473787e-01
2.564946e-01
2.649486e-01
2.727320e-01
2.798341e-01
2.862414e-01
2.919377e-01
2.969048e-01
3.011241e-01
3.045799e-01
3.072643e-01
3.091854e-01
3.103794e-01
3.109286e-01
3.109940e-01
3.108708e-01
0.000000e+00
2.087888e-02
4.298476e-02
6.549245e-02
8.736364e-02
1.084295e-01
1.286764e-01
1.481227e-01
1.667844e-01
1.846715e-01
2.017886e-01
2.181373e-01
2.337163e-01
2.485228e-01
2.625521e-01
2.757978e-01
2.882518e-01
2.999040e-01
3.107420e-01
3.207513e-01
3.299156e-01
3.382171e-01
3.456376e-01
3.521606e-01
3.577737e-01
3.624726e-01
3.662659e-01
3.691802e-01
3.712659e-01
3.726018e-01
3.733010e-01
3.735287e-01
3.735559e-01
0.000000e+00
2.632403e-02
5.477118e-02
8.159545e-02
1.070935e-01
1.315080e-01
1.549675e-01
1.775278e-01
1.992099e-01
2.200188e-01
2.399522e-01
2.590046e-01
2.771689e-01
2.944366e-01
3.107981e-01
3.262416e-01
3.407531e-01
3.543155e-01
3.669084e-01
3.785081e-01
3.890879e-01
3.986192e-01
4.070739e-01
4.144278e-01
4.206655e-01
4.257875e-01
4.298180e-01
4.328137e-01
4.348715e-01
4.361325e-01
4.367767e-01
4.370102e-01
4.370674e-01
0.000000e+00
3.925737e-02
7.123371e-02
1.008605e-01
1.292987e-01
1.567649e-01
1.833143e-01
2.089445e-01
2.336384e-01
2.573763e-01
2.801400e-01
3.019135e-01
3.226829e-01
3.424350e-01
3.611559e-01
3.788300e-01
3.954386e-01
4.109585e-01
4.253613e-01
4.386129e-01
4.506735e-01
4.614985e-01
4.710417e-01
4.792592e-01
4.861171e-01
4.916016e-01
4.957321e-01
4.985776e-01
5.002737e-01
5.010379e-01
5.011768e-01
5.010617e-01
5.009970e-01
0.000000e+00
-2.425268e-02
-4.232610e-02
-6.204853e-02
-8.401060e-02
-1.088190e-01
-1.366460e-01
-1.675401e-01
-2.014705e-01
-2.383644e-01
-2.781241e-01
-3.206370e-01
-3.657818e-01
-4.134323e-01
-4.634595e-01
-5.157337e-01
-5.701259e-01
-6.265093e-01
-6.847615e-01
-7.447670e-01
-8.064216e-01
-8.696373e-01
-9.343513e-01
-1.000539e+00
-1.068233e+00
-1.137558e+00
-1.208791e+00
-1.282469e+00
-1.359621e+00
-1.442282e+00
-1.534848e+00
-1.647686e+00
-1.803575e+00
0.000000e+00
-1.507211e-02
-3.399022e-02
-5.384570e-02
-7.611390e-02
-1.011918e-01
-1.292892e-01
-1.604537e-01
-1.946572e-01
-2.318269e-01
-2.718645e-01
-3.146565e-01
-3.600807e-01
-4.080096e-01
-4.583131e-01
-5.108603e-01
-5.655205e-01
-6.221650e-01
-6.806691e-01
-7.409146e-01
-8.027932e-01
-8.662127e-01
-9.311045e-01
-9.974365e-01
-1.065233e+00
-1.134607e+00
-1.205820e+00
-1.279394e+00
-1.356335e+00
-1.438646e+00
-1.530497e+00
-1.640823e+00
-1.786463e+00
0.000000e+00
-1.107133e-02
-2.740274e-02
-4.698736e-02
-6.929448e-02
-9.455718e-02
-1.228764e-01
-1.542784e-01
-1.887255e-01
-2.261414e-01
-2.664262e-01
-3.094656e-01
-3.551366e-01
-4.033114e-01
-4.538595e-01
-5.066493e-01
-5.615495e-01
-6.184309e-01
-6.771676e-01
-7.376407e-01
-7.997409e-01
-8.633752e-01
-9.284750e-01
-9.950088e-01
-1.063004e+00
-1.132580e+00
-1.204011e+00
-1.277829e+00
-1.355031e+00
-1.437420e+00
-1.528076e+00
-1.630640e+00
-1.744415e+00
0.000000e+00
-8.865437e-03
-2.320457e-02
-4.174484e-02
-6.376529e-02
-8.902015e-02
-1.174605e-01
-1.490385e-01
-1.836860e-01
-2.213130e-01
-2.618130e-01
-3.050690e-01
-3.509569e-01
-3.993487e-01
-4.501140e-01
-5.031215e-01
-5.582405e-01
-6.153420e-01
-6.743012e-01
-7.349997e-01
-7.973299e-01
-8.612011e-01
-9.265479e-01
-9.933441e-01
-1.061623e+00
-1.131511e+00
-1.203278e+00
-1.277417e+00
-1.354740e+00
-1.436438e+00
-1.523646e+00
-1.615624e+00
-1.701246e+00
0.000000e+00
-7.501598e-03
-2.045911e-02
-3.802202e-02
-5.954050e-02
-8.462979e-02
-1.130809e-01
-1.447614e-01
-1.795571e-01
-2.173539e-01
-2.580340e-01
-3.014745e-01
-3.475494e-01
-3.961303e-01
-4.470871e-01
-5.002896e-01
-5.556082e-01
-6.129156e-01
-6.720885e-01
-7.330106e-01
-7.955768e-01
-8.596990e-01
-9.253145e-01
-9.923991e-01
-1.060983e+00
-1.131179e+00
-1.203204e+00
-1.277415e+00
-1.354279e+00
-1.434174e+00
-1.516718e+00
-1.598880e+00
-1.673448e+00
0.000000e+00
-6.633772e-03
-1.865773e-02
-3.546014e-02
-5.649423e-02
-8.134850e-02
-1.097377e-01
-1.414588e-01
-1.763519e-01
-2.142762e-01
-2.550988e-01
-2.986900e-01
-3.449205e-01
-3.936613e-01
-4.447831e-01
-4.981568e-01
-5.536547e-01
-6.111512e-01
-6.705250e-01
-7.316618e-01
-7.944579e-01
-8.588256e-01
-9.247006e-01
-9.920510e-01
-1.060889e+00
-1.131280e+00
-1.203349e+00
-1.277252e+00
-1.353073e+00
-1.430558e+00
-1.508525e+00
-1.584190e+00
-1.653346e+00
0.000000e+00
-6.094428e-03
-1.751882e-02
-3.379485e-02
-5.445345e-02
-7.909355e-02
-1.073985e-01
-1.391236e-01
-1.740742e-01
-2.120866e-01
-2.530144e-01
-2.967207e-01
-3.430733e-01
-3.919426e-01
-4.432001e-01
-4.967181e-01
-5.523707e-01
-6.100340e-01
-6.695881e-01
-7.309193e-01
-7.939232e-01
-8.585086e-01
-9.246024e-01
-9.921548e-01
-1.061143e+00
-1.131567e+00
-1.203434e+00
-1.276702e+00
-1.351162e+00
-1.426205e+00
-1.500534e+00
-1.572006e+00
-1.637995e+00
0.000000e+00
-5.798050e-03
-1.688686e-02
-3.285643e-02
-5.328324e-02
-7.778005e-02
-1.060200e-01
-1.377382e-01
-1.727199e-01
-2.107869e-01
-2.517835e-01
-2.955683e-01
-3.420072e-01
-3.909705e-01
-4.423307e-01
-4.959616e-01
-5.517387e-01
-6.095392e-01
-6.692436e-01
-7.307371e-01
-7.939115e-01
-8.586675e-01
-9.249171e-01
-9.925838e-01
-1.061600e+00
-1.131894e+00
-1.203363e+00
-1.275812e+00
-1.348854e+00
-1.421771e+00
-1.493392e+00
-1.562105e+00
-1.626117e+00
0.000000e+00
-5.702558e-03
-1.668297e-02
-3.255228e-02
-5.290185e-02
-7.735017e-02
-1.055685e-01
-1.372861e-01
-1.722826e-01
-2.103750e-01
-2.514053e-01
-2.952308e-01
-3.417178e-01
-3.907374e-01
-4.421633e-01
-4.958707e-01
-5.517359e-01
-6.096367e-01
-6.694527e-01
-7.310658e-01
-7.943616e-01
-8.592291e-01
-9.255607e-01
-9.932493e-01
-1.062181e+00
-1.132217e+00
-1.203170e+00
-1.274745e+00
-1.346480e+00
-1.417670e+00
-1.487322e+00
-1.554208e+00
-1.617014e+00
0.000000e+00
-5.795287e-03
-1.688303e-02
-3.285313e-02
-5.328224e-02
-7.778356e-02
-1.060309e-01
-1.377603e-01
-1.727584e-01
-2.108483e-01
-2.518765e-01
-2.957036e-01
-3.421981e-01
-3.912331e-01
-4.426838e-01
-4.964264e-01
-5.523379e-01
-6.102956e-01
-6.701769e-01
-7.318596e-01
-7.952206e-01
-8.601354e-01
-9.264753e-01
-9.941023e-01
-1.062860e+00
-1.132558e+00
-1.202945e+00
-1.273680e+00
-1.344286e+00
-1.414120e+00
-1.482364e+00
-1.548069e+00
-1.610230e+00
0.000000e+00
-6.089127e-03
-1.751146e-02
-3.378849e-02
-5.445145e-02
-7.910013e-02
-1.074192e-01
-1.391658e-01
-1.741477e-01
-2.122041e-01
-2.531924e-01
-2.969798e-01
-3.434393e-01
-3.924462e-01
-4.438775e-01
-4.976102e-01
-5.535214e-01
-6.114874e-01
-6.713828e-01
-7.330800e-01
-7.964472e-01
-8.613458e-01
-9.276268e-01
-9.951245e-01
-1.063648e+00
-1.132966e+00
-1.202793e+00
-1.272767e+00
-1.342431e+00
-1.411221e+00
-1.478476e+00
-1.543464e+00
-1.605414e+00
0.000000e+00
-6.626405e-03
-1.864751e-02
-3.545125e-02
-5.649135e-02
-8.135751e-02
-1.097664e-01
-1.415174e-01
-1.764542e-01
-2.144400e-01
-2.553472e-01
-2.990519e-01
-3.454320e-01
-3.943656e-01
-4.457309e-01
-4.994058e-01
-5.552668e-01
-6.131889e-01
-6.730438e-01
-7.346986e-01
-7.980127e-01
-8.628352e-01
-9.289993e-01
-9.963168e-01
-1.064570e+00
-1.133501e+00
-1.202803e+00
-1.272114e+00
-1.341006e+00
-1.409001e+00
-1.475573e+00
-1.540179e+00
-1.602257e+00
0.000000e+00
-7.492919e-03
-2.044707e-02
-3.801155e-02
-5.953717e-02
-8.464069e-02
-1.131154e-01
-1.448321e-01
-1.796805e-01
-2.175518e-01
-2.583341e-01
-3.019121e-01
-3.481680e-01
-3.969822e-01
-4.482341e-01
-5.018014e-01
-5.575604e-01
-6.153844e-01
-6.751424e-01
-7.366968e-01
-7.999000e-01
-8.645908e-01
-9.305886e-01
-9.976882e-01
-1.065653e+00
-1.134208e+00
-1.203038e+00
-1.271784e+00
-1.340055e+00
-1.407442e+00
-1.473547e+00
-1.537998e+00
-1.600450e+00
0.000000e+00
-8.856518e-03
-2.319221e-02
-4.173420e-02
-6.376243e-02
-8.903295e-02
-1.174994e-01
-1.491174e-01
-1.838233e-01
-2.215326e-01
-2.621457e-01
-3.055536e-01
-3.516414e-01
-4.002908e-01
-4.513817e-01
-5.047915e-01
-5.603959e-01
-6.180669e-01
-6.776711e-01
-7.390673e-01
-8.021029e-01
-8.666091e-01
-9.323963e-01
-9.992481e-01
-1.066916e+00
-1.135116e+00
-1.203527e+00
-1.271802e+00
-1.339575e+00
-1.406497e+00
-1.472273e+00
-1.536696e+00
-1.599662e+00
0.000000e+00
-1.106356e-02
-2.739192e-02
-4.697837e-02
-6.929363e-02
-9.457276e-02
-1.229194e-01
-1.543633e-01
-1.888714e-01
-2.263731e-01
-2.667755e-01
-3.099725e-01
-3.558504e-01
-4.042914e-01
-4.551750e-01
-5.083785e-01
-5.637765e-01
-6.212399e-01
-6.806338e-01
-7.418145e-01
-8.046260e-01
-8.688955e-01
-9.344281e-01
-1.001002e+00
-1.068363e+00
-1.136224e+00
-1.204265e+00
-1.272145e+00
-1.339521e+00
-1.406084e+00
-1.471613e+00
-1.536041e+00
-1.599525e+00
0.000000e+00
-1.506712e-02
-3.398286e-02
-5.384041e-02
-7.611718e-02
-1.012121e-01
-1.293377e-01
-1.605448e-01
-1.948100e-01
-2.320660e-01
-2.722213e-01
-3.151702e-01
-3.607993e-01
-4.089905e-01
-4.596230e-01
-5.125733e-01
-5.677153e-01
-6.249188e-01
-6.840476e-01
-7.449564e-01
-8.074874e-01
-8.714659e-01
-9.366954e-01
-1.002952e+00
-1.069983e+00
-1.137503e+00
-1.205196e+00
-1.272732e+00
-1.339783e+00
-1.406064e+00
-1.471398e+00
-1.535805e+00
-1.599642e+00
0.000000e+00
-2.425197e-02
-4.232365e-02
-6.204899e-02
-8.402051e-02
-1.088468e-01
-1.367029e-01
-1.676405e-01
-2.016330e-01
-2.386129e-01
-2.784888e-01
-3.211553e-01
-3.664990e-01
-4.144017e-01
-4.647422e-01
-5.173962e-01
-5.722368e-01
-6.291324e-01
-6.879452e-01
-7.485286e-01
-8.107233e-01
-8.743536e-01
-9.392226e-01