TITLE = "Solution"
VARIABLES = x, y, u, v, psiu, psiv, t, stress
ZONE T="structure" N=561 E=512 F=FEBLOCK ET=QUADRILATERAL VARLOCATION=([7,8]=cellcentered)
0.000000e+00
6.250000e+00
1.250000e+01
1.875000e+01
2.500000e+01
3.125000e+01
3.750000e+01
4.375000e+01
5.000000e+01
5.625000e+01
6.250000e+01
6.875000e+01
7.500000e+01
8.125000e+01
8.750000e+01
9.375000e+01
1.000000e+02
1.062500e+02
1.125000e+02
1.187500e+02
1.250000e+02
1.312500e+02
1.375000e+02
1.437500e+02
1.500000e+02
1.562500e+02
1.625000e+02
1.687500e+02
1.750000e+02
1.812500e+02
1.875000e+02
1.937500e+02
2.000000e+02
0.000000e+00
6.250000e+00
1.250000e+01
1.875000e+01
2.500000e+01
3.125000e+01
3.750000e+01
4.375000e+01
5.000000e+01
5.625000e+01
6.250000e+01
6.875000e+01
7.500000e+01
8.125000e+01
8.750000e+01
9.375000e+01
1.000000e+02
1.062500e+02
1.125000e+02
1.187500e+02
1.250000e+02
1.312500e+02
1.375000e+02
1.437500e+02
1.500000e+02
1.562500e+02
1.625000e+02
1.687500e+02
1.750000e+02
1.812500e+02
1.875000e+02
1.937500e+02
2.000000e+02
0.000000e+00
6.250000e+00
1.250000e+01
1.875000e+01
2.500000e+01
3.125000e+01
3.750000e+01
4.375000e+01
5.000000e+01
5.625000e+01
6.250000e+01
6.875000e+01
7.500000e+01
8.125000e+01
8.750000e+01
9.375000e+01
1.000000e+02
1.062500e+02
1.125000e+02
1.187500e+02
1.250000e+02
1.312500e+02
1.375000e+02
1.437500e+02
1.500000e+02
1.562500e+02
1.625000e+02
1.687500e+02
1.750000e+02
1.812500e+02
1.875000e+02
1.937500e+02
2.000000e+02
0.000000e+00
6.250000e+00
1.250000e+01
1.875000e+01
2.500000e+01
3.125000e+01
3.750000e+01
4.375000e+01
5.000000e+01
5.625000e+01
6.250000e+01
6.875000e+01
7.500000e+01
8.125000e+01
8.750000e+01
9.375000e+01
1.000000e+02
1.062500e+02
1.125000e+02
1.187500e+02
1.250000e+02
1.312500e+02
1.375000e+02
1.437500e+02
1.500000e+02
1.562500e+02
1.625000e+02
1.687500e+02
1.750000e+02
1.812500e+02
1.875000e+02
1.937500e+02
2.000000e+02
0.000000e+00
6.250000e+00
1.250000e+01
1.875000e+01
2.500000e+01
3.125000e+01
3.750000e+01
4.375000e+01
5.000000e+01
5.625000e+01
6.250000e+01
6.875000e+01
7.500000e+01
8.125000e+01
8.750000e+01
9.375000e+01
1.000000e+02
1.062500e+02
1.125000e+02
1.187500e+02
1.250000e+02
1.312500e+02
1.375000e+02
1.437500e+02
1.500000e+02
1.562500e+02
1.625000e+02
1.687500e+02
1.750000e+02
1.812500e+02
1.875000e+02
1.937500e+02
2.000000e+02
0.000000e+00
6.250000e+00
1.250000e+01
1.875000e+01
2.500000e+01
3.125000e+01
3.750000e+01
4.375000e+01
5.000000e+01
5.625000e+01
6.250000e+01
6.875000e+01
7.500000e+01
8.125000e+01
8.750000e+01
9.375000e+01
1.000000e+02
1.062500e+02
1.125000e+02
1.187500e+02
1.250000e+02
1.312500e+02
1.375000e+02
1.437500e+02
1.500000e+02
1.562500e+02
1.625000e+02
1.687500e+02
1.750000e+02
1.812500e+02
1.875000e+02
1.937500e+02
2.000000e+02
0.000000e+00
6.250000e+00
1.250000e+01
1.875000e+01
2.500000e+01
3.125000e+01
3.750000e+01
4.375000e+01
5.000000e+01
5.625000e+01
6.250000e+01
6.875000e+01
7.500000e+01
8.125000e+01
8.750000e+01
9.375000e+01
1.000000e+02
1.062500e+02
1.125000e+02
1.187500e+02
1.250000e+02
1.312500e+02
1.375000e+02
1.437500e+02
1.500000e+02
1.562500e+02
1.625000e+02
1.687500e+02
1.750000e+02
1.812500e+02
1.875000e+02
1.937500e+02
2.000000e+02
0.000000e+00
6.250000e+00
1.250000e+01
1.875000e+01
2.500000e+01
3.125000e+01
3.750000e+01
4.375000e+01
5.000000e+01
5.625000e+01
6.250000e+01
6.875000e+01
7.500000e+01
8.125000e+01
8.750000e+01
9.375000e+01
1.000000e+02
1.062500e+02
1.125000e+02
1.187500e+02
1.250000e+02
1.312500e+02
1.375000e+02
1.437500e+02
1.500000e+02
1.562500e+02
1.625000e+02
1.687500e+02
1.750000e+02
1.812500e+02
1.875000e+02
1.937500e+02
2.000000e+02
0.000000e+00
6.250000e+00
1.250000e+01
1.875000e+01
2.500000e+01
3.125000e+01
3.750000e+01
4.375000e+01
5.000000e+01
5.625000e+01
6.250000e+01
6.875000e+01
7.500000e+01
8.125000e+01
8.750000e+01
9.375000e+01
1.000000e+02
1.062500e+02
1.125000e+02
1.187500e+02
1.250000e+02
1.312500e+02
1.375000e+02
1.437500e+02
1.500000e+02
1.562500e+02
1.625000e+02
1.687500e+02
1.750000e+02
1.812500e+02
1.875000e+02
1.937500e+02
2.000000e+02
0.000000e+00
6.250000e+00
1.250000e+01
1.875000e+01
2.500000e+01
3.125000e+01
3.750000e+01
4.375000e+01
5.000000e+01
5.625000e+01
6.250000e+01
6.875000e+01
7.500000e+01
8.125000e+01
8.750000e+01
9.375000e+01
1.000000e+02
1.062500e+02
1.125000e+02
1.187500e+02
1.250000e+02
1.312500e+02
1.375000e+02
1.437500e+02
1.500000e+02
1.562500e+02
1.625000e+02
1.687500e+02
1.750000e+02
1.812500e+02
1.875000e+02
1.937500e+02
2.000000e+02
0.000000e+00
6.250000e+00
1.250000e+01
1.875000e+01
2.500000e+01
3.125000e+01
3.750000e+01
4.375000e+01
5.000000e+01
5.625000e+01
6.250000e+01
6.875000e+01
7.500000e+01
8.125000e+01
8.750000e+01
9.375000e+01
1.000000e+02
1.062500e+02
1.125000e+02
1.187500e+02
1.250000e+02
1.312500e+02
1.375000e+02
1.437500e+02
1.500000e+02
1.562500e+02
1.625000e+02
1.687500e+02
1.750000e+02
1.812500e+02
1.875000e+02
1.937500e+02
2.000000e+02
0.000000e+00
6.250000e+00
1.250000e+01
1.875000e+01
2.500000e+01
3.125000e+01
3.750000e+01
4.375000e+01
5.000000e+01
5.625000e+01
6.250000e+01
6.875000e+01
7.500000e+01
8.125000e+01
8.750000e+01
9.375000e+01
1.000000e+02
1.062500e+02
1.125000e+02
1.187500e+02
1.250000e+02
1.312500e+02
1.375000e+02
1.437500e+02
1.500000e+02
1.562500e+02
1.625000e+02
1.687500e+02
1.750000e+02
1.812500e+02
1.875000e+02
1.937500e+02
2.000000e+02
0.000000e+00
6.250000e+00
1.250000e+01
1.875000e+01
2.500000e+01
3.125000e+01
3.750000e+01
4.375000e+01
5.000000e+01
5.625000e+01
6.250000e+01
6.875000e+01
7.500000e+01
8.125000e+01
8.750000e+01
9.375000e+01
1.000000e+02
1.062500e+02
1.125000e+02
1.187500e+02
1.250000e+02
1.312500e+02
1.375000e+02
1.437500e+02
1.500000e+02
1.562500e+02
1.625000e+02
1.687500e+02
1.750000e+02
1.812500e+02
1.875000e+02
1.937500e+02
2.000000e+02
0.000000e+00
6.250000e+00
1.250000e+01
1.875000e+01
2.500000e+01
3.125000e+01
3.750000e+01
4.375000e+01
5.000000e+01
5.625000e+01
6.250000e+01
6.875000e+01
7.500000e+01
8.125000e+01
8.750000e+01
9.375000e+01
1.000000e+02
1.062500e+02
1.125000e+02
1.187500e+02
1.250000e+02
1.312500e+02
1.375000e+02
1.437500e+02
1.500000e+02
1.562500e+02
1.625000e+02
1.687500e+02
1.750000e+02
1.812500e+02
1.875000e+02
1.937500e+02
2.000000e+02
0.000000e+00
6.250000e+00
1.250000e+01
1.875000e+01
2.500000e+01
3.125000e+01
3.750000e+01
4.375000e+01
5.000000e+01
5.625000e+01
6.250000e+01
6.875000e+01
7.500000e+01
8.125000e+01
8.750000e+01
9.375000e+01
1.000000e+02
1.062500e+02
1.125000e+02
1.187500e+02
1.250000e+02
1.312500e+02
1.375000e+02
1.437500e+02
1.500000e+02
1.562500e+02
1.625000e+02
1.687500e+02
1.750000e+02
1.812500e+02
1.875000e+02
1.937500e+02
2.000000e+02
0.000000e+00
6.250000e+00
1.250000e+01
1.875000e+01
2.500000e+01
3.125000e+01
3.750000e+01
4.375000e+01
5.000000e+01
5.625000e+01
6.250000e+01
6.875000e+01
7.500000e+01
8.125000e+01
8.750000e+01
9.375000e+01
1.000000e+02
1.062500e+02
1.125000e+02
1.187500e+02
1.250000e+02
1.312500e+02
1.375000e+02
1.437500e+02
1.500000e+02
1.562500e+02
1.625000e+02
1.687500e+02
1.750000e+02
1.812500e+02
1.875000e+02
1.937500e+02
2.000000e+02
0.000000e+00
6.250000e+00
1.250000e+01
1.875000e+01
2.500000e+01
3.125000e+01
3.750000e+01
4.375000e+01
5.000000e+01
5.625000e+01
6.250000e+01
6.875000e+01
7.500000e+01
8.125000e+01
8.750000e+01
9.375000e+01
1.000000e+02
1.062500e+02
1.125000e+02
1.187500e+02
1.250000e+02
1.312500e+02
1.375000e+02
1.437500e+02
1.500000e+02
1.562500e+02
1.625000e+02
1.687500e+02
1.750000e+02
1.812500e+02
1.875000e+02
1.937500e+02
2.000000e+02
0.000000e+00
0.000000e+00
0.000000e+00
0.000000e+00
0.000000e+00
0.000000e+00
0.000000e+00
0.000000e+00
0.000000e+00
0.000000e+00
0.000000e+00
0.000000e+00
0.000000e+00
0.000000e+00
0.000000e+00
0.000000e+00
0.000000e+00
0.000000e+00
0.000000e+00
0.000000e+00
0.000000e+00
0.000000e+00
0.000000e+00
0.000000e+00
0.000000e+00
0.000000e+00
0.000000e+00
0.000000e+00
0.000000e+00
0.000000e+00
0.000000e+00
0.000000e+00
0.000000e+00
6.250000e+00
6.250000e+00
6.250000e+00
6.250000e+00
6.250000e+00
6.250000e+00
6.250000e+00
6.250000e+00
6.250000e+00
6.250000e+00
6.250000e+00
6.250000e+00
6.250000e+00
6.250000e+00
6.250000e+00
6.250000e+00
6.250000e+00
6.250000e+00
6.250000e+00
6.250000e+00
6.250000e+00
6.250000e+00
6.250000e+00
6.250000e+00
6.250000e+00
6.250000e+00
6.250000e+00
6.250000e+00
6.250000e+00
6.250000e+00
6.250000e+00
6.250000e+00
6.250000e+00
1.250000e+01
1.250000e+01
1.250000e+01
1.250000e+01
1.250000e+01
1.250000e+01
1.250000e+01
1.250000e+01
1.250000e+01
1.250000e+01
1.250000e+01
1.250000e+01
1.250000e+01
1.250000e+01
1.250000e+01
1.250000e+01
1.250000e+01
1.250000e+01
1.250000e+01
1.250000e+01
1.250000e+01
1.250000e+01
1.250000e+01
1.250000e+01
1.250000e+01
1.250000e+01
1.250000e+01
1.250000e+01
1.250000e+01
1.250000e+01
1.250000e+01
1.250000e+01
1.250000e+01
1.875000e+01
1.875000e+01
1.875000e+01
1.875000e+01
1.875000e+01
1.875000e+01
1.875000e+01
1.875000e+01
1.875000e+01
1.875000e+01
1.875000e+01
1.875000e+01
1.875000e+01
1.875000e+01
1.875000e+01
1.875000e+01
1.875000e+01
1.875000e+01
1.875000e+01
1.875000e+01
1.875000e+01
1.875000e+01
1.875000e+01
1.875000e+01
1.875000e+01
1.875000e+01
1.875000e+01
1.875000e+01
1.875000e+01
1.875000e+01
1.875000e+01
1.875000e+01
1.875000e+01
2.500000e+01
2.500000e+01
2.500000e+01
2.500000e+01
2.500000e+01
2.500000e+01
2.500000e+01
2.500000e+01
2.500000e+01
2.500000e+01
2.500000e+01
2.500000e+01
2.500000e+01
2.500000e+01
2.500000e+01
2.500000e+01
2.500000e+01
2.500000e+01
2.500000e+01
2.500000e+01
2.500000e+01
2.500000e+01
2.500000e+01
2.500000e+01
2.500000e+01
2.500000e+01
2.500000e+01
2.500000e+01
2.500000e+01
2.500000e+01
2.500000e+01
2.500000e+01
2.500000e+01
3.125000e+01
3.125000e+01
3.125000e+01
3.125000e+01
3.125000e+01
3.125000e+01
3.125000e+01
3.125000e+01
3.125000e+01
3.125000e+01
3.125000e+01
3.125000e+01
3.125000e+01
3.125000e+01
3.125000e+01
3.125000e+01
3.125000e+01
3.125000e+01
3.125000e+01
3.125000e+01
3.125000e+01
3.125000e+01
3.125000e+01
3.125000e+01
3.125000e+01
3.125000e+01
3.125000e+01
3.125000e+01
3.125000e+01
3.125000e+01
3.125000e+01
3.125000e+01
3.125000e+01
3.750000e+01
3.750000e+01
3.750000e+01
3.750000e+01
3.750000e+01
3.750000e+01
3.750000e+01
3.750000e+01
3.750000e+01
3.750000e+01
3.750000e+01
3.750000e+01
3.750000e+01
3.750000e+01
3.750000e+01
3.750000e+01
3.750000e+01
3.750000e+01
3.750000e+01
3.750000e+01
3.750000e+01
3.750000e+01
3.750000e+01
3.750000e+01
3.750000e+01
3.750000e+01
3.750000e+01
3.750000e+01
3.750000e+01
3.750000e+01
3.750000e+01
3.750000e+01
3.750000e+01
4.375000e+01
4.375000e+01
4.375000e+01
4.375000e+01
4.375000e+01
4.375000e+01
4.375000e+01
4.375000e+01
4.375000e+01
4.375000e+01
4.375000e+01
4.375000e+01
4.375000e+01
4.375000e+01
4.375000e+01
4.375000e+01
4.375000e+01
4.375000e+01
4.375000e+01
4.375000e+01
4.375000e+01
4.375000e+01
4.375000e+01
4.375000e+01
4.375000e+01
4.375000e+01
4.375000e+01
4.375000e+01
4.375000e+01
4.375000e+01
4.375000e+01
4.375000e+01
4.375000e+01
5.000000e+01
5.000000e+01
5.000000e+01
5.000000e+01
5.000000e+01
5.000000e+01
5.000000e+01
5.000000e+01
5.000000e+01
5.000000e+01
5.000000e+01
5.000000e+01
5.000000e+01
5.000000e+01
5.000000e+01
5.000000e+01
5.000000e+01
5.000000e+01
5.000000e+01
5.000000e+01
5.000000e+01
5.000000e+01
5.000000e+01
5.000000e+01
5.000000e+01
5.000000e+01
5.000000e+01
5.000000e+01
5.000000e+01
5.000000e+01
5.000000e+01
5.000000e+01
5.000000e+01
5.625000e+01
5.625000e+01
5.625000e+01
5.625000e+01
5.625000e+01
5.625000e+01
5.625000e+01
5.625000e+01
5.625000e+01
5.625000e+01
5.625000e+01
5.625000e+01
5.625000e+01
5.625000e+01
5.625000e+01
5.625000e+01
5.625000e+01
5.625000e+01
5.625000e+01
5.625000e+01
5.625000e+01
5.625000e+01
5.625000e+01
5.625000e+01
5.625000e+01
5.625000e+01
5.625000e+01
5.625000e+01
5.625000e+01
5.625000e+01
5.625000e+01
5.625000e+01
5.625000e+01
6.250000e+01
6.250000e+01
6.250000e+01
6.250000e+01
6.250000e+01
6.250000e+01
6.250000e+01
6.250000e+01
6.250000e+01
6.250000e+01
6.250000e+01
6.250000e+01
6.250000e+01
6.250000e+01
6.250000e+01
6.250000e+01
6.250000e+01
6.250000e+01
6.250000e+01
6.250000e+01
6.250000e+01
6.250000e+01
6.250000e+01
6.250000e+01
6.250000e+01
6.250000e+01
6.250000e+01
6.250000e+01
6.250000e+01
6.250000e+01
6.250000e+01
6.250000e+01
6.250000e+01
6.875000e+01
6.875000e+01
6.875000e+01
6.875000e+01
6.875000e+01
6.875000e+01
6.875000e+01
6.875000e+01
6.875000e+01
6.875000e+01
6.875000e+01
6.875000e+01
6.875000e+01
6.875000e+01
6.875000e+01
6.875000e+01
6.875000e+01
6.875000e+01
6.875000e+01
6.875000e+01
6.875000e+01
6.875000e+01
6.875000e+01
6.875000e+01
6.875000e+01
6.875000e+01
6.875000e+01
6.875000e+01
6.875000e+01
6.875000e+01
6.875000e+01
6.875000e+01
6.875000e+01
7.500000e+01
7.500000e+01
7.500000e+01
7.500000e+01
7.500000e+01
7.500000e+01
7.500000e+01
7.500000e+01
7.500000e+01
7.500000e+01
7.500000e+01
7.500000e+01
7.500000e+01
7.500000e+01
7.500000e+01
7.500000e+01
7.500000e+01
7.500000e+01
7.500000e+01
7.500000e+01
7.500000e+01
7.500000e+01
7.500000e+01
7.500000e+01
7.500000e+01
7.500000e+01
7.500000e+01
7.500000e+01
7.500000e+01
7.500000e+01
7.500000e+01
7.500000e+01
7.500000e+01
8.125000e+01
8.125000e+01
8.125000e+01
8.125000e+01
8.125000e+01
8.125000e+01
8.125000e+01
8.125000e+01
8.125000e+01
8.125000e+01
8.125000e+01
8.125000e+01
8.125000e+01
8.125000e+01
8.125000e+01
8.125000e+01
8.125000e+01
8.125000e+01
8.125000e+01
8.125000e+01
8.125000e+01
8.125000e+01
8.125000e+01
8.125000e+01
8.125000e+01
8.125000e+01
8.125000e+01
8.125000e+01
8.125000e+01
8.125000e+01
8.125000e+01
8.125000e+01
8.125000e+01
8.750000e+01
8.750000e+01
8.750000e+01
8.750000e+01
8.750000e+01
8.750000e+01
8.750000e+01
8.750000e+01
8.750000e+01
8.750000e+01
8.750000e+01
8.750000e+01
8.750000e+01
8.750000e+01
8.750000e+01
8.750000e+01
8.750000e+01
8.750000e+01
8.750000e+01
8.750000e+01
8.750000e+01
8.750000e+01
8.750000e+01
8.750000e+01
8.750000e+01
8.750000e+01
8.750000e+01
8.750000e+01
8.750000e+01
8.750000e+01
8.750000e+01
8.750000e+01
8.750000e+01
9.375000e+01
9.375000e+01
9.375000e+01
9.375000e+01
9.375000e+01
9.375000e+01
9.375000e+01
9.375000e+01
9.375000e+01
9.375000e+01
9.375000e+01
9.375000e+01
9.375000e+01
9.375000e+01
9.375000e+01
9.375000e+01
9.375000e+01
9.375000e+01
9.375000e+01
9.375000e+01
9.375000e+01
9.375000e+01
9.375000e+01
9.375000e+01
9.375000e+01
9.375000e+01
9.375000e+01
9.375000e+01
9.375000e+01
9.375000e+01
9.375000e+01
9.375000e+01
9.375000e+01
1.000000e+02
1.000000e+02
1.000000e+02
1.000000e+02
1.000000e+02
1.000000e+02
1.000000e+02
1.000000e+02
1.000000e+02
1.000000e+02
1.000000e+02
1.000000e+02
1.000000e+02
1.000000e+02
1.000000e+02
1.000000e+02
1.000000e+02
1.000000e+02
1.000000e+02
1.000000e+02
1.000000e+02
1.000000e+02
1.000000e+02
1.000000e+02
1.000000e+02
1.000000e+02
1.000000e+02
1.000000e+02
1.000000e+02
1.000000e+02
1.000000e+02
1.000000e+02
1.000000e+02
0.000000e+00
-3.955657e-02
-7.177013e-02
-1.016114e-01
-1.302507e-01
-1.579062e-01
-1.846336e-01
-2.104304e-01
-2.352804e-01
-2.591655e-01
-2.820708e-01
-3.039859e-01
-3.249055e-01
-3.448292e-01
-3.637615e-01
-3.817125e-01
-3.986983e-01
-4.147422e-01
-4.298765e-01
-4.441448e-01
-4.576049e-01
-4.703337e-01
-4.824326e-01
-4.940361e-01
-5.053243e-01
-5.165424e-01
-5.280303e-01
-5.402734e-01
-5.539832e-01
-5.702071e-01
-5.903037e-01
-6.142533e-01
-6.288694e-01
0.000000e+00
-2.652162e-02
-5.518107e-02
-8.220316e-02
-1.078866e-01
-1.324759e-01
-1.561011e-01
-1.788190e-01
-2.006522e-01
-2.216081e-01
-2.416881e-01
-2.608922e-01
-2.792213e-01
-2.966784e-01
-3.132693e-01
-3.290031e-01
-3.438934e-01
-3.579584e-01
-3.712226e-01
-3.837176e-01
-3.954839e-01
-4.065721e-01
-4.170457e-01
-4.269817e-01
-4.364726e-01
-4.456246e-01
-4.545499e-01
-4.633408e-01
-4.719967e-01
-4.802359e-01
-4.871014e-01
-4.911153e-01
-4.967033e-01
0.000000e+00
-2.103701e-02
-4.330975e-02
-6.598693e-02
-8.802213e-02
-1.092453e-01
-1.296428e-01
-1.492341e-01
-1.680364e-01
-1.860617e-01
-2.033175e-01
-2.198092e-01
-2.355414e-01
-2.505188e-01
-2.647468e-01
-2.782325e-01
-2.909845e-01
-3.030139e-01
-3.143342e-01
-3.249615e-01
-3.349144e-01
-3.442130e-01
-3.528772e-01
-3.609223e-01
-3.683515e-01
-3.751410e-01
-3.812131e-01
-3.863891e-01
-3.903189e-01
-3.924350e-01
-3.922495e-01
-3.910612e-01
-3.975865e-01
0.000000e+00
-1.669100e-02
-3.430382e-02
-5.239878e-02
-7.045134e-02
-8.806662e-02
-1.050938e-01
-1.214787e-01
-1.372067e-01
-1.522772e-01
-1.666941e-01
-1.804622e-01
-1.935860e-01
-2.060699e-01
-2.179174e-01
-2.291318e-01
-2.397163e-01
-2.496736e-01
-2.590057e-01
-2.677132e-01
-2.757938e-01
-2.832401e-01
-2.900356e-01
-2.961487e-01
-3.015230e-01
-3.060635e-01
-3.096200e-01
-3.119752e-01
-3.128744e-01
-3.122069e-01
-3.105855e-01
-3.104887e-01
-3.167057e-01
0.000000e+00
-1.295455e-02
-2.652650e-02
-4.053200e-02
-5.465127e-02
-6.859738e-02
-8.217788e-02
-9.529536e-02
-1.079055e-01
-1.199913e-01
-1.315483e-01
-1.425771e-01
-1.530798e-01
-1.630581e-01
-1.725127e-01
-1.814427e-01
-1.898454e-01
-1.977157e-01
-2.050455e-01
-2.118224e-01
-2.180284e-01
-2.236368e-01
-2.286092e-01
-2.328912e-01
-2.364069e-01
-2.390569e-01
-2.407245e-01
-2.413095e-01
-2.408296e-01
-2.396553e-01
-2.388935e-01
-2.406528e-01
-2.459561e-01
0.000000e+00
-9.520839e-03
-1.944959e-02
-2.969732e-02
-4.008695e-02
-5.042456e-02
-6.055617e-02
-7.038170e-02
-7.984623e-02
-8.892303e-02
-9.760086e-02
-1.058757e-01
-1.137462e-01
-1.212109e-01
-1.282670e-01
-1.349095e-01
-1.411305e-01
-1.469186e-01
-1.522581e-01
-1.571283e-01
-1.615016e-01
-1.653426e-01
-1.686064e-01
-1.712382e-01
-1.731756e-01
-1.743578e-01
-1.747500e-01
-1.743980e-01
-1.735305e-01
-1.727052e-01
-1.729061e-01
-1.751488e-01
-1.795370e-01
0.000000e+00
-6.265856e-03
-1.277956e-02
-1.949989e-02
-2.633102e-02
-3.315797e-02
-3.987778e-02
-4.641540e-02
-5.272386e-02
-5.877726e-02
-6.456250e-02
-7.007299e-02
-7.530452e-02
-8.025273e-02
-8.491164e-02
-8.927274e-02
-9.332426e-02
-9.705063e-02
-1.004319e-01
-1.034430e-01
-1.060539e-01
-1.082291e-01
-1.099290e-01
-1.111136e-01
-1.117501e-01
-1.118291e-01
-1.113939e-01
-1.105886e-01
-1.097196e-01
-1.092984e-01
-1.099556e-01
-1.121391e-01
-1.156813e-01
0.000000e+00
-3.112249e-03
-6.342159e-03
-9.673129e-03
-1.306309e-02
-1.645849e-02
-1.980847e-02
-2.307324e-02
-2.622591e-02
-2.925005e-02
-3.213594e-02
-3.487713e-02
-3.746802e-02
-3.990218e-02
-4.217132e-02
-4.426454e-02
-4.616779e-02
-4.786351e-02
-4.933038e-02
-5.054342e-02
-5.147459e-02
-5.209440e-02
-5.237517e-02
-5.229708e-02
-5.185858e-02
-5.109314e-02
-5.009339e-02
-4.903999e-02
-4.822224e-02
-4.801740e-02
-4.878846e-02
-5.069328e-02
-5.350395e-02
0.000000e+00
-5.021287e-06
-1.088758e-05
-1.727391e-05
-2.384434e-05
-3.014594e-05
-3.549610e-05
-3.885753e-05
-3.869210e-05
-3.278495e-05
-1.803217e-05
9.811754e-06
5.642627e-05
1.292505e-04
2.378265e-04
3.941310e-04
6.128432e-04
9.114668e-04
1.310174e-03
1.831171e-03
2.497291e-03
3.329372e-03
4.341849e-03
5.535820e-03
6.888918e-03
8.341872e-03
9.783438e-03
1.103938e-02
1.187777e-02
1.204779e-02
1.136321e-02
9.812837e-03
7.641462e-03
0.000000e+00
3.102791e-03
6.321610e-03
9.640461e-03
1.301789e-02
1.640118e-02
1.974074e-02
2.299871e-02
2.615106e-02
2.918552e-02
3.209817e-02
3.489055e-02
3.756771e-02
4.013725e-02
4.260888e-02
4.499434e-02
4.730740e-02
4.956377e-02
5.178066e-02
5.397579e-02
5.616554e-02
5.836199e-02
6.056826e-02
6.277211e-02
6.493771e-02
6.699672e-02
6.884136e-02
7.032500e-02
7.127829e-02
7.154817e-02
7.105938e-02
6.988165e-02
6.827006e-02
0.000000e+00
6.258130e-03
1.276265e-02
1.947282e-02
2.629328e-02
3.310968e-02
3.982003e-02
4.635084e-02
5.265741e-02
5.871715e-02
6.452166e-02
7.007083e-02
7.536913e-02
8.042371e-02
8.524343e-02
8.983857e-02
9.422062e-02
9.840208e-02
1.023959e-01
1.062146e-01
1.098678e-01
1.133604e-01
1.166875e-01
1.198300e-01
1.227483e-01
1.253777e-01
1.276269e-01
1.293835e-01
1.305332e-01
1.309930e-01
1.307566e-01
1.299416e-01
1.288169e-01
0.000000e+00
9.515911e-03
1.943861e-02
2.967943e-02
4.006156e-02
5.039142e-02
6.051562e-02
7.033503e-02
7.979613e-02
8.887431e-02
9.756127e-02
1.058572e-01
1.137664e-01
1.212949e-01
1.284499e-01
1.352390e-01
1.416701e-01
1.477514e-01
1.534908e-01
1.588948e-01
1.639672e-01
1.687068e-01
1.731046e-01
1.771396e-01
1.807763e-01
1.839618e-01
1.866275e-01
1.886964e-01
1.900994e-01
1.908024e-01
1.908420e-01
1.903639e-01
1.896531e-01
0.000000e+00
1.295332e-02
2.652344e-02
4.052652e-02
5.464280e-02
6.858543e-02
8.216216e-02
9.527583e-02
1.078826e-01
1.199660e-01
1.315225e-01
1.425542e-01
1.530650e-01
1.630593e-01
1.725413e-01
1.815149e-01
1.899834e-01
1.979497e-01
2.054156e-01
2.123815e-01
2.188453e-01
2.248011e-01
2.302374e-01
2.351354e-01
2.394677e-01
2.431977e-01
2.462829e-01
2.486807e-01
2.503611e-01
2.513266e-01
2.516397e-01
2.514602e-01
2.510858e-01
0.000000e+00
1.669410e-02
3.431012e-02
5.240816e-02
7.046353e-02
8.808127e-02
1.051104e-01
1.214964e-01
1.372242e-01
1.522924e-01
1.667036e-01
1.804612e-01
1.935678e-01
2.060248e-01
2.178325e-01
2.289898e-01
2.394948e-01
2.493439e-01
2.585323e-01
2.670535e-01
2.748988e-01
2.820574e-01
2.885157e-01
2.942573e-01
2.992639e-01
3.035168e-01
3.070001e-01
3.097058e-01
3.116423e-01
3.128457e-01
3.133993e-01
3.134653e-01
3.133410e-01
0.000000e+00
2.104458e-02
4.332591e-02
6.601224e-02
8.805707e-02
1.092903e-01
1.296979e-01
1.492987e-01
1.681087e-01
1.861378e-01
2.033910e-01
2.198696e-01
2.355725e-01
2.504966e-01
2.646374e-01
2.779885e-01
2.905416e-01
3.022864e-01
3.132106e-01
3.232996e-01
3.325368e-01
3.409043e-01
3.483839e-01
3.549587e-01
3.606165e-01
3.653528e-01
3.691763e-01
3.721137e-01
3.742161e-01
3.755626e-01
3.762674e-01
3.764969e-01
3.765243e-01
0.000000e+00
2.653298e-02
5.520590e-02
8.224309e-02
1.079436e-01
1.325520e-01
1.561978e-01
1.789373e-01
2.007917e-01
2.217659e-01
2.418577e-01
2.610615e-01
2.793702e-01
2.967752e-01
3.132667e-01
3.288330e-01
3.434599e-01
3.571302e-01
3.698233e-01
3.815153e-01
3.921792e-01
4.017863e-01
4.103083e-01
4.177207e-01
4.240081e-01
4.291709e-01
4.332334e-01
4.362529e-01
4.383271e-01
4.395981e-01
4.402474e-01
4.404829e-01
4.405405e-01
0.000000e+00
3.956901e-02
7.179916e-02
1.016612e-01
1.303251e-01
1.580094e-01
1.847698e-01
2.106035e-01
2.354936e-01
2.594202e-01
2.823647e-01
3.043113e-01
3.252458e-01
3.451549e-01
3.640246e-01
3.818393e-01
3.985799e-01
4.142232e-01
4.287406e-01
4.420976e-01
4.542542e-01
4.651653e-01
4.747844e-01
4.830673e-01
4.899798e-01
4.955079e-01
4.996713e-01
5.025395e-01
5.042490e-01
5.050193e-01
5.051593e-01
5.050434e-01
5.049781e-01
0.000000e+00
-2.444520e-02
-4.266215e-02
-6.254122e-02
-8.467775e-02
-1.096832e-01
-1.377313e-01
-1.688708e-01
-2.030707e-01
-2.402576e-01
-2.803332e-01
-3.231838e-01
-3.686873e-01
-4.167163e-01
-4.671410e-01
-5.198305e-01
-5.746549e-01
-6.314863e-01
-6.902013e-01
-7.506837e-01
-8.128282e-01
-8.765462e-01
-9.417745e-01
-1.008488e+00
-1.076720e+00
-1.146596e+00
-1.218395e+00
-1.292659e+00
-1.370424e+00
-1.453742e+00
-1.547044e+00
-1.660779e+00
-1.817906e+00
0.000000e+00
-1.519176e-02
-3.426010e-02
-5.427328e-02
-7.671835e-02
-1.019954e-01
-1.303161e-01
-1.617281e-01
-1.962033e-01
-2.336682e-01
-2.740238e-01
-3.171558e-01
-3.629408e-01
-4.112505e-01
-4.619537e-01
-5.149184e-01
-5.700128e-01
-6.271074e-01
-6.860764e-01
-7.468006e-01
-8.091709e-01
-8.730944e-01
-9.385019e-01
-1.005361e+00
-1.073696e+00
-1.143621e+00
-1.215401e+00
-1.289560e+00
-1.367112e+00
-1.450077e+00
-1.542658e+00
-1.653861e+00
-1.800659e+00
0.000000e+00
-1.115922e-02
-2.762033e-02
-4.736050e-02
-6.984479e-02
-9.530814e-02
-1.238523e-01
-1.555037e-01
-1.902244e-01
-2.279376e-01
-2.685424e-01
-3.119236e-01
-3.579574e-01
-4.065149e-01
-4.574646e-01
-5.106738e-01
-5.660103e-01
-6.233436e-01
-6.825471e-01
-7.435006e-01
-8.060943e-01
-8.702343e-01
-9.358514e-01
-1.002914e+00
-1.071449e+00
-1.141579e+00
-1.213577e+00
-1.287982e+00
-1.365798e+00
-1.448841e+00
-1.540218e+00
-1.643597e+00
-1.758276e+00
0.000000e+00
-8.935832e-03
-2.338885e-02
-4.207637e-02
-6.427170e-02
-8.972714e-02
-1.183934e-01
-1.502222e-01
-1.851449e-01
-2.230708e-01
-2.638925e-01
-3.074920e-01
-3.537445e-01
-4.025207e-01
-4.536894e-01
-5.071180e-01
-5.626749e-01
-6.202302e-01
-6.796578e-01
-7.408386e-01
-8.036642e-01
-8.680429e-01
-9.339090e-01
-1.001236e+00
-1.070058e+00
-1.140501e+00
-1.212839e+00
-1.287566e+00
-1.365505e+00
-1.447851e+00
-1.535753e+00
-1.628462e+00
-1.714764e+00
0.000000e+00
-7.561183e-03
-2.062161e-02
-3.832401e-02
-6.001338e-02
-8.530193e-02
-1.139790e-01
-1.459112e-01
-1.809832e-01
-2.190803e-01
-2.600834e-01
-3.038690e-01
-3.503100e-01
-3.992767e-01
-4.506384e-01
-5.042636e-01
-5.600217e-01
-6.177845e-01
-6.774275e-01
-7.388337e-01
-8.018971e-01
-8.665288e-01
-9.326658e-01
-1.000283e+00
-1.069413e+00
-1.140166e+00
-1.212764e+00
-1.287565e+00
-1.365040e+00
-1.445569e+00
-1.528769e+00
-1.611585e+00
-1.686745e+00
0.000000e+00
-6.686480e-03
-1.880595e-02
-3.574180e-02
-5.694294e-02
-8.199460e-02
-1.106093e-01
-1.425823e-01
-1.777526e-01
-2.159780e-01
-2.571249e-01
-3.010624e-01
-3.476602e-01
-3.967882e-01
-4.483160e-01
-5.021138e-01
-5.580527e-01
-6.160060e-01
-6.758516e-01
-7.374742e-01
-8.007693e-01
-8.656485e-01
-9.320470e-01
-9.999327e-01
-1.069317e+00
-1.140268e+00
-1.212910e+00
-1.287400e+00
-1.363824e+00
-1.441925e+00
-1.520512e+00
-1.596777e+00
-1.666484e+00
0.000000e+00
-6.142862e-03
-1.765800e-02
-3.406331e-02
-5.488597e-02
-7.972175e-02
-1.082515e-01
-1.402285e-01
-1.754568e-01
-2.137711e-01
-2.550240e-01
-2.990774e-01
-3.457983e-01
-3.950558e-01
-4.467205e-01
-5.006637e-01
-5.567585e-01
-6.148799e-01
-6.749072e-01
-7.367258e-01
-8.002304e-01
-8.653290e-01
-9.319480e-01
-1.000037e+00
-1.069573e+00
-1.140557e+00
-1.212995e+00
-1.286846e+00
-1.361897e+00
-1.437537e+00
-1.512457e+00
-1.584497e+00
-1.651011e+00
0.000000e+00
-5.844137e-03
-1.702103e-02
-3.311744e-02
-5.370647e-02
-7.839783e-02
-1.068621e-01
-1.388321e-01
-1.740917e-01
-2.124610e-01
-2.537833e-01
-2.979159e-01
-3.447237e-01
-3.940760e-01
-4.458442e-01
-4.999012e-01
-5.561214e-01
-6.143812e-01
-6.745600e-01
-7.365422e-01
-8.002186e-01
-8.654892e-01
-9.322652e-01
-1.000470e+00
-1.070034e+00
-1.140887e+00
-1.212924e+00
-1.285949e+00
-1.359572e+00
-1.433068e+00
-1.505258e+00
-1.574517e+00
-1.639038e+00
0.000000e+00
-5.747888e-03
-1.681553e-02
-3.281088e-02
-5.332206e-02
-7.796454e-02
-1.064070e-01
-1.383765e-01
-1.736510e-01
-2.120459e-01
-2.534021e-01
-2.975757e-01
-3.444320e-01
-3.938410e-01
-4.456755e-01
-4.998095e-01
-5.561186e-01
-6.144795e-01
-6.747707e-01
-7.368735e-01
-8.006722e-01
-8.660552e-01
-9.329140e-01
-1.001141e+00
-1.070620e+00
-1.141213e+00
-1.212729e+00
-1.284873e+00
-1.357179e+00
-1.428934e+00
-1.499140e+00
-1.566557e+00
-1.629863e+00
0.000000e+00
-5.841353e-03
-1.701717e-02
-3.311412e-02
-5.370546e-02
-7.840136e-02
-1.068731e-01
-1.388544e-01
-1.741305e-01
-2.125229e-01
-2.538770e-01
-2.980522e-01
-3.449161e-01
-3.943407e-01
-4.462001e-01
-5.003697e-01
-5.567254e-01
-6.151436e-01
-6.755008e-01
-7.376735e-01
-8.015380e-01
-8.669687e-01
-9.338358e-01
-1.002000e+00
-1.071304e+00
-1.141556e+00
-1.212503e+00
-1.283800e+00
-1.354967e+00
-1.425356e+00
-1.494143e+00
-1.560369e+00
-1.623024e+00
0.000000e+00
-6.137520e-03
-1.765059e-02
-3.405689e-02
-5.488395e-02
-7.972838e-02
-1.082723e-01
-1.402710e-01
-1.755308e-01
-2.138895e-01
-2.552034e-01
-2.993386e-01
-3.461672e-01
-3.955634e-01
-4.474033e-01
-5.015629e-01
-5.579183e-01
-6.163449e-01
-6.767162e-01
-7.389037e-01
-8.027744e-01
-8.681887e-01
-9.349964e-01
-1.003031e+00
-1.072098e+00
-1.141968e+00
-1.212350e+00
-1.282880e+00
-1.353097e+00
-1.422434e+00
-1.490224e+00
-1.555728e+00
-1.618170e+00
0.000000e+00
-6.679054e-03
-1.879564e-02
-3.573284e-02
-5.694004e-02
-8.200368e-02
-1.106382e-01
-1.426414e-01
-1.778556e-01
-2.161431e-01
-2.573753e-01
-3.014272e-01
-3.481757e-01
-3.974981e-01
-4.492715e-01
-5.033728e-01
-5.596776e-01
-6.180600e-01
-6.783905e-01
-7.405351e-01
-8.043524e-01
-8.696900e-01
-9.363799e-01
-1.004232e+00
-1.073028e+00
-1.142506e+00
-1.212360e+00
-1.282221e+00
-1.351661e+00
-1.420196e+00
-1.487298e+00
-1.552417e+00
-1.614988e+00
0.000000e+00
-7.552435e-03
-2.060947e-02
-3.831345e-02
-6.001003e-02
-8.531292e-02
-1.140138e-01
-1.459824e-01
-1.811076e-01
-2.192797e-01
-2.603859e-01
-3.043101e-01
-3.509335e-01
-4.001355e-01
-4.517945e-01
-5.057874e-01
-5.619894e-01
-6.202729e-01
-6.805058e-01
-7.425493e-01
-8.062547e-01
-8.714595e-01
-9.379818e-01
-1.005615e+00
-1.074120e+00
-1.143220e+00
-1.212596e+00
-1.281888e+00
-1.350702e+00
-1.418625e+00
-1.485255e+00
-1.550218e+00
-1.613167e+00
0.000000e+00
-8.926842e-03
-2.337639e-02
-4.206564e-02
-6.426882e-02
-8.974005e-02
-1.184326e-01
-1.503017e-01
-1.852833e-01
-2.232921e-01
-2.642278e-01
-3.079805e-01
-3.544344e-01
-4.034704e-01
-4.549671e-01
-5.088013e-01
-5.648475e-01
-6.229767e-01
-6.830545e-01
-7.449386e-01
-8.084751e-01
-8.734939e-01
-9.398039e-01
-1.007187e+00
-1.075393e+00
-1.144134e+00
-1.213090e+00
-1.281906e+00
-1.350218e+00
-1.417673e+00
-1.483971e+00
-1.548906e+00
-1.612373e+00
0.000000e+00
-1.115139e-02
-2.760942e-02
-4.735144e-02
-6.984393e-02
-9.532384e-02
-1.238956e-01
-1.555893e-01
-1.903715e-01
-2.281711e-01
-2.688944e-01
-3.124346e-01
-3.586769e-01
-4.075028e-01
-4.587906e-01
-5.124168e-01
-5.682549e-01
-6.261750e-01
-6.860408e-01
-7.477076e-01
-8.110183e-01
-8.757985e-01
-9.418519e-01
-1.008955e+00
-1.076851e+00
-1.145251e+00
-1.213833e+00
-1.282252e+00
-1.350164e+00
-1.417256e+00
-1.483305e+00
-1.548246e+00
-1.612234e+00
0.000000e+00
-1.518673e-02
-3.425268e-02
-5.426795e-02
-7.672165e-02
-1.020159e-01
-1.303649e-01
-1.618199e-01
-1.963573e-01
-2.339092e-01
-2.743835e-01
-3.176736e-01
-3.636652e-01
-4.122392e-01
-4.632739e-01
-5.166449e-01
-5.722251e-01
-6.298832e-01
-6.894818e-01
-7.508746e-01
-8.139025e-01
-8.783894e-01
-9.441372e-01
-1.010921e+00
-1.078484e+00
-1.146540e+00
-1.214772e+00
-1.282844e+00
-1.350428e+00
-1.417236e+00
-1.483089e+00
-1.548008e+00
-1.612352e+00
0.000000e+00
-2.444449e-02
-4.265968e-02
-6.254170e-02
-8.468774e-02
-1.097113e-01
-1.377886e-01
-1.689719e-01
-2.032344e-01
-2.405081e-01
-2.807008e-01
-3.237062e-01
-3.694102e-01
-4.176935e-01
-4.684339e-01
-5.215063e-01
-5.767825e-01
-6.341302e-01
-6.934104e-01
-7.544752e-01
-8.171641e-01
-8.813000e-01
-9.466845e-01