TITLE = "Solution"
VARIABLES = x, y, u, v, psiu, psiv, t, stress
ZONE T="structure" N=561 E=512 F=FEBLOCK ET=QUADRILATERAL VARLOCATION=([7,8]=cellcentered)
0.000000e+00
6.250000e+00
1.250000e+01
1.875000e+01
2.500000e+01
3.125000e+01
3.750000e+01
4.375000e+01
5.000000e+01
5.625000e+01
6.250000e+01
6.875000e+01
7.500000e+01
8.125000e+01
8.750000e+01
9.375000e+01
1.000000e+02
1.062500e+02
1.125000e+02
1.187500e+02
1.250000e+02
1.312500e+02
1.375000e+02
1.437500e+02
1.500000e+02
1.562500e+02
1.625000e+02
1.687500e+02
1.750000e+02
1.812500e+02
1.875000e+02
1.937500e+02
2.000000e+02
0.000000e+00
6.250000e+00
1.250000e+01
1.875000e+01
2.500000e+01
3.125000e+01
3.750000e+01
4.375000e+01
5.000000e+01
5.625000e+01
6.250000e+01
6.875000e+01
7.500000e+01
8.125000e+01
8.750000e+01
9.375000e+01
1.000000e+02
1.062500e+02
1.125000e+02
1.187500e+02
1.250000e+02
1.312500e+02
1.375000e+02
1.437500e+02
1.500000e+02
1.562500e+02
1.625000e+02
1.687500e+02
1.750000e+02
1.812500e+02
1.875000e+02
1.937500e+02
2.000000e+02
0.000000e+00
6.250000e+00
1.250000e+01
1.875000e+01
2.500000e+01
3.125000e+01
3.750000e+01
4.375000e+01
5.000000e+01
5.625000e+01
6.250000e+01
6.875000e+01
7.500000e+01
8.125000e+01
8.750000e+01
9.375000e+01
1.000000e+02
1.062500e+02
1.125000e+02
1.187500e+02
1.250000e+02
1.312500e+02
1.375000e+02
1.437500e+02
1.500000e+02
1.562500e+02
1.625000e+02
1.687500e+02
1.750000e+02
1.812500e+02
1.875000e+02
1.937500e+02
2.000000e+02
0.000000e+00
6.250000e+00
1.250000e+01
1.875000e+01
2.500000e+01
3.125000e+01
3.750000e+01
4.375000e+01
5.000000e+01
5.625000e+01
6.250000e+01
6.875000e+01
7.500000e+01
8.125000e+01
8.750000e+01
9.375000e+01
1.000000e+02
1.062500e+02
1.125000e+02
1.187500e+02
1.250000e+02
1.312500e+02
1.375000e+02
1.437500e+02
1.500000e+02
1.562500e+02
1.625000e+02
1.687500e+02
1.750000e+02
1.812500e+02
1.875000e+02
1.937500e+02
2.000000e+02
0.000000e+00
6.250000e+00
1.250000e+01
1.875000e+01
2.500000e+01
3.125000e+01
3.750000e+01
4.375000e+01
5.000000e+01
5.625000e+01
6.250000e+01
6.875000e+01
7.500000e+01
8.125000e+01
8.750000e+01
9.375000e+01
1.000000e+02
1.062500e+02
1.125000e+02
1.187500e+02
1.250000e+02
1.312500e+02
1.375000e+02
1.437500e+02
1.500000e+02
1.562500e+02
1.625000e+02
1.687500e+02
1.750000e+02
1.812500e+02
1.875000e+02
1.937500e+02
2.000000e+02
0.000000e+00
6.250000e+00
1.250000e+01
1.875000e+01
2.500000e+01
3.125000e+01
3.750000e+01
4.375000e+01
5.000000e+01
5.625000e+01
6.250000e+01
6.875000e+01
7.500000e+01
8.125000e+01
8.750000e+01
9.375000e+01
1.000000e+02
1.062500e+02
1.125000e+02
1.187500e+02
1.250000e+02
1.312500e+02
1.375000e+02
1.437500e+02
1.500000e+02
1.562500e+02
1.625000e+02
1.687500e+02
1.750000e+02
1.812500e+02
1.875000e+02
1.937500e+02
2.000000e+02
0.000000e+00
6.250000e+00
1.250000e+01
1.875000e+01
2.500000e+01
3.125000e+01
3.750000e+01
4.375000e+01
5.000000e+01
5.625000e+01
6.250000e+01
6.875000e+01
7.500000e+01
8.125000e+01
8.750000e+01
9.375000e+01
1.000000e+02
1.062500e+02
1.125000e+02
1.187500e+02
1.250000e+02
1.312500e+02
1.375000e+02
1.437500e+02
1.500000e+02
1.562500e+02
1.625000e+02
1.687500e+02
1.750000e+02
1.812500e+02
1.875000e+02
1.937500e+02
2.000000e+02
0.000000e+00
6.250000e+00
1.250000e+01
1.875000e+01
2.500000e+01
3.125000e+01
3.750000e+01
4.375000e+01
5.000000e+01
5.625000e+01
6.250000e+01
6.875000e+01
7.500000e+01
8.125000e+01
8.750000e+01
9.375000e+01
1.000000e+02
1.062500e+02
1.125000e+02
1.187500e+02
1.250000e+02
1.312500e+02
1.375000e+02
1.437500e+02
1.500000e+02
1.562500e+02
1.625000e+02
1.687500e+02
1.750000e+02
1.812500e+02
1.875000e+02
1.937500e+02
2.000000e+02
0.000000e+00
6.250000e+00
1.250000e+01
1.875000e+01
2.500000e+01
3.125000e+01
3.750000e+01
4.375000e+01
5.000000e+01
5.625000e+01
6.250000e+01
6.875000e+01
7.500000e+01
8.125000e+01
8.750000e+01
9.375000e+01
1.000000e+02
1.062500e+02
1.125000e+02
1.187500e+02
1.250000e+02
1.312500e+02
1.375000e+02
1.437500e+02
1.500000e+02
1.562500e+02
1.625000e+02
1.687500e+02
1.750000e+02
1.812500e+02
1.875000e+02
1.937500e+02
2.000000e+02
0.000000e+00
6.250000e+00
1.250000e+01
1.875000e+01
2.500000e+01
3.125000e+01
3.750000e+01
4.375000e+01
5.000000e+01
5.625000e+01
6.250000e+01
6.875000e+01
7.500000e+01
8.125000e+01
8.750000e+01
9.375000e+01
1.000000e+02
1.062500e+02
1.125000e+02
1.187500e+02
1.250000e+02
1.312500e+02
1.375000e+02
1.437500e+02
1.500000e+02
1.562500e+02
1.625000e+02
1.687500e+02
1.750000e+02
1.812500e+02
1.875000e+02
1.937500e+02
2.000000e+02
0.000000e+00
6.250000e+00
1.250000e+01
1.875000e+01
2.500000e+01
3.125000e+01
3.750000e+01
4.375000e+01
5.000000e+01
5.625000e+01
6.250000e+01
6.875000e+01
7.500000e+01
8.125000e+01
8.750000e+01
9.375000e+01
1.000000e+02
1.062500e+02
1.125000e+02
1.187500e+02
1.250000e+02
1.312500e+02
1.375000e+02
1.437500e+02
1.500000e+02
1.562500e+02
1.625000e+02
1.687500e+02
1.750000e+02
1.812500e+02
1.875000e+02
1.937500e+02
2.000000e+02
0.000000e+00
6.250000e+00
1.250000e+01
1.875000e+01
2.500000e+01
3.125000e+01
3.750000e+01
4.375000e+01
5.000000e+01
5.625000e+01
6.250000e+01
6.875000e+01
7.500000e+01
8.125000e+01
8.750000e+01
9.375000e+01
1.000000e+02
1.062500e+02
1.125000e+02
1.187500e+02
1.250000e+02
1.312500e+02
1.375000e+02
1.437500e+02
1.500000e+02
1.562500e+02
1.625000e+02
1.687500e+02
1.750000e+02
1.812500e+02
1.875000e+02
1.937500e+02
2.000000e+02
0.000000e+00
6.250000e+00
1.250000e+01
1.875000e+01
2.500000e+01
3.125000e+01
3.750000e+01
4.375000e+01
5.000000e+01
5.625000e+01
6.250000e+01
6.875000e+01
7.500000e+01
8.125000e+01
8.750000e+01
9.375000e+01
1.000000e+02
1.062500e+02
1.125000e+02
1.187500e+02
1.250000e+02
1.312500e+02
1.375000e+02
1.437500e+02
1.500000e+02
1.562500e+02
1.625000e+02
1.687500e+02
1.750000e+02
1.812500e+02
1.875000e+02
1.937500e+02
2.000000e+02
0.000000e+00
6.250000e+00
1.250000e+01
1.875000e+01
2.500000e+01
3.125000e+01
3.750000e+01
4.375000e+01
5.000000e+01
5.625000e+01
6.250000e+01
6.875000e+01
7.500000e+01
8.125000e+01
8.750000e+01
9.375000e+01
1.000000e+02
1.062500e+02
1.125000e+02
1.187500e+02
1.250000e+02
1.312500e+02
1.375000e+02
1.437500e+02
1.500000e+02
1.562500e+02
1.625000e+02
1.687500e+02
1.750000e+02
1.812500e+02
1.875000e+02
1.937500e+02
2.000000e+02
0.000000e+00
6.250000e+00
1.250000e+01
1.875000e+01
2.500000e+01
3.125000e+01
3.750000e+01
4.375000e+01
5.000000e+01
5.625000e+01
6.250000e+01
6.875000e+01
7.500000e+01
8.125000e+01
8.750000e+01
9.375000e+01
1.000000e+02
1.062500e+02
1.125000e+02
1.187500e+02
1.250000e+02
1.312500e+02
1.375000e+02
1.437500e+02
1.500000e+02
1.562500e+02
1.625000e+02
1.687500e+02
1.750000e+02
1.812500e+02
1.875000e+02
1.937500e+02
2.000000e+02
0.000000e+00
6.250000e+00
1.250000e+01
1.875000e+01
2.500000e+01
3.125000e+01
3.750000e+01
4.375000e+01
5.000000e+01
5.625000e+01
6.250000e+01
6.875000e+01
7.500000e+01
8.125000e+01
8.750000e+01
9.375000e+01
1.000000e+02
1.062500e+02
1.125000e+02
1.187500e+02
1.250000e+02
1.312500e+02
1.375000e+02
1.437500e+02
1.500000e+02
1.562500e+02
1.625000e+02
1.687500e+02
1.750000e+02
1.812500e+02
1.875000e+02
1.937500e+02
2.000000e+02
0.000000e+00
6.250000e+00
1.250000e+01
1.875000e+01
2.500000e+01
3.125000e+01
3.750000e+01
4.375000e+01
5.000000e+01
5.625000e+01
6.250000e+01
6.875000e+01
7.500000e+01
8.125000e+01
8.750000e+01
9.375000e+01
1.000000e+02
1.062500e+02
1.125000e+02
1.187500e+02
1.250000e+02
1.312500e+02
1.375000e+02
1.437500e+02
1.500000e+02
1.562500e+02
1.625000e+02
1.687500e+02
1.750000e+02
1.812500e+02
1.875000e+02
1.937500e+02
2.000000e+02
0.000000e+00
0.000000e+00
0.000000e+00
0.000000e+00
0.000000e+00
0.000000e+00
0.000000e+00
0.000000e+00
0.000000e+00
0.000000e+00
0.000000e+00
0.000000e+00
0.000000e+00
0.000000e+00
0.000000e+00
0.000000e+00
0.000000e+00
0.000000e+00
0.000000e+00
0.000000e+00
0.000000e+00
0.000000e+00
0.000000e+00
0.000000e+00
0.000000e+00
0.000000e+00
0.000000e+00
0.000000e+00
0.000000e+00
0.000000e+00
0.000000e+00
0.000000e+00
0.000000e+00
6.250000e+00
6.250000e+00
6.250000e+00
6.250000e+00
6.250000e+00
6.250000e+00
6.250000e+00
6.250000e+00
6.250000e+00
6.250000e+00
6.250000e+00
6.250000e+00
6.250000e+00
6.250000e+00
6.250000e+00
6.250000e+00
6.250000e+00
6.250000e+00
6.250000e+00
6.250000e+00
6.250000e+00
6.250000e+00
6.250000e+00
6.250000e+00
6.250000e+00
6.250000e+00
6.250000e+00
6.250000e+00
6.250000e+00
6.250000e+00
6.250000e+00
6.250000e+00
6.250000e+00
1.250000e+01
1.250000e+01
1.250000e+01
1.250000e+01
1.250000e+01
1.250000e+01
1.250000e+01
1.250000e+01
1.250000e+01
1.250000e+01
1.250000e+01
1.250000e+01
1.250000e+01
1.250000e+01
1.250000e+01
1.250000e+01
1.250000e+01
1.250000e+01
1.250000e+01
1.250000e+01
1.250000e+01
1.250000e+01
1.250000e+01
1.250000e+01
1.250000e+01
1.250000e+01
1.250000e+01
1.250000e+01
1.250000e+01
1.250000e+01
1.250000e+01
1.250000e+01
1.250000e+01
1.875000e+01
1.875000e+01
1.875000e+01
1.875000e+01
1.875000e+01
1.875000e+01
1.875000e+01
1.875000e+01
1.875000e+01
1.875000e+01
1.875000e+01
1.875000e+01
1.875000e+01
1.875000e+01
1.875000e+01
1.875000e+01
1.875000e+01
1.875000e+01
1.875000e+01
1.875000e+01
1.875000e+01
1.875000e+01
1.875000e+01
1.875000e+01
1.875000e+01
1.875000e+01
1.875000e+01
1.875000e+01
1.875000e+01
1.875000e+01
1.875000e+01
1.875000e+01
1.875000e+01
2.500000e+01
2.500000e+01
2.500000e+01
2.500000e+01
2.500000e+01
2.500000e+01
2.500000e+01
2.500000e+01
2.500000e+01
2.500000e+01
2.500000e+01
2.500000e+01
2.500000e+01
2.500000e+01
2.500000e+01
2.500000e+01
2.500000e+01
2.500000e+01
2.500000e+01
2.500000e+01
2.500000e+01
2.500000e+01
2.500000e+01
2.500000e+01
2.500000e+01
2.500000e+01
2.500000e+01
2.500000e+01
2.500000e+01
2.500000e+01
2.500000e+01
2.500000e+01
2.500000e+01
3.125000e+01
3.125000e+01
3.125000e+01
3.125000e+01
3.125000e+01
3.125000e+01
3.125000e+01
3.125000e+01
3.125000e+01
3.125000e+01
3.125000e+01
3.125000e+01
3.125000e+01
3.125000e+01
3.125000e+01
3.125000e+01
3.125000e+01
3.125000e+01
3.125000e+01
3.125000e+01
3.125000e+01
3.125000e+01
3.125000e+01
3.125000e+01
3.125000e+01
3.125000e+01
3.125000e+01
3.125000e+01
3.125000e+01
3.125000e+01
3.125000e+01
3.125000e+01
3.125000e+01
3.750000e+01
3.750000e+01
3.750000e+01
3.750000e+01
3.750000e+01
3.750000e+01
3.750000e+01
3.750000e+01
3.750000e+01
3.750000e+01
3.750000e+01
3.750000e+01
3.750000e+01
3.750000e+01
3.750000e+01
3.750000e+01
3.750000e+01
3.750000e+01
3.750000e+01
3.750000e+01
3.750000e+01
3.750000e+01
3.750000e+01
3.750000e+01
3.750000e+01
3.750000e+01
3.750000e+01
3.750000e+01
3.750000e+01
3.750000e+01
3.750000e+01
3.750000e+01
3.750000e+01
4.375000e+01
4.375000e+01
4.375000e+01
4.375000e+01
4.375000e+01
4.375000e+01
4.375000e+01
4.375000e+01
4.375000e+01
4.375000e+01
4.375000e+01
4.375000e+01
4.375000e+01
4.375000e+01
4.375000e+01
4.375000e+01
4.375000e+01
4.375000e+01
4.375000e+01
4.375000e+01
4.375000e+01
4.375000e+01
4.375000e+01
4.375000e+01
4.375000e+01
4.375000e+01
4.375000e+01
4.375000e+01
4.375000e+01
4.375000e+01
4.375000e+01
4.375000e+01
4.375000e+01
5.000000e+01
5.000000e+01
5.000000e+01
5.000000e+01
5.000000e+01
5.000000e+01
5.000000e+01
5.000000e+01
5.000000e+01
5.000000e+01
5.000000e+01
5.000000e+01
5.000000e+01
5.000000e+01
5.000000e+01
5.000000e+01
5.000000e+01
5.000000e+01
5.000000e+01
5.000000e+01
5.000000e+01
5.000000e+01
5.000000e+01
5.000000e+01
5.000000e+01
5.000000e+01
5.000000e+01
5.000000e+01
5.000000e+01
5.000000e+01
5.000000e+01
5.000000e+01
5.000000e+01
5.625000e+01
5.625000e+01
5.625000e+01
5.625000e+01
5.625000e+01
5.625000e+01
5.625000e+01
5.625000e+01
5.625000e+01
5.625000e+01
5.625000e+01
5.625000e+01
5.625000e+01
5.625000e+01
5.625000e+01
5.625000e+01
5.625000e+01
5.625000e+01
5.625000e+01
5.625000e+01
5.625000e+01
5.625000e+01
5.625000e+01
5.625000e+01
5.625000e+01
5.625000e+01
5.625000e+01
5.625000e+01
5.625000e+01
5.625000e+01
5.625000e+01
5.625000e+01
5.625000e+01
6.250000e+01
6.250000e+01
6.250000e+01
6.250000e+01
6.250000e+01
6.250000e+01
6.250000e+01
6.250000e+01
6.250000e+01
6.250000e+01
6.250000e+01
6.250000e+01
6.250000e+01
6.250000e+01
6.250000e+01
6.250000e+01
6.250000e+01
6.250000e+01
6.250000e+01
6.250000e+01
6.250000e+01
6.250000e+01
6.250000e+01
6.250000e+01
6.250000e+01
6.250000e+01
6.250000e+01
6.250000e+01
6.250000e+01
6.250000e+01
6.250000e+01
6.250000e+01
6.250000e+01
6.875000e+01
6.875000e+01
6.875000e+01
6.875000e+01
6.875000e+01
6.875000e+01
6.875000e+01
6.875000e+01
6.875000e+01
6.875000e+01
6.875000e+01
6.875000e+01
6.875000e+01
6.875000e+01
6.875000e+01
6.875000e+01
6.875000e+01
6.875000e+01
6.875000e+01
6.875000e+01
6.875000e+01
6.875000e+01
6.875000e+01
6.875000e+01
6.875000e+01
6.875000e+01
6.875000e+01
6.875000e+01
6.875000e+01
6.875000e+01
6.875000e+01
6.875000e+01
6.875000e+01
7.500000e+01
7.500000e+01
7.500000e+01
7.500000e+01
7.500000e+01
7.500000e+01
7.500000e+01
7.500000e+01
7.500000e+01
7.500000e+01
7.500000e+01
7.500000e+01
7.500000e+01
7.500000e+01
7.500000e+01
7.500000e+01
7.500000e+01
7.500000e+01
7.500000e+01
7.500000e+01
7.500000e+01
7.500000e+01
7.500000e+01
7.500000e+01
7.500000e+01
7.500000e+01
7.500000e+01
7.500000e+01
7.500000e+01
7.500000e+01
7.500000e+01
7.500000e+01
7.500000e+01
8.125000e+01
8.125000e+01
8.125000e+01
8.125000e+01
8.125000e+01
8.125000e+01
8.125000e+01
8.125000e+01
8.125000e+01
8.125000e+01
8.125000e+01
8.125000e+01
8.125000e+01
8.125000e+01
8.125000e+01
8.125000e+01
8.125000e+01
8.125000e+01
8.125000e+01
8.125000e+01
8.125000e+01
8.125000e+01
8.125000e+01
8.125000e+01
8.125000e+01
8.125000e+01
8.125000e+01
8.125000e+01
8.125000e+01
8.125000e+01
8.125000e+01
8.125000e+01
8.125000e+01
8.750000e+01
8.750000e+01
8.750000e+01
8.750000e+01
8.750000e+01
8.750000e+01
8.750000e+01
8.750000e+01
8.750000e+01
8.750000e+01
8.750000e+01
8.750000e+01
8.750000e+01
8.750000e+01
8.750000e+01
8.750000e+01
8.750000e+01
8.750000e+01
8.750000e+01
8.750000e+01
8.750000e+01
8.750000e+01
8.750000e+01
8.750000e+01
8.750000e+01
8.750000e+01
8.750000e+01
8.750000e+01
8.750000e+01
8.750000e+01
8.750000e+01
8.750000e+01
8.750000e+01
9.375000e+01
9.375000e+01
9.375000e+01
9.375000e+01
9.375000e+01
9.375000e+01
9.375000e+01
9.375000e+01
9.375000e+01
9.375000e+01
9.375000e+01
9.375000e+01
9.375000e+01
9.375000e+01
9.375000e+01
9.375000e+01
9.375000e+01
9.375000e+01
9.375000e+01
9.375000e+01
9.375000e+01
9.375000e+01
9.375000e+01
9.375000e+01
9.375000e+01
9.375000e+01
9.375000e+01
9.375000e+01
9.375000e+01
9.375000e+01
9.375000e+01
9.375000e+01
9.375000e+01
1.000000e+02
1.000000e+02
1.000000e+02
1.000000e+02
1.000000e+02
1.000000e+02
1.000000e+02
1.000000e+02
1.000000e+02
1.000000e+02
1.000000e+02
1.000000e+02
1.000000e+02
1.000000e+02
1.000000e+02
1.000000e+02
1.000000e+02
1.000000e+02
1.000000e+02
1.000000e+02
1.000000e+02
1.000000e+02
1.000000e+02
1.000000e+02
1.000000e+02
1.000000e+02
1.000000e+02
1.000000e+02
1.000000e+02
1.000000e+02
1.000000e+02
1.000000e+02
1.000000e+02
0.000000e+00
-3.957227e-02
-7.179863e-02
-1.016518e-01
-1.303024e-01
-1.579689e-01
-1.847069e-01
-2.105140e-01
-2.353739e-01
-2.592685e-01
-2.821829e-01
-3.041067e-01
-3.250346e-01
-3.449662e-01
-3.639060e-01
-3.818642e-01
-3.988568e-01
-4.149071e-01
-4.300474e-01
-4.443213e-01
-4.577868e-01
-4.705207e-01
-4.826243e-01
-4.942324e-01
-5.055252e-01
-5.167477e-01
-5.282403e-01
-5.404882e-01
-5.542035e-01
-5.704338e-01
-5.905384e-01
-6.144975e-01
-6.291195e-01
0.000000e+00
-2.653215e-02
-5.520298e-02
-8.223580e-02
-1.079294e-01
-1.325285e-01
-1.561631e-01
-1.788900e-01
-2.007319e-01
-2.216962e-01
-2.417841e-01
-2.609959e-01
-2.793323e-01
-2.967963e-01
-3.133937e-01
-3.291339e-01
-3.440301e-01
-3.581007e-01
-3.713702e-01
-3.838701e-01
-3.956410e-01
-4.067337e-01
-4.172114e-01
-4.271514e-01
-4.366461e-01
-4.458018e-01
-4.547306e-01
-4.635250e-01
-4.721843e-01
-4.804268e-01
-4.872951e-01
-4.913105e-01
-4.969008e-01
0.000000e+00
-2.104536e-02
-4.332694e-02
-6.601313e-02
-8.805708e-02
-1.092887e-01
-1.296943e-01
-1.492934e-01
-1.681032e-01
-1.861356e-01
-2.033982e-01
-2.198965e-01
-2.356350e-01
-2.506183e-01
-2.648520e-01
-2.783430e-01
-2.911001e-01
-3.031343e-01
-3.144591e-01
-3.250906e-01
-3.350475e-01
-3.443498e-01
-3.530174e-01
-3.610658e-01
-3.684979e-01
-3.752901e-01
-3.813646e-01
-3.865427e-01
-3.904741e-01
-3.925910e-01
-3.924054e-01
-3.912167e-01
-3.977446e-01
0.000000e+00
-1.669763e-02
-3.431744e-02
-5.241959e-02
-7.047931e-02
-8.810159e-02
-1.051355e-01
-1.215269e-01
-1.372612e-01
-1.523377e-01
-1.667603e-01
-1.805338e-01
-1.936629e-01
-2.061517e-01
-2.180039e-01
-2.292229e-01
-2.398116e-01
-2.497729e-01
-2.591087e-01
-2.678196e-01
-2.759034e-01
-2.833527e-01
-2.901509e-01
-2.962664e-01
-3.016428e-01
-3.061851e-01
-3.097430e-01
-3.120992e-01
-3.129988e-01
-3.123310e-01
-3.107090e-01
-3.106121e-01
-3.168316e-01
0.000000e+00
-1.295969e-02
-2.653703e-02
-4.054809e-02
-5.467297e-02
-6.862461e-02
-8.221051e-02
-9.533320e-02
-1.079484e-01
-1.200390e-01
-1.316006e-01
-1.426338e-01
-1.531406e-01
-1.631229e-01
-1.725812e-01
-1.815148e-01
-1.899209e-01
-1.977943e-01
-2.051270e-01
-2.119066e-01
-2.181150e-01
-2.237256e-01
-2.287001e-01
-2.329837e-01
-2.365009e-01
-2.391520e-01
-2.408202e-01
-2.414054e-01
-2.409253e-01
-2.397506e-01
-2.389885e-01
-2.407484e-01
-2.460539e-01
0.000000e+00
-9.524619e-03
-1.945731e-02
-2.970911e-02
-4.010287e-02
-5.044458e-02
-6.058022e-02
-7.040965e-02
-7.987794e-02
-8.895835e-02
-9.763962e-02
-1.059178e-01
-1.137914e-01
-1.212591e-01
-1.283180e-01
-1.349631e-01
-1.411866e-01
-1.469770e-01
-1.523186e-01
-1.571907e-01
-1.615658e-01
-1.654083e-01
-1.686734e-01
-1.713062e-01
-1.732444e-01
-1.744271e-01
-1.748194e-01
-1.744673e-01
-1.735995e-01
-1.727738e-01
-1.729748e-01
-1.752184e-01
-1.796084e-01
0.000000e+00
-6.268344e-03
-1.278463e-02
-1.950763e-02
-2.634148e-02
-3.317114e-02
-3.989361e-02
-4.643383e-02
-5.274480e-02
-5.880061e-02
-6.458815e-02
-7.010083e-02
-7.533443e-02
-8.028461e-02
-8.494537e-02
-8.930821e-02
-9.336134e-02
-9.708919e-02
-1.004718e-01
-1.034841e-01
-1.060961e-01
-1.082721e-01
-1.099727e-01
-1.111578e-01
-1.117945e-01
-1.118735e-01
-1.114382e-01
-1.106326e-01
-1.097632e-01
-1.093418e-01
-1.099993e-01
-1.121837e-01
-1.157273e-01
0.000000e+00
-3.113485e-03
-6.344677e-03
-9.676970e-03
-1.306828e-02
-1.646503e-02
-1.981634e-02
-2.308240e-02
-2.623633e-02
-2.926167e-02
-3.214870e-02
-3.489099e-02
-3.748290e-02
-3.991803e-02
-4.218807e-02
-4.428212e-02
-4.618613e-02
-4.788253e-02
-4.934998e-02
-5.056350e-02
-5.149504e-02
-5.211510e-02
-5.239599e-02
-5.231786e-02
-5.187919e-02
-5.111345e-02
-5.011330e-02
-4.905948e-02
-4.824140e-02
-4.803647e-02
-4.880785e-02
-5.071343e-02
-5.352521e-02
0.000000e+00
-5.023293e-06
-1.089193e-05
-1.728081e-05
-2.385386e-05
-3.015797e-05
-3.551027e-05
-3.887305e-05
-3.870755e-05
-3.279806e-05
-1.803942e-05
9.815581e-06
5.644864e-05
1.293018e-04
2.379210e-04
3.942877e-04
6.130869e-04
9.118293e-04
1.310695e-03
1.831900e-03
2.498285e-03
3.330697e-03
4.343577e-03
5.538023e-03
6.891660e-03
8.345192e-03
9.787332e-03
1.104377e-02
1.188250e-02
1.205259e-02
1.136773e-02
9.816743e-03
7.644504e-03
0.000000e+00
3.104023e-03
6.324120e-03
9.644289e-03
1.302306e-02
1.640769e-02
1.974858e-02
2.300784e-02
2.616145e-02
2.919711e-02
3.211092e-02
3.490441e-02
3.758264e-02
4.015320e-02
4.262581e-02
4.501221e-02
4.732620e-02
4.958347e-02
5.180124e-02
5.399724e-02
5.618786e-02
5.838519e-02
6.059234e-02
6.279706e-02
6.496352e-02
6.702335e-02
6.886872e-02
7.035296e-02
7.130663e-02
7.157662e-02
7.108764e-02
6.990943e-02
6.829720e-02
0.000000e+00
6.260615e-03
1.276772e-02
1.948056e-02
2.630372e-02
3.312282e-02
3.983585e-02
4.636925e-02
5.267832e-02
5.874047e-02
6.454729e-02
7.009866e-02
7.539907e-02
8.045566e-02
8.527730e-02
8.987426e-02
9.425806e-02
9.844119e-02
1.024366e-01
1.062568e-01
1.099115e-01
1.134055e-01
1.167339e-01
1.198776e-01
1.227971e-01
1.254276e-01
1.276776e-01
1.294349e-01
1.305851e-01
1.310450e-01
1.308086e-01
1.299933e-01
1.288681e-01
0.000000e+00
9.519689e-03
1.944632e-02
2.969122e-02
4.007747e-02
5.041143e-02
6.053965e-02
7.036296e-02
7.982782e-02
8.890960e-02
9.760002e-02
1.058993e-01
1.138116e-01
1.213431e-01
1.285009e-01
1.352927e-01
1.417264e-01
1.478101e-01
1.535518e-01
1.589579e-01
1.640323e-01
1.687739e-01
1.731734e-01
1.772100e-01
1.808482e-01
1.840350e-01
1.867017e-01
1.887714e-01
1.901750e-01
1.908783e-01
1.909178e-01
1.904396e-01
1.897284e-01
0.000000e+00
1.295847e-02
2.653397e-02
4.054261e-02
5.466450e-02
6.861267e-02
8.219478e-02
9.531366e-02
1.079254e-01
1.200136e-01
1.315748e-01
1.426108e-01
1.531258e-01
1.631241e-01
1.726098e-01
1.815870e-01
1.900589e-01
1.980283e-01
2.054972e-01
2.124659e-01
2.189323e-01
2.248905e-01
2.303289e-01
2.352289e-01
2.395628e-01
2.432944e-01
2.463808e-01
2.487796e-01
2.504607e-01
2.514265e-01
2.517398e-01
2.515602e-01
2.511856e-01
0.000000e+00
1.670073e-02
3.432374e-02
5.242897e-02
7.049150e-02
8.811624e-02
1.051521e-01
1.215447e-01
1.372787e-01
1.523528e-01
1.667698e-01
1.805329e-01
1.936447e-01
2.061067e-01
2.179190e-01
2.290808e-01
2.395899e-01
2.494430e-01
2.586350e-01
2.671596e-01
2.750081e-01
2.821695e-01
2.886303e-01
2.943742e-01
2.993829e-01
3.036375e-01
3.071221e-01
3.098289e-01
3.117662e-01
3.129701e-01
3.135239e-01
3.135899e-01
3.134656e-01
0.000000e+00
2.105294e-02
4.334311e-02
6.603845e-02
8.809203e-02
1.093337e-01
1.297494e-01
1.493580e-01
1.681755e-01
1.862118e-01
2.034718e-01
2.199569e-01
2.356661e-01
2.505962e-01
2.647426e-01
2.780990e-01
2.906570e-01
3.024065e-01
3.133351e-01
3.234281e-01
3.326689e-01
3.410398e-01
3.485223e-01
3.550998e-01
3.607599e-01
3.654981e-01
3.693230e-01
3.722617e-01
3.743648e-01
3.757119e-01
3.764169e-01
3.766466e-01
3.766740e-01
0.000000e+00
2.654351e-02
5.522782e-02
8.227574e-02
1.079865e-01
1.326046e-01
1.562598e-01
1.790084e-01
2.008714e-01
2.218540e-01
2.419538e-01
2.611653e-01
2.794812e-01
2.968931e-01
3.133912e-01
3.289637e-01
3.435964e-01
3.572721e-01
3.699703e-01
3.816669e-01
3.923351e-01
4.019460e-01
4.104714e-01
4.178867e-01
4.241766e-01
4.293414e-01
4.334056e-01
4.364263e-01
4.385014e-01
4.397728e-01
4.404224e-01
4.406580e-01
4.407156e-01
0.000000e+00
3.958472e-02
7.182767e-02
1.017016e-01
1.303769e-01
1.580722e-01
1.848431e-01
2.106872e-01
2.355872e-01
2.595232e-01
2.824769e-01
3.044322e-01
3.253750e-01
3.452920e-01
3.641693e-01
3.819910e-01
3.987383e-01
4.143879e-01
4.289110e-01
4.422734e-01
4.544347e-01
4.653502e-01
4.749732e-01
4.832593e-01
4.901746e-01
4.957049e-01
4.998699e-01
5.027392e-01
5.044495e-01
5.052201e-01
5.053601e-01
5.052441e-01
5.051788e-01
0.000000e+00
-2.445491e-02
-4.267909e-02
-6.256607e-02
-8.471139e-02
-1.097267e-01
-1.377860e-01
-1.689379e-01
-2.031513e-01
-2.403531e-01
-2.804445e-01
-3.233122e-01
-3.688338e-01
-4.168819e-01
-4.673266e-01
-5.200371e-01
-5.748832e-01
-6.317372e-01
-6.904756e-01
-7.509820e-01
-8.131512e-01
-8.768946e-01
-9.421488e-01
-1.008889e+00
-1.077148e+00
-1.147052e+00
-1.218879e+00
-1.293173e+00
-1.370968e+00
-1.454320e+00
-1.547659e+00
-1.661439e+00
-1.818629e+00
0.000000e+00
-1.519779e-02
-3.427371e-02
-5.429484e-02
-7.674883e-02
-1.020360e-01
-1.303678e-01
-1.617924e-01
-1.962812e-01
-2.337610e-01
-2.741327e-01
-3.172818e-01
-3.630850e-01
-4.114139e-01
-4.621373e-01
-5.151230e-01
-5.702393e-01
-6.273566e-01
-6.863491e-01
-7.470973e-01
-8.094925e-01
-8.734413e-01
-9.388748e-01
-1.005761e+00
-1.074123e+00
-1.144076e+00
-1.215884e+00
-1.290072e+00
-1.367656e+00
-1.450654e+00
-1.543272e+00
-1.654519e+00
-1.801375e+00
0.000000e+00
-1.116366e-02
-2.763130e-02
-4.737931e-02
-6.987253e-02
-9.534600e-02
-1.239015e-01
-1.555655e-01
-1.903000e-01
-2.280281e-01
-2.686491e-01
-3.120475e-01
-3.580996e-01
-4.066765e-01
-4.576464e-01
-5.108767e-01
-5.662352e-01
-6.235913e-01
-6.828183e-01
-7.437961e-01
-8.064147e-01
-8.705802e-01
-9.362233e-01
-1.003313e+00
-1.071875e+00
-1.142032e+00
-1.214059e+00
-1.288494e+00
-1.366341e+00
-1.449417e+00
-1.540830e+00
-1.644251e+00
-1.758975e+00
0.000000e+00
-8.939382e-03
-2.339814e-02
-4.209308e-02
-6.429724e-02
-8.976279e-02
-1.184404e-01
-1.502818e-01
-1.852185e-01
-2.231594e-01
-2.639973e-01
-3.076142e-01
-3.538851e-01
-4.026807e-01
-4.538696e-01
-5.073195e-01
-5.628985e-01
-6.204766e-01
-6.799279e-01
-7.411330e-01
-8.039835e-01
-8.683879e-01
-9.342802e-01
-1.001634e+00
-1.070483e+00
-1.140954e+00
-1.213321e+00
-1.288078e+00
-1.366047e+00
-1.448427e+00
-1.536363e+00
-1.629109e+00
-1.715445e+00
0.000000e+00
-7.564187e-03
-2.062980e-02
-3.833923e-02
-6.003723e-02
-8.533582e-02
-1.140243e-01
-1.459691e-01
-1.810551e-01
-2.191673e-01
-2.601867e-01
-3.039898e-01
-3.504492e-01
-3.994354e-01
-4.508174e-01
-5.044639e-01
-5.602443e-01
-6.180299e-01
-6.776967e-01
-7.391273e-01
-8.022158e-01
-8.668732e-01
-9.330365e-01
-1.000681e+00
-1.069838e+00
-1.140619e+00
-1.213246e+00
-1.288076e+00
-1.365582e+00
-1.446144e+00
-1.529377e+00
-1.612226e+00
-1.687416e+00
0.000000e+00
-6.689138e-03
-1.881342e-02
-3.575600e-02
-5.696556e-02
-8.202718e-02
-1.106532e-01
-1.426390e-01
-1.778232e-01
-2.160639e-01
-2.572271e-01
-3.011820e-01
-3.477983e-01
-3.969458e-01
-4.484942e-01
-5.023134e-01
-5.582744e-01
-6.162508e-01
-6.761202e-01
-7.377673e-01
-8.010875e-01
-8.659925e-01
-9.324174e-01
-1.000330e+00
-1.069742e+00
-1.140722e+00
-1.213392e+00
-1.287912e+00
-1.364366e+00
-1.442498e+00
-1.521116e+00
-1.597412e+00
-1.667146e+00
0.000000e+00
-6.145305e-03
-1.766502e-02
-3.407684e-02
-5.490777e-02
-7.975342e-02
-1.082945e-01
-1.402842e-01
-1.755265e-01
-2.138560e-01
-2.551253e-01
-2.991963e-01
-3.459357e-01
-3.952128e-01
-4.468980e-01
-5.008627e-01
-5.569797e-01
-6.151242e-01
-6.751754e-01
-7.370186e-01
-8.005484e-01
-8.656729e-01
-9.323184e-01
-1.000435e+00
-1.069998e+00
-1.141010e+00
-1.213478e+00
-1.287358e+00
-1.362439e+00
-1.438108e+00
-1.513058e+00
-1.585127e+00
-1.651667e+00
0.000000e+00
-5.846460e-03
-1.702780e-02
-3.313060e-02
-5.372781e-02
-7.842898e-02
-1.069046e-01
-1.388873e-01
-1.741609e-01
-2.125454e-01
-2.538841e-01
-2.980342e-01
-3.448607e-01
-3.942326e-01
-4.460213e-01
-5.000999e-01
-5.563424e-01
-6.146253e-01
-6.748281e-01
-7.368349e-01
-8.005366e-01
-8.658331e-01
-9.326357e-01
-1.000867e+00
-1.070459e+00
-1.141340e+00
-1.213406e+00
-1.286460e+00
-1.360112e+00
-1.433638e+00
-1.505856e+00
-1.575143e+00
-1.639690e+00
0.000000e+00
-5.750174e-03
-1.682221e-02
-3.282392e-02
-5.334324e-02
-7.799551e-02
-1.064492e-01
-1.384315e-01
-1.737200e-01
-2.121302e-01
-2.535028e-01
-2.976940e-01
-3.445689e-01
-3.939975e-01
-4.458526e-01
-5.000081e-01
-5.563396e-01
-6.147237e-01
-6.750389e-01
-7.371663e-01
-8.009904e-01
-8.663994e-01
-9.332847e-01
-1.001538e+00
-1.071045e+00
-1.141667e+00
-1.213211e+00
-1.285384e+00
-1.357718e+00
-1.429502e+00
-1.499736e+00
-1.567180e+00
-1.630511e+00
0.000000e+00
-5.843675e-03
-1.702393e-02
-3.312727e-02
-5.372680e-02
-7.843251e-02
-1.069155e-01
-1.389096e-01
-1.741997e-01
-2.126074e-01
-2.539779e-01
-2.981707e-01
-3.450532e-01
-3.944974e-01
-4.463774e-01
-5.005685e-01
-5.569467e-01
-6.153880e-01
-6.757692e-01
-7.379667e-01
-8.018566e-01
-8.673132e-01
-9.342069e-01
-1.002398e+00
-1.071730e+00
-1.142010e+00
-1.212985e+00
-1.284310e+00
-1.355506e+00
-1.425922e+00
-1.494737e+00
-1.560989e+00
-1.623669e+00
0.000000e+00
-6.139960e-03
-1.765760e-02
-3.407043e-02
-5.490576e-02
-7.976006e-02
-1.083153e-01
-1.403268e-01
-1.756005e-01
-2.139745e-01
-2.553048e-01
-2.994576e-01
-3.463047e-01
-3.957206e-01
-4.475810e-01
-5.017622e-01
-5.581400e-01
-6.165898e-01
-6.769852e-01
-7.391974e-01
-8.030934e-01
-8.685337e-01
-9.353680e-01
-1.003429e+00
-1.072524e+00
-1.142421e+00
-1.212832e+00
-1.283390e+00
-1.353635e+00
-1.422999e+00
-1.490816e+00
-1.556346e+00
-1.618813e+00
0.000000e+00
-6.681709e-03
-1.880311e-02
-3.574704e-02
-5.696266e-02
-8.203626e-02
-1.106821e-01
-1.426981e-01
-1.779263e-01
-2.162290e-01
-2.574775e-01
-3.015470e-01
-3.483141e-01
-3.976560e-01
-4.494500e-01
-5.035728e-01
-5.599000e-01
-6.183056e-01
-6.786601e-01
-7.408294e-01
-8.046720e-01
-8.700356e-01
-9.367520e-01
-1.004631e+00
-1.073454e+00
-1.142960e+00
-1.212842e+00
-1.282731e+00
-1.352199e+00
-1.420760e+00
-1.487889e+00
-1.553034e+00
-1.615630e+00
0.000000e+00
-7.555436e-03
-2.061766e-02
-3.832868e-02
-6.003387e-02
-8.534682e-02
-1.140591e-01
-1.460404e-01
-1.811795e-01
-2.193668e-01
-2.604894e-01
-3.044310e-01
-3.510729e-01
-4.002945e-01
-4.519740e-01
-5.059884e-01
-5.622127e-01
-6.205194e-01
-6.807762e-01
-7.428444e-01
-8.065751e-01
-8.718058e-01
-9.383546e-01
-1.006014e+00
-1.074546e+00
-1.143674e+00
-1.213078e+00
-1.282398e+00
-1.351239e+00
-1.419189e+00
-1.485846e+00
-1.550835e+00
-1.613808e+00
0.000000e+00
-8.930388e-03
-2.338568e-02
-4.208235e-02
-6.429435e-02
-8.977570e-02
-1.184797e-01
-1.503614e-01
-1.853569e-01
-2.233808e-01
-2.643328e-01
-3.081029e-01
-3.545753e-01
-4.036307e-01
-4.551479e-01
-5.090035e-01
-5.650720e-01
-6.232243e-01
-6.833260e-01
-7.452347e-01
-8.087964e-01
-8.738411e-01
-9.401774e-01
-1.007587e+00
-1.075820e+00
-1.144589e+00
-1.213572e+00
-1.282416e+00
-1.350755e+00
-1.418236e+00
-1.484561e+00
-1.549522e+00
-1.613014e+00
0.000000e+00
-1.115582e-02
-2.762039e-02
-4.737025e-02
-6.987167e-02
-9.536171e-02
-1.239448e-01
-1.556511e-01
-1.904471e-01
-2.282617e-01
-2.690013e-01
-3.125587e-01
-3.588195e-01
-4.076647e-01
-4.589729e-01
-5.126204e-01
-5.684808e-01
-6.264238e-01
-6.863134e-01
-7.480047e-01
-8.113406e-01
-8.761465e-01
-9.422262e-01
-1.009356e+00
-1.077279e+00
-1.145706e+00
-1.214315e+00
-1.282762e+00
-1.350700e+00
-1.417819e+00
-1.483895e+00
-1.548862e+00
-1.612875e+00
0.000000e+00
-1.519276e-02
-3.426629e-02
-5.428950e-02
-7.675213e-02
-1.020564e-01
-1.304167e-01
-1.618842e-01
-1.964353e-01
-2.340022e-01
-2.744925e-01
-3.177998e-01
-3.638097e-01
-4.124031e-01
-4.634580e-01
-5.168502e-01
-5.724525e-01
-6.301335e-01
-6.897558e-01
-7.511730e-01
-8.142259e-01
-8.787385e-01
-9.445124e-01
-1.011323e+00
-1.078913e+00
-1.146996e+00
-1.215254e+00
-1.283354e+00
-1.350965e+00
-1.417800e+00
-1.483678e+00
-1.548623e+00
-1.612993e+00
0.000000e+00
-2.445419e-02
-4.267662e-02
-6.256654e-02
-8.472138e-02
-1.097549e-01
-1.378434e-01
-1.690391e-01
-2.033152e-01
-2.406037e-01
-2.808123e-01
-3.238349e-01
-3.695570e-01
-4.178595e-01
-4.686200e-01
-5.217135e-01
-5.770117e-01
-6.343822e-01
-6.936859e-01
-7.547750e-01
-8.174889e-01
-8.816503e-01
-9.470608e-01