TITLE = "Solution"
VARIABLES = x, y, u, v, psiu, psiv, t, stress
ZONE T="structure" N=561 E=512 F=FEBLOCK ET=QUADRILATERAL VARLOCATION=([7,8]=cellcentered)
0.000000e+00
6.250000e+00
1.250000e+01
1.875000e+01
2.500000e+01
3.125000e+01
3.750000e+01
4.375000e+01
5.000000e+01
5.625000e+01
6.250000e+01
6.875000e+01
7.500000e+01
8.125000e+01
8.750000e+01
9.375000e+01
1.000000e+02
1.062500e+02
1.125000e+02
1.187500e+02
1.250000e+02
1.312500e+02
1.375000e+02
1.437500e+02
1.500000e+02
1.562500e+02
1.625000e+02
1.687500e+02
1.750000e+02
1.812500e+02
1.875000e+02
1.937500e+02
2.000000e+02
0.000000e+00
6.250000e+00
1.250000e+01
1.875000e+01
2.500000e+01
3.125000e+01
3.750000e+01
4.375000e+01
5.000000e+01
5.625000e+01
6.250000e+01
6.875000e+01
7.500000e+01
8.125000e+01
8.750000e+01
9.375000e+01
1.000000e+02
1.062500e+02
1.125000e+02
1.187500e+02
1.250000e+02
1.312500e+02
1.375000e+02
1.437500e+02
1.500000e+02
1.562500e+02
1.625000e+02
1.687500e+02
1.750000e+02
1.812500e+02
1.875000e+02
1.937500e+02
2.000000e+02
0.000000e+00
6.250000e+00
1.250000e+01
1.875000e+01
2.500000e+01
3.125000e+01
3.750000e+01
4.375000e+01
5.000000e+01
5.625000e+01
6.250000e+01
6.875000e+01
7.500000e+01
8.125000e+01
8.750000e+01
9.375000e+01
1.000000e+02
1.062500e+02
1.125000e+02
1.187500e+02
1.250000e+02
1.312500e+02
1.375000e+02
1.437500e+02
1.500000e+02
1.562500e+02
1.625000e+02
1.687500e+02
1.750000e+02
1.812500e+02
1.875000e+02
1.937500e+02
2.000000e+02
0.000000e+00
6.250000e+00
1.250000e+01
1.875000e+01
2.500000e+01
3.125000e+01
3.750000e+01
4.375000e+01
5.000000e+01
5.625000e+01
6.250000e+01
6.875000e+01
7.500000e+01
8.125000e+01
8.750000e+01
9.375000e+01
1.000000e+02
1.062500e+02
1.125000e+02
1.187500e+02
1.250000e+02
1.312500e+02
1.375000e+02
1.437500e+02
1.500000e+02
1.562500e+02
1.625000e+02
1.687500e+02
1.750000e+02
1.812500e+02
1.875000e+02
1.937500e+02
2.000000e+02
0.000000e+00
6.250000e+00
1.250000e+01
1.875000e+01
2.500000e+01
3.125000e+01
3.750000e+01
4.375000e+01
5.000000e+01
5.625000e+01
6.250000e+01
6.875000e+01
7.500000e+01
8.125000e+01
8.750000e+01
9.375000e+01
1.000000e+02
1.062500e+02
1.125000e+02
1.187500e+02
1.250000e+02
1.312500e+02
1.375000e+02
1.437500e+02
1.500000e+02
1.562500e+02
1.625000e+02
1.687500e+02
1.750000e+02
1.812500e+02
1.875000e+02
1.937500e+02
2.000000e+02
0.000000e+00
6.250000e+00
1.250000e+01
1.875000e+01
2.500000e+01
3.125000e+01
3.750000e+01
4.375000e+01
5.000000e+01
5.625000e+01
6.250000e+01
6.875000e+01
7.500000e+01
8.125000e+01
8.750000e+01
9.375000e+01
1.000000e+02
1.062500e+02
1.125000e+02
1.187500e+02
1.250000e+02
1.312500e+02
1.375000e+02
1.437500e+02
1.500000e+02
1.562500e+02
1.625000e+02
1.687500e+02
1.750000e+02
1.812500e+02
1.875000e+02
1.937500e+02
2.000000e+02
0.000000e+00
6.250000e+00
1.250000e+01
1.875000e+01
2.500000e+01
3.125000e+01
3.750000e+01
4.375000e+01
5.000000e+01
5.625000e+01
6.250000e+01
6.875000e+01
7.500000e+01
8.125000e+01
8.750000e+01
9.375000e+01
1.000000e+02
1.062500e+02
1.125000e+02
1.187500e+02
1.250000e+02
1.312500e+02
1.375000e+02
1.437500e+02
1.500000e+02
1.562500e+02
1.625000e+02
1.687500e+02
1.750000e+02
1.812500e+02
1.875000e+02
1.937500e+02
2.000000e+02
0.000000e+00
6.250000e+00
1.250000e+01
1.875000e+01
2.500000e+01
3.125000e+01
3.750000e+01
4.375000e+01
5.000000e+01
5.625000e+01
6.250000e+01
6.875000e+01
7.500000e+01
8.125000e+01
8.750000e+01
9.375000e+01
1.000000e+02
1.062500e+02
1.125000e+02
1.187500e+02
1.250000e+02
1.312500e+02
1.375000e+02
1.437500e+02
1.500000e+02
1.562500e+02
1.625000e+02
1.687500e+02
1.750000e+02
1.812500e+02
1.875000e+02
1.937500e+02
2.000000e+02
0.000000e+00
6.250000e+00
1.250000e+01
1.875000e+01
2.500000e+01
3.125000e+01
3.750000e+01
4.375000e+01
5.000000e+01
5.625000e+01
6.250000e+01
6.875000e+01
7.500000e+01
8.125000e+01
8.750000e+01
9.375000e+01
1.000000e+02
1.062500e+02
1.125000e+02
1.187500e+02
1.250000e+02
1.312500e+02
1.375000e+02
1.437500e+02
1.500000e+02
1.562500e+02
1.625000e+02
1.687500e+02
1.750000e+02
1.812500e+02
1.875000e+02
1.937500e+02
2.000000e+02
0.000000e+00
6.250000e+00
1.250000e+01
1.875000e+01
2.500000e+01
3.125000e+01
3.750000e+01
4.375000e+01
5.000000e+01
5.625000e+01
6.250000e+01
6.875000e+01
7.500000e+01
8.125000e+01
8.750000e+01
9.375000e+01
1.000000e+02
1.062500e+02
1.125000e+02
1.187500e+02
1.250000e+02
1.312500e+02
1.375000e+02
1.437500e+02
1.500000e+02
1.562500e+02
1.625000e+02
1.687500e+02
1.750000e+02
1.812500e+02
1.875000e+02
1.937500e+02
2.000000e+02
0.000000e+00
6.250000e+00
1.250000e+01
1.875000e+01
2.500000e+01
3.125000e+01
3.750000e+01
4.375000e+01
5.000000e+01
5.625000e+01
6.250000e+01
6.875000e+01
7.500000e+01
8.125000e+01
8.750000e+01
9.375000e+01
1.000000e+02
1.062500e+02
1.125000e+02
1.187500e+02
1.250000e+02
1.312500e+02
1.375000e+02
1.437500e+02
1.500000e+02
1.562500e+02
1.625000e+02
1.687500e+02
1.750000e+02
1.812500e+02
1.875000e+02
1.937500e+02
2.000000e+02
0.000000e+00
6.250000e+00
1.250000e+01
1.875000e+01
2.500000e+01
3.125000e+01
3.750000e+01
4.375000e+01
5.000000e+01
5.625000e+01
6.250000e+01
6.875000e+01
7.500000e+01
8.125000e+01
8.750000e+01
9.375000e+01
1.000000e+02
1.062500e+02
1.125000e+02
1.187500e+02
1.250000e+02
1.312500e+02
1.375000e+02
1.437500e+02
1.500000e+02
1.562500e+02
1.625000e+02
1.687500e+02
1.750000e+02
1.812500e+02
1.875000e+02
1.937500e+02
2.000000e+02
0.000000e+00
6.250000e+00
1.250000e+01
1.875000e+01
2.500000e+01
3.125000e+01
3.750000e+01
4.375000e+01
5.000000e+01
5.625000e+01
6.250000e+01
6.875000e+01
7.500000e+01
8.125000e+01
8.750000e+01
9.375000e+01
1.000000e+02
1.062500e+02
1.125000e+02
1.187500e+02
1.250000e+02
1.312500e+02
1.375000e+02
1.437500e+02
1.500000e+02
1.562500e+02
1.625000e+02
1.687500e+02
1.750000e+02
1.812500e+02
1.875000e+02
1.937500e+02
2.000000e+02
0.000000e+00
6.250000e+00
1.250000e+01
1.875000e+01
2.500000e+01
3.125000e+01
3.750000e+01
4.375000e+01
5.000000e+01
5.625000e+01
6.250000e+01
6.875000e+01
7.500000e+01
8.125000e+01
8.750000e+01
9.375000e+01
1.000000e+02
1.062500e+02
1.125000e+02
1.187500e+02
1.250000e+02
1.312500e+02
1.375000e+02
1.437500e+02
1.500000e+02
1.562500e+02
1.625000e+02
1.687500e+02
1.750000e+02
1.812500e+02
1.875000e+02
1.937500e+02
2.000000e+02
0.000000e+00
6.250000e+00
1.250000e+01
1.875000e+01
2.500000e+01
3.125000e+01
3.750000e+01
4.375000e+01
5.000000e+01
5.625000e+01
6.250000e+01
6.875000e+01
7.500000e+01
8.125000e+01
8.750000e+01
9.375000e+01
1.000000e+02
1.062500e+02
1.125000e+02
1.187500e+02
1.250000e+02
1.312500e+02
1.375000e+02
1.437500e+02
1.500000e+02
1.562500e+02
1.625000e+02
1.687500e+02
1.750000e+02
1.812500e+02
1.875000e+02
1.937500e+02
2.000000e+02
0.000000e+00
6.250000e+00
1.250000e+01
1.875000e+01
2.500000e+01
3.125000e+01
3.750000e+01
4.375000e+01
5.000000e+01
5.625000e+01
6.250000e+01
6.875000e+01
7.500000e+01
8.125000e+01
8.750000e+01
9.375000e+01
1.000000e+02
1.062500e+02
1.125000e+02
1.187500e+02
1.250000e+02
1.312500e+02
1.375000e+02
1.437500e+02
1.500000e+02
1.562500e+02
1.625000e+02
1.687500e+02
1.750000e+02
1.812500e+02
1.875000e+02
1.937500e+02
2.000000e+02
0.000000e+00
6.250000e+00
1.250000e+01
1.875000e+01
2.500000e+01
3.125000e+01
3.750000e+01
4.375000e+01
5.000000e+01
5.625000e+01
6.250000e+01
6.875000e+01
7.500000e+01
8.125000e+01
8.750000e+01
9.375000e+01
1.000000e+02
1.062500e+02
1.125000e+02
1.187500e+02
1.250000e+02
1.312500e+02
1.375000e+02
1.437500e+02
1.500000e+02
1.562500e+02
1.625000e+02
1.687500e+02
1.750000e+02
1.812500e+02
1.875000e+02
1.937500e+02
2.000000e+02
0.000000e+00
0.000000e+00
0.000000e+00
0.000000e+00
0.000000e+00
0.000000e+00
0.000000e+00
0.000000e+00
0.000000e+00
0.000000e+00
0.000000e+00
0.000000e+00
0.000000e+00
0.000000e+00
0.000000e+00
0.000000e+00
0.000000e+00
0.000000e+00
0.000000e+00
0.000000e+00
0.000000e+00
0.000000e+00
0.000000e+00
0.000000e+00
0.000000e+00
0.000000e+00
0.000000e+00
0.000000e+00
0.000000e+00
0.000000e+00
0.000000e+00
0.000000e+00
0.000000e+00
6.250000e+00
6.250000e+00
6.250000e+00
6.250000e+00
6.250000e+00
6.250000e+00
6.250000e+00
6.250000e+00
6.250000e+00
6.250000e+00
6.250000e+00
6.250000e+00
6.250000e+00
6.250000e+00
6.250000e+00
6.250000e+00
6.250000e+00
6.250000e+00
6.250000e+00
6.250000e+00
6.250000e+00
6.250000e+00
6.250000e+00
6.250000e+00
6.250000e+00
6.250000e+00
6.250000e+00
6.250000e+00
6.250000e+00
6.250000e+00
6.250000e+00
6.250000e+00
6.250000e+00
1.250000e+01
1.250000e+01
1.250000e+01
1.250000e+01
1.250000e+01
1.250000e+01
1.250000e+01
1.250000e+01
1.250000e+01
1.250000e+01
1.250000e+01
1.250000e+01
1.250000e+01
1.250000e+01
1.250000e+01
1.250000e+01
1.250000e+01
1.250000e+01
1.250000e+01
1.250000e+01
1.250000e+01
1.250000e+01
1.250000e+01
1.250000e+01
1.250000e+01
1.250000e+01
1.250000e+01
1.250000e+01
1.250000e+01
1.250000e+01
1.250000e+01
1.250000e+01
1.250000e+01
1.875000e+01
1.875000e+01
1.875000e+01
1.875000e+01
1.875000e+01
1.875000e+01
1.875000e+01
1.875000e+01
1.875000e+01
1.875000e+01
1.875000e+01
1.875000e+01
1.875000e+01
1.875000e+01
1.875000e+01
1.875000e+01
1.875000e+01
1.875000e+01
1.875000e+01
1.875000e+01
1.875000e+01
1.875000e+01
1.875000e+01
1.875000e+01
1.875000e+01
1.875000e+01
1.875000e+01
1.875000e+01
1.875000e+01
1.875000e+01
1.875000e+01
1.875000e+01
1.875000e+01
2.500000e+01
2.500000e+01
2.500000e+01
2.500000e+01
2.500000e+01
2.500000e+01
2.500000e+01
2.500000e+01
2.500000e+01
2.500000e+01
2.500000e+01
2.500000e+01
2.500000e+01
2.500000e+01
2.500000e+01
2.500000e+01
2.500000e+01
2.500000e+01
2.500000e+01
2.500000e+01
2.500000e+01
2.500000e+01
2.500000e+01
2.500000e+01
2.500000e+01
2.500000e+01
2.500000e+01
2.500000e+01
2.500000e+01
2.500000e+01
2.500000e+01
2.500000e+01
2.500000e+01
3.125000e+01
3.125000e+01
3.125000e+01
3.125000e+01
3.125000e+01
3.125000e+01
3.125000e+01
3.125000e+01
3.125000e+01
3.125000e+01
3.125000e+01
3.125000e+01
3.125000e+01
3.125000e+01
3.125000e+01
3.125000e+01
3.125000e+01
3.125000e+01
3.125000e+01
3.125000e+01
3.125000e+01
3.125000e+01
3.125000e+01
3.125000e+01
3.125000e+01
3.125000e+01
3.125000e+01
3.125000e+01
3.125000e+01
3.125000e+01
3.125000e+01
3.125000e+01
3.125000e+01
3.750000e+01
3.750000e+01
3.750000e+01
3.750000e+01
3.750000e+01
3.750000e+01
3.750000e+01
3.750000e+01
3.750000e+01
3.750000e+01
3.750000e+01
3.750000e+01
3.750000e+01
3.750000e+01
3.750000e+01
3.750000e+01
3.750000e+01
3.750000e+01
3.750000e+01
3.750000e+01
3.750000e+01
3.750000e+01
3.750000e+01
3.750000e+01
3.750000e+01
3.750000e+01
3.750000e+01
3.750000e+01
3.750000e+01
3.750000e+01
3.750000e+01
3.750000e+01
3.750000e+01
4.375000e+01
4.375000e+01
4.375000e+01
4.375000e+01
4.375000e+01
4.375000e+01
4.375000e+01
4.375000e+01
4.375000e+01
4.375000e+01
4.375000e+01
4.375000e+01
4.375000e+01
4.375000e+01
4.375000e+01
4.375000e+01
4.375000e+01
4.375000e+01
4.375000e+01
4.375000e+01
4.375000e+01
4.375000e+01
4.375000e+01
4.375000e+01
4.375000e+01
4.375000e+01
4.375000e+01
4.375000e+01
4.375000e+01
4.375000e+01
4.375000e+01
4.375000e+01
4.375000e+01
5.000000e+01
5.000000e+01
5.000000e+01
5.000000e+01
5.000000e+01
5.000000e+01
5.000000e+01
5.000000e+01
5.000000e+01
5.000000e+01
5.000000e+01
5.000000e+01
5.000000e+01
5.000000e+01
5.000000e+01
5.000000e+01
5.000000e+01
5.000000e+01
5.000000e+01
5.000000e+01
5.000000e+01
5.000000e+01
5.000000e+01
5.000000e+01
5.000000e+01
5.000000e+01
5.000000e+01
5.000000e+01
5.000000e+01
5.000000e+01
5.000000e+01
5.000000e+01
5.000000e+01
5.625000e+01
5.625000e+01
5.625000e+01
5.625000e+01
5.625000e+01
5.625000e+01
5.625000e+01
5.625000e+01
5.625000e+01
5.625000e+01
5.625000e+01
5.625000e+01
5.625000e+01
5.625000e+01
5.625000e+01
5.625000e+01
5.625000e+01
5.625000e+01
5.625000e+01
5.625000e+01
5.625000e+01
5.625000e+01
5.625000e+01
5.625000e+01
5.625000e+01
5.625000e+01
5.625000e+01
5.625000e+01
5.625000e+01
5.625000e+01
5.625000e+01
5.625000e+01
5.625000e+01
6.250000e+01
6.250000e+01
6.250000e+01
6.250000e+01
6.250000e+01
6.250000e+01
6.250000e+01
6.250000e+01
6.250000e+01
6.250000e+01
6.250000e+01
6.250000e+01
6.250000e+01
6.250000e+01
6.250000e+01
6.250000e+01
6.250000e+01
6.250000e+01
6.250000e+01
6.250000e+01
6.250000e+01
6.250000e+01
6.250000e+01
6.250000e+01
6.250000e+01
6.250000e+01
6.250000e+01
6.250000e+01
6.250000e+01
6.250000e+01
6.250000e+01
6.250000e+01
6.250000e+01
6.875000e+01
6.875000e+01
6.875000e+01
6.875000e+01
6.875000e+01
6.875000e+01
6.875000e+01
6.875000e+01
6.875000e+01
6.875000e+01
6.875000e+01
6.875000e+01
6.875000e+01
6.875000e+01
6.875000e+01
6.875000e+01
6.875000e+01
6.875000e+01
6.875000e+01
6.875000e+01
6.875000e+01
6.875000e+01
6.875000e+01
6.875000e+01
6.875000e+01
6.875000e+01
6.875000e+01
6.875000e+01
6.875000e+01
6.875000e+01
6.875000e+01
6.875000e+01
6.875000e+01
7.500000e+01
7.500000e+01
7.500000e+01
7.500000e+01
7.500000e+01
7.500000e+01
7.500000e+01
7.500000e+01
7.500000e+01
7.500000e+01
7.500000e+01
7.500000e+01
7.500000e+01
7.500000e+01
7.500000e+01
7.500000e+01
7.500000e+01
7.500000e+01
7.500000e+01
7.500000e+01
7.500000e+01
7.500000e+01
7.500000e+01
7.500000e+01
7.500000e+01
7.500000e+01
7.500000e+01
7.500000e+01
7.500000e+01
7.500000e+01
7.500000e+01
7.500000e+01
7.500000e+01
8.125000e+01
8.125000e+01
8.125000e+01
8.125000e+01
8.125000e+01
8.125000e+01
8.125000e+01
8.125000e+01
8.125000e+01
8.125000e+01
8.125000e+01
8.125000e+01
8.125000e+01
8.125000e+01
8.125000e+01
8.125000e+01
8.125000e+01
8.125000e+01
8.125000e+01
8.125000e+01
8.125000e+01
8.125000e+01
8.125000e+01
8.125000e+01
8.125000e+01
8.125000e+01
8.125000e+01
8.125000e+01
8.125000e+01
8.125000e+01
8.125000e+01
8.125000e+01
8.125000e+01
8.750000e+01
8.750000e+01
8.750000e+01
8.750000e+01
8.750000e+01
8.750000e+01
8.750000e+01
8.750000e+01
8.750000e+01
8.750000e+01
8.750000e+01
8.750000e+01
8.750000e+01
8.750000e+01
8.750000e+01
8.750000e+01
8.750000e+01
8.750000e+01
8.750000e+01
8.750000e+01
8.750000e+01
8.750000e+01
8.750000e+01
8.750000e+01
8.750000e+01
8.750000e+01
8.750000e+01
8.750000e+01
8.750000e+01
8.750000e+01
8.750000e+01
8.750000e+01
8.750000e+01
9.375000e+01
9.375000e+01
9.375000e+01
9.375000e+01
9.375000e+01
9.375000e+01
9.375000e+01
9.375000e+01
9.375000e+01
9.375000e+01
9.375000e+01
9.375000e+01
9.375000e+01
9.375000e+01
9.375000e+01
9.375000e+01
9.375000e+01
9.375000e+01
9.375000e+01
9.375000e+01
9.375000e+01
9.375000e+01
9.375000e+01
9.375000e+01
9.375000e+01
9.375000e+01
9.375000e+01
9.375000e+01
9.375000e+01
9.375000e+01
9.375000e+01
9.375000e+01
9.375000e+01
1.000000e+02
1.000000e+02
1.000000e+02
1.000000e+02
1.000000e+02
1.000000e+02
1.000000e+02
1.000000e+02
1.000000e+02
1.000000e+02
1.000000e+02
1.000000e+02
1.000000e+02
1.000000e+02
1.000000e+02
1.000000e+02
1.000000e+02
1.000000e+02
1.000000e+02
1.000000e+02
1.000000e+02
1.000000e+02
1.000000e+02
1.000000e+02
1.000000e+02
1.000000e+02
1.000000e+02
1.000000e+02
1.000000e+02
1.000000e+02
1.000000e+02
1.000000e+02
1.000000e+02
0.000000e+00
-3.957489e-02
-7.180338e-02
-1.016585e-01
-1.303110e-01
-1.579794e-01
-1.847191e-01
-2.105279e-01
-2.353894e-01
-2.592856e-01
-2.822015e-01
-3.041268e-01
-3.250561e-01
-3.449890e-01
-3.639301e-01
-3.818895e-01
-3.988832e-01
-4.149345e-01
-4.300759e-01
-4.443507e-01
-4.578171e-01
-4.705518e-01
-4.826563e-01
-4.942652e-01
-5.055587e-01
-5.167819e-01
-5.282752e-01
-5.405240e-01
-5.542402e-01
-5.704716e-01
-5.905775e-01
-6.145382e-01
-6.291611e-01
0.000000e+00
-2.653390e-02
-5.520664e-02
-8.224124e-02
-1.079366e-01
-1.325373e-01
-1.561734e-01
-1.789019e-01
-2.007452e-01
-2.217108e-01
-2.418001e-01
-2.610131e-01
-2.793508e-01
-2.968159e-01
-3.134145e-01
-3.291557e-01
-3.440528e-01
-3.581244e-01
-3.713948e-01
-3.838956e-01
-3.956672e-01
-4.067607e-01
-4.172391e-01
-4.271797e-01
-4.366750e-01
-4.458313e-01
-4.547608e-01
-4.635557e-01
-4.722156e-01
-4.804586e-01
-4.873273e-01
-4.913431e-01
-4.969337e-01
0.000000e+00
-2.104676e-02
-4.332981e-02
-6.601750e-02
-8.806291e-02
-1.092959e-01
-1.297029e-01
-1.493033e-01
-1.681143e-01
-1.861479e-01
-2.034117e-01
-2.199111e-01
-2.356506e-01
-2.506349e-01
-2.648696e-01
-2.783615e-01
-2.911194e-01
-3.031544e-01
-3.144799e-01
-3.251121e-01
-3.350697e-01
-3.443726e-01
-3.530408e-01
-3.610897e-01
-3.685223e-01
-3.753150e-01
-3.813899e-01
-3.865683e-01
-3.904999e-01
-3.926170e-01
-3.924314e-01
-3.912426e-01
-3.977709e-01
0.000000e+00
-1.669874e-02
-3.431971e-02
-5.242305e-02
-7.048398e-02
-8.810742e-02
-1.051425e-01
-1.215350e-01
-1.372703e-01
-1.523478e-01
-1.667714e-01
-1.805458e-01
-1.936758e-01
-2.061654e-01
-2.180184e-01
-2.292380e-01
-2.398275e-01
-2.497894e-01
-2.591258e-01
-2.678373e-01
-2.759217e-01
-2.833714e-01
-2.901701e-01
-2.962861e-01
-3.016628e-01
-3.062054e-01
-3.097636e-01
-3.121199e-01
-3.130195e-01
-3.123516e-01
-3.107295e-01
-3.106327e-01
-3.168526e-01
0.000000e+00
-1.296055e-02
-2.653879e-02
-4.055077e-02
-5.467659e-02
-6.862915e-02
-8.221595e-02
-9.533951e-02
-1.079555e-01
-1.200469e-01
-1.316093e-01
-1.426432e-01
-1.531507e-01
-1.631337e-01
-1.725927e-01
-1.815268e-01
-1.899334e-01
-1.978074e-01
-2.051406e-01
-2.119207e-01
-2.181295e-01
-2.237405e-01
-2.287152e-01
-2.329992e-01
-2.365165e-01
-2.391678e-01
-2.408362e-01
-2.414214e-01
-2.409413e-01
-2.397665e-01
-2.390043e-01
-2.407644e-01
-2.460702e-01
0.000000e+00
-9.525249e-03
-1.945860e-02
-2.971107e-02
-4.010552e-02
-5.044792e-02
-6.058422e-02
-7.041431e-02
-7.988323e-02
-8.896424e-02
-9.764609e-02
-1.059248e-01
-1.137989e-01
-1.212671e-01
-1.283265e-01
-1.349720e-01
-1.411959e-01
-1.469867e-01
-1.523287e-01
-1.572012e-01
-1.615765e-01
-1.654192e-01
-1.686845e-01
-1.713176e-01
-1.732559e-01
-1.744386e-01
-1.748310e-01
-1.744789e-01
-1.736110e-01
-1.727852e-01
-1.729863e-01
-1.752301e-01
-1.796203e-01
0.000000e+00
-6.268759e-03
-1.278548e-02
-1.950892e-02
-2.634322e-02
-3.317333e-02
-3.989625e-02
-4.643690e-02
-5.274829e-02
-5.880450e-02
-6.459242e-02
-7.010547e-02
-7.533942e-02
-8.028992e-02
-8.495100e-02
-8.931412e-02
-9.336752e-02
-9.709562e-02
-1.004784e-01
-1.034910e-01
-1.061031e-01
-1.082793e-01
-1.099800e-01
-1.111652e-01
-1.118020e-01
-1.118809e-01
-1.114456e-01
-1.106399e-01
-1.097705e-01
-1.093491e-01
-1.100066e-01
-1.121911e-01
-1.157350e-01
0.000000e+00
-3.113691e-03
-6.345097e-03
-9.677611e-03
-1.306914e-02
-1.646612e-02
-1.981765e-02
-2.308393e-02
-2.623806e-02
-2.926361e-02
-3.215083e-02
-3.489330e-02
-3.748539e-02
-3.992068e-02
-4.219087e-02
-4.428506e-02
-4.618919e-02
-4.788570e-02
-4.935325e-02
-5.056685e-02
-5.149845e-02
-5.211855e-02
-5.239946e-02
-5.232133e-02
-5.188262e-02
-5.111683e-02
-5.011662e-02
-4.906273e-02
-4.824460e-02
-4.803966e-02
-4.881108e-02
-5.071679e-02
-5.352875e-02
0.000000e+00
-5.023628e-06
-1.089266e-05
-1.728196e-05
-2.385544e-05
-3.015998e-05
-3.551263e-05
-3.887563e-05
-3.871013e-05
-3.280025e-05
-1.804063e-05
9.816219e-06
5.645237e-05
1.293104e-04
2.379368e-04
3.943138e-04
6.131276e-04
9.118898e-04
1.310782e-03
1.832021e-03
2.498450e-03
3.330918e-03
4.343865e-03
5.538390e-03
6.892117e-03
8.345745e-03
9.787981e-03
1.104450e-02
1.188329e-02
1.205339e-02
1.136848e-02
9.817395e-03
7.645012e-03
0.000000e+00
3.104229e-03
6.324539e-03
9.644927e-03
1.302392e-02
1.640878e-02
1.974989e-02
2.300936e-02
2.616318e-02
2.919905e-02
3.211305e-02
3.490672e-02
3.758512e-02
4.015586e-02
4.262863e-02
4.501520e-02
4.732933e-02
4.958675e-02
5.180467e-02
5.400081e-02
5.619159e-02
5.838906e-02
6.059635e-02
6.280122e-02
6.496782e-02
6.702779e-02
6.887329e-02
7.035762e-02
7.131135e-02
7.158136e-02
7.109235e-02
6.991406e-02
6.830173e-02
0.000000e+00
6.261029e-03
1.276856e-02
1.948184e-02
2.630546e-02
3.312502e-02
3.983848e-02
4.637231e-02
5.268181e-02
5.874436e-02
6.455156e-02
7.010330e-02
7.540406e-02
8.046098e-02
8.528295e-02
8.988021e-02
9.426430e-02
9.844771e-02
1.024434e-01
1.062638e-01
1.099188e-01
1.134130e-01
1.167416e-01
1.198856e-01
1.228052e-01
1.254359e-01
1.276860e-01
1.294435e-01
1.305938e-01
1.310537e-01
1.308172e-01
1.300019e-01
1.288766e-01
0.000000e+00
9.520319e-03
1.944761e-02
2.969318e-02
4.008012e-02
5.041476e-02
6.054366e-02
7.036762e-02
7.983311e-02
8.891549e-02
9.760648e-02
1.059063e-01
1.138191e-01
1.213511e-01
1.285094e-01
1.353017e-01
1.417358e-01
1.478199e-01
1.535619e-01
1.589684e-01
1.640432e-01
1.687851e-01
1.731848e-01
1.772218e-01
1.808602e-01
1.840472e-01
1.867141e-01
1.887839e-01
1.901876e-01
1.908909e-01
1.909305e-01
1.904522e-01
1.897410e-01
0.000000e+00
1.295932e-02
2.653572e-02
4.054529e-02
5.466812e-02
6.861721e-02
8.220022e-02
9.531997e-02
1.079326e-01
1.200216e-01
1.315835e-01
1.426203e-01
1.531359e-01
1.631349e-01
1.726213e-01
1.815990e-01
1.900715e-01
1.980414e-01
2.055108e-01
2.124800e-01
2.189468e-01
2.249054e-01
2.303442e-01
2.352445e-01
2.395787e-01
2.433105e-01
2.463971e-01
2.487960e-01
2.504773e-01
2.514431e-01
2.517564e-01
2.515769e-01
2.512022e-01
0.000000e+00
1.670184e-02
3.432601e-02
5.243244e-02
7.049617e-02
8.812207e-02
1.051591e-01
1.215527e-01
1.372878e-01
1.523629e-01
1.667808e-01
1.805449e-01
1.936575e-01
2.061203e-01
2.179334e-01
2.290960e-01
2.396058e-01
2.494595e-01
2.586522e-01
2.671773e-01
2.750263e-01
2.821882e-01
2.886495e-01
2.943937e-01
2.994027e-01
3.036576e-01
3.071425e-01
3.098495e-01
3.117868e-01
3.129908e-01
3.135446e-01
3.136107e-01
3.134864e-01
0.000000e+00
2.105433e-02
4.334597e-02
6.604282e-02
8.809786e-02
1.093409e-01
1.297580e-01
1.493679e-01
1.681866e-01
1.862241e-01
2.034853e-01
2.199715e-01
2.356817e-01
2.506128e-01
2.647601e-01
2.781174e-01
2.906763e-01
3.024266e-01
3.133558e-01
3.234495e-01
3.326910e-01
3.410624e-01
3.485454e-01
3.551234e-01
3.607838e-01
3.655223e-01
3.693475e-01
3.722863e-01
3.743896e-01
3.757368e-01
3.764419e-01
3.766715e-01
3.766989e-01
0.000000e+00
2.654527e-02
5.523147e-02
8.228119e-02
1.079936e-01
1.326134e-01
1.562702e-01
1.790202e-01
2.008847e-01
2.218687e-01
2.419698e-01
2.611826e-01
2.794997e-01
2.969128e-01
3.134120e-01
3.289855e-01
3.436192e-01
3.572958e-01
3.699948e-01
3.816922e-01
3.923611e-01
4.019726e-01
4.104986e-01
4.179144e-01
4.242047e-01
4.293699e-01
4.334343e-01
4.364552e-01
4.385304e-01
4.398020e-01
4.404516e-01
4.406872e-01
4.407448e-01
0.000000e+00
3.958734e-02
7.183242e-02
1.017083e-01
1.303855e-01
1.580827e-01
1.848554e-01
2.107011e-01
2.356028e-01
2.595404e-01
2.824956e-01
3.044523e-01
3.253965e-01
3.453149e-01
3.641934e-01
3.820163e-01
3.987647e-01
4.144153e-01
4.289394e-01
4.423026e-01
4.544648e-01
4.653811e-01
4.750046e-01
4.832913e-01
4.902070e-01
4.957377e-01
4.999030e-01
5.027726e-01
5.044829e-01
5.052535e-01
5.053936e-01
5.052776e-01
5.052123e-01
0.000000e+00
-2.445653e-02
-4.268192e-02
-6.257021e-02
-8.471700e-02
-1.097340e-01
-1.377951e-01
-1.689490e-01
-2.031648e-01
-2.403690e-01
-2.804631e-01
-3.233336e-01
-3.688582e-01
-4.169095e-01
-4.673576e-01
-5.200715e-01
-5.749213e-01
-6.317791e-01
-6.905213e-01
-7.510318e-01
-8.132051e-01
-8.769526e-01
-9.422112e-01
-1.008955e+00
-1.077219e+00
-1.147128e+00
-1.218960e+00
-1.293258e+00
-1.371059e+00
-1.454416e+00
-1.547761e+00
-1.661549e+00
-1.818749e+00
0.000000e+00
-1.519880e-02
-3.427598e-02
-5.429843e-02
-7.675391e-02
-1.020427e-01
-1.303765e-01
-1.618031e-01
-1.962942e-01
-2.337765e-01
-2.741509e-01
-3.173028e-01
-3.631091e-01
-4.114411e-01
-4.621679e-01
-5.151571e-01
-5.702771e-01
-6.273982e-01
-6.863945e-01
-7.471468e-01
-8.095461e-01
-8.734992e-01
-9.389370e-01
-1.005827e+00
-1.074194e+00
-1.144152e+00
-1.215964e+00
-1.290158e+00
-1.367746e+00
-1.450750e+00
-1.543374e+00
-1.654628e+00
-1.801494e+00
0.000000e+00
-1.116440e-02
-2.763313e-02
-4.738245e-02
-6.987716e-02
-9.535231e-02
-1.239097e-01
-1.555758e-01
-1.903126e-01
-2.280432e-01
-2.686669e-01
-3.120682e-01
-3.581234e-01
-4.067034e-01
-4.576767e-01
-5.109106e-01
-5.662727e-01
-6.236326e-01
-6.828635e-01
-7.438453e-01
-8.064681e-01
-8.706378e-01
-9.362853e-01
-1.003379e+00
-1.071946e+00
-1.142108e+00
-1.214140e+00
-1.288580e+00
-1.366431e+00
-1.449513e+00
-1.540932e+00
-1.644360e+00
-1.759091e+00
0.000000e+00
-8.939973e-03
-2.339969e-02
-4.209587e-02
-6.430149e-02
-8.976873e-02
-1.184483e-01
-1.502918e-01
-1.852307e-01
-2.231742e-01
-2.640148e-01
-3.076346e-01
-3.539085e-01
-4.027074e-01
-4.538997e-01
-5.073531e-01
-5.629358e-01
-6.205177e-01
-6.799729e-01
-7.411821e-01
-8.040368e-01
-8.684454e-01
-9.343421e-01
-1.001700e+00
-1.070554e+00
-1.141030e+00
-1.213401e+00
-1.288163e+00
-1.366138e+00
-1.448523e+00
-1.536465e+00
-1.629217e+00
-1.715559e+00
0.000000e+00
-7.564688e-03
-2.063116e-02
-3.834177e-02
-6.004120e-02
-8.534147e-02
-1.140318e-01
-1.459788e-01
-1.810670e-01
-2.191818e-01
-2.602040e-01
-3.040099e-01
-3.504724e-01
-3.994618e-01
-4.508473e-01
-5.044973e-01
-5.602814e-01
-6.180709e-01
-6.777416e-01
-7.391763e-01
-8.022689e-01
-8.669306e-01
-9.330983e-01
-1.000747e+00
-1.069909e+00
-1.140695e+00
-1.213326e+00
-1.288162e+00
-1.365673e+00
-1.446240e+00
-1.529478e+00
-1.612333e+00
-1.687527e+00
0.000000e+00
-6.689581e-03
-1.881467e-02
-3.575837e-02
-5.696934e-02
-8.203261e-02
-1.106606e-01
-1.426484e-01
-1.778350e-01
-2.160782e-01
-2.572441e-01
-3.012019e-01
-3.478214e-01
-3.969721e-01
-4.485239e-01
-5.023466e-01
-5.583114e-01
-6.162916e-01
-6.761650e-01
-7.378161e-01
-8.011405e-01
-8.660499e-01
-9.324792e-01
-1.000396e+00
-1.069813e+00
-1.140797e+00
-1.213473e+00
-1.287997e+00
-1.364457e+00
-1.442593e+00
-1.521217e+00
-1.597518e+00
-1.667257e+00
0.000000e+00
-6.145712e-03
-1.766619e-02
-3.407910e-02
-5.491141e-02
-7.975871e-02
-1.083017e-01
-1.402935e-01
-1.755381e-01
-2.138702e-01
-2.551422e-01
-2.992161e-01
-3.459586e-01
-3.952390e-01
-4.469276e-01
-5.008958e-01
-5.570166e-01
-6.151650e-01
-6.752201e-01
-7.370674e-01
-8.006014e-01
-8.657302e-01
-9.323802e-01
-1.000501e+00
-1.070069e+00
-1.141086e+00
-1.213558e+00
-1.287443e+00
-1.362529e+00
-1.438204e+00
-1.513158e+00
-1.585232e+00
-1.651776e+00
0.000000e+00
-5.846848e-03
-1.702892e-02
-3.313280e-02
-5.373137e-02
-7.843418e-02
-1.069116e-01
-1.388965e-01
-1.741724e-01
-2.125595e-01
-2.539010e-01
-2.980540e-01
-3.448835e-01
-3.942587e-01
-4.460509e-01
-5.001330e-01
-5.563792e-01
-6.146660e-01
-6.748728e-01
-7.368837e-01
-8.005896e-01
-8.658905e-01
-9.326975e-01
-1.000934e+00
-1.070530e+00
-1.141416e+00
-1.213486e+00
-1.286545e+00
-1.360202e+00
-1.433733e+00
-1.505956e+00
-1.575247e+00
-1.639798e+00
0.000000e+00
-5.750555e-03
-1.682333e-02
-3.282609e-02
-5.334678e-02
-7.800068e-02
-1.064563e-01
-1.384406e-01
-1.737315e-01
-2.121442e-01
-2.535196e-01
-2.977137e-01
-3.445917e-01
-3.940236e-01
-4.458821e-01
-5.000413e-01
-5.563765e-01
-6.147644e-01
-6.750836e-01
-7.372151e-01
-8.010435e-01
-8.664568e-01
-9.333466e-01
-1.001605e+00
-1.071116e+00
-1.141742e+00
-1.213291e+00
-1.285469e+00
-1.357808e+00
-1.429597e+00
-1.499835e+00
-1.567284e+00
-1.630619e+00
0.000000e+00
-5.844062e-03
-1.702506e-02
-3.312947e-02
-5.373036e-02
-7.843771e-02
-1.069226e-01
-1.389188e-01
-1.742112e-01
-2.126215e-01
-2.539947e-01
-2.981904e-01
-3.450760e-01
-3.945235e-01
-4.464070e-01
-5.006017e-01
-5.569835e-01
-6.154288e-01
-6.758140e-01
-7.380156e-01
-8.019097e-01
-8.673707e-01
-9.342688e-01
-1.002465e+00
-1.071801e+00
-1.142085e+00
-1.213065e+00
-1.284395e+00
-1.355595e+00
-1.426017e+00
-1.494836e+00
-1.561093e+00
-1.623777e+00
0.000000e+00
-6.140367e-03
-1.765877e-02
-3.407268e-02
-5.490940e-02
-7.976534e-02
-1.083225e-01
-1.403361e-01
-1.756122e-01
-2.139887e-01
-2.553217e-01
-2.994774e-01
-3.463276e-01
-3.957468e-01
-4.476107e-01
-5.017954e-01
-5.581770e-01
-6.166306e-01
-6.770300e-01
-7.392463e-01
-8.031466e-01
-8.685913e-01
-9.354300e-01
-1.003496e+00
-1.072595e+00
-1.142497e+00
-1.212912e+00
-1.283475e+00
-1.353724e+00
-1.423093e+00
-1.490915e+00
-1.556449e+00
-1.618920e+00
0.000000e+00
-6.682152e-03
-1.880436e-02
-3.574941e-02
-5.696644e-02
-8.204169e-02
-1.106894e-01
-1.427075e-01
-1.779381e-01
-2.162433e-01
-2.574946e-01
-3.015670e-01
-3.483371e-01
-3.976823e-01
-4.494798e-01
-5.036061e-01
-5.599371e-01
-6.183465e-01
-6.787050e-01
-7.408785e-01
-8.047253e-01
-8.700932e-01
-9.368141e-01
-1.004698e+00
-1.073525e+00
-1.143036e+00
-1.212922e+00
-1.282816e+00
-1.352288e+00
-1.420854e+00
-1.487987e+00
-1.553137e+00
-1.615737e+00
0.000000e+00
-7.555936e-03
-2.061903e-02
-3.833121e-02
-6.003784e-02
-8.535247e-02
-1.140666e-01
-1.460501e-01
-1.811915e-01
-2.193813e-01
-2.605066e-01
-3.044512e-01
-3.510961e-01
-4.003210e-01
-4.520040e-01
-5.060219e-01
-5.622500e-01
-6.205605e-01
-6.808213e-01
-7.428936e-01
-8.066286e-01
-8.718636e-01
-9.384167e-01
-1.006081e+00
-1.074618e+00
-1.143750e+00
-1.213158e+00
-1.282483e+00
-1.351328e+00
-1.419283e+00
-1.485944e+00
-1.550937e+00
-1.613915e+00
0.000000e+00
-8.930979e-03
-2.338723e-02
-4.208513e-02
-6.429861e-02
-8.978164e-02
-1.184875e-01
-1.503714e-01
-1.853692e-01
-2.233956e-01
-2.643503e-01
-3.081233e-01
-3.545987e-01
-4.036575e-01
-4.551780e-01
-5.090372e-01
-5.651094e-01
-6.232655e-01
-6.833712e-01
-7.452840e-01
-8.088500e-01
-8.738990e-01
-9.402397e-01
-1.007654e+00
-1.075891e+00
-1.144665e+00
-1.213652e+00
-1.282501e+00
-1.350844e+00
-1.418330e+00
-1.484659e+00
-1.549624e+00
-1.613121e+00
0.000000e+00
-1.115656e-02
-2.762222e-02
-4.737338e-02
-6.987630e-02
-9.536803e-02
-1.239530e-01
-1.556614e-01
-1.904597e-01
-2.282769e-01
-2.690191e-01
-3.125794e-01
-3.588432e-01
-4.076917e-01
-4.590033e-01
-5.126543e-01
-5.685184e-01
-6.264653e-01
-6.863588e-01
-7.480543e-01
-8.113943e-01
-8.762046e-01
-9.422886e-01
-1.009423e+00
-1.077350e+00
-1.145782e+00
-1.214396e+00
-1.282847e+00
-1.350790e+00
-1.417913e+00
-1.483993e+00
-1.548964e+00
-1.612982e+00
0.000000e+00
-1.519376e-02
-3.426856e-02
-5.429310e-02
-7.675721e-02
-1.020632e-01
-1.304253e-01
-1.618949e-01
-1.964483e-01
-2.340176e-01
-2.745106e-01
-3.178208e-01
-3.638338e-01
-4.124304e-01
-4.634887e-01
-5.168845e-01
-5.724904e-01
-6.301752e-01
-6.898014e-01
-7.512227e-01
-8.142799e-01
-8.787967e-01
-9.445750e-01
-1.011390e+00
-1.078984e+00
-1.147072e+00
-1.215335e+00
-1.283439e+00
-1.351054e+00
-1.417894e+00
-1.483777e+00
-1.548726e+00
-1.613100e+00
0.000000e+00
-2.445581e-02
-4.267945e-02
-6.257068e-02
-8.472699e-02
-1.097621e-01
-1.378525e-01
-1.690503e-01
-2.033287e-01
-2.406196e-01
-2.808309e-01
-3.238563e-01
-3.695814e-01
-4.178871e-01
-4.686510e-01
-5.217480e-01
-5.770500e-01
-6.344242e-01
-6.937319e-01
-7.548250e-01
-8.175430e-01
-8.817086e-01
-9.471235e-01