TITLE = "Solution"
VARIABLES = x, y, u, v, psiu, psiv, t, stress
ZONE T="structure" N=561 E=512 F=FEBLOCK ET=QUADRILATERAL VARLOCATION=([7,8]=cellcentered)
0.000000e+00
6.250000e+00
1.250000e+01
1.875000e+01
2.500000e+01
3.125000e+01
3.750000e+01
4.375000e+01
5.000000e+01
5.625000e+01
6.250000e+01
6.875000e+01
7.500000e+01
8.125000e+01
8.750000e+01
9.375000e+01
1.000000e+02
1.062500e+02
1.125000e+02
1.187500e+02
1.250000e+02
1.312500e+02
1.375000e+02
1.437500e+02
1.500000e+02
1.562500e+02
1.625000e+02
1.687500e+02
1.750000e+02
1.812500e+02
1.875000e+02
1.937500e+02
2.000000e+02
0.000000e+00
6.250000e+00
1.250000e+01
1.875000e+01
2.500000e+01
3.125000e+01
3.750000e+01
4.375000e+01
5.000000e+01
5.625000e+01
6.250000e+01
6.875000e+01
7.500000e+01
8.125000e+01
8.750000e+01
9.375000e+01
1.000000e+02
1.062500e+02
1.125000e+02
1.187500e+02
1.250000e+02
1.312500e+02
1.375000e+02
1.437500e+02
1.500000e+02
1.562500e+02
1.625000e+02
1.687500e+02
1.750000e+02
1.812500e+02
1.875000e+02
1.937500e+02
2.000000e+02
0.000000e+00
6.250000e+00
1.250000e+01
1.875000e+01
2.500000e+01
3.125000e+01
3.750000e+01
4.375000e+01
5.000000e+01
5.625000e+01
6.250000e+01
6.875000e+01
7.500000e+01
8.125000e+01
8.750000e+01
9.375000e+01
1.000000e+02
1.062500e+02
1.125000e+02
1.187500e+02
1.250000e+02
1.312500e+02
1.375000e+02
1.437500e+02
1.500000e+02
1.562500e+02
1.625000e+02
1.687500e+02
1.750000e+02
1.812500e+02
1.875000e+02
1.937500e+02
2.000000e+02
0.000000e+00
6.250000e+00
1.250000e+01
1.875000e+01
2.500000e+01
3.125000e+01
3.750000e+01
4.375000e+01
5.000000e+01
5.625000e+01
6.250000e+01
6.875000e+01
7.500000e+01
8.125000e+01
8.750000e+01
9.375000e+01
1.000000e+02
1.062500e+02
1.125000e+02
1.187500e+02
1.250000e+02
1.312500e+02
1.375000e+02
1.437500e+02
1.500000e+02
1.562500e+02
1.625000e+02
1.687500e+02
1.750000e+02
1.812500e+02
1.875000e+02
1.937500e+02
2.000000e+02
0.000000e+00
6.250000e+00
1.250000e+01
1.875000e+01
2.500000e+01
3.125000e+01
3.750000e+01
4.375000e+01
5.000000e+01
5.625000e+01
6.250000e+01
6.875000e+01
7.500000e+01
8.125000e+01
8.750000e+01
9.375000e+01
1.000000e+02
1.062500e+02
1.125000e+02
1.187500e+02
1.250000e+02
1.312500e+02
1.375000e+02
1.437500e+02
1.500000e+02
1.562500e+02
1.625000e+02
1.687500e+02
1.750000e+02
1.812500e+02
1.875000e+02
1.937500e+02
2.000000e+02
0.000000e+00
6.250000e+00
1.250000e+01
1.875000e+01
2.500000e+01
3.125000e+01
3.750000e+01
4.375000e+01
5.000000e+01
5.625000e+01
6.250000e+01
6.875000e+01
7.500000e+01
8.125000e+01
8.750000e+01
9.375000e+01
1.000000e+02
1.062500e+02
1.125000e+02
1.187500e+02
1.250000e+02
1.312500e+02
1.375000e+02
1.437500e+02
1.500000e+02
1.562500e+02
1.625000e+02
1.687500e+02
1.750000e+02
1.812500e+02
1.875000e+02
1.937500e+02
2.000000e+02
0.000000e+00
6.250000e+00
1.250000e+01
1.875000e+01
2.500000e+01
3.125000e+01
3.750000e+01
4.375000e+01
5.000000e+01
5.625000e+01
6.250000e+01
6.875000e+01
7.500000e+01
8.125000e+01
8.750000e+01
9.375000e+01
1.000000e+02
1.062500e+02
1.125000e+02
1.187500e+02
1.250000e+02
1.312500e+02
1.375000e+02
1.437500e+02
1.500000e+02
1.562500e+02
1.625000e+02
1.687500e+02
1.750000e+02
1.812500e+02
1.875000e+02
1.937500e+02
2.000000e+02
0.000000e+00
6.250000e+00
1.250000e+01
1.875000e+01
2.500000e+01
3.125000e+01
3.750000e+01
4.375000e+01
5.000000e+01
5.625000e+01
6.250000e+01
6.875000e+01
7.500000e+01
8.125000e+01
8.750000e+01
9.375000e+01
1.000000e+02
1.062500e+02
1.125000e+02
1.187500e+02
1.250000e+02
1.312500e+02
1.375000e+02
1.437500e+02
1.500000e+02
1.562500e+02
1.625000e+02
1.687500e+02
1.750000e+02
1.812500e+02
1.875000e+02
1.937500e+02
2.000000e+02
0.000000e+00
6.250000e+00
1.250000e+01
1.875000e+01
2.500000e+01
3.125000e+01
3.750000e+01
4.375000e+01
5.000000e+01
5.625000e+01
6.250000e+01
6.875000e+01
7.500000e+01
8.125000e+01
8.750000e+01
9.375000e+01
1.000000e+02
1.062500e+02
1.125000e+02
1.187500e+02
1.250000e+02
1.312500e+02
1.375000e+02
1.437500e+02
1.500000e+02
1.562500e+02
1.625000e+02
1.687500e+02
1.750000e+02
1.812500e+02
1.875000e+02
1.937500e+02
2.000000e+02
0.000000e+00
6.250000e+00
1.250000e+01
1.875000e+01
2.500000e+01
3.125000e+01
3.750000e+01
4.375000e+01
5.000000e+01
5.625000e+01
6.250000e+01
6.875000e+01
7.500000e+01
8.125000e+01
8.750000e+01
9.375000e+01
1.000000e+02
1.062500e+02
1.125000e+02
1.187500e+02
1.250000e+02
1.312500e+02
1.375000e+02
1.437500e+02
1.500000e+02
1.562500e+02
1.625000e+02
1.687500e+02
1.750000e+02
1.812500e+02
1.875000e+02
1.937500e+02
2.000000e+02
0.000000e+00
6.250000e+00
1.250000e+01
1.875000e+01
2.500000e+01
3.125000e+01
3.750000e+01
4.375000e+01
5.000000e+01
5.625000e+01
6.250000e+01
6.875000e+01
7.500000e+01
8.125000e+01
8.750000e+01
9.375000e+01
1.000000e+02
1.062500e+02
1.125000e+02
1.187500e+02
1.250000e+02
1.312500e+02
1.375000e+02
1.437500e+02
1.500000e+02
1.562500e+02
1.625000e+02
1.687500e+02
1.750000e+02
1.812500e+02
1.875000e+02
1.937500e+02
2.000000e+02
0.000000e+00
6.250000e+00
1.250000e+01
1.875000e+01
2.500000e+01
3.125000e+01
3.750000e+01
4.375000e+01
5.000000e+01
5.625000e+01
6.250000e+01
6.875000e+01
7.500000e+01
8.125000e+01
8.750000e+01
9.375000e+01
1.000000e+02
1.062500e+02
1.125000e+02
1.187500e+02
1.250000e+02
1.312500e+02
1.375000e+02
1.437500e+02
1.500000e+02
1.562500e+02
1.625000e+02
1.687500e+02
1.750000e+02
1.812500e+02
1.875000e+02
1.937500e+02
2.000000e+02
0.000000e+00
6.250000e+00
1.250000e+01
1.875000e+01
2.500000e+01
3.125000e+01
3.750000e+01
4.375000e+01
5.000000e+01
5.625000e+01
6.250000e+01
6.875000e+01
7.500000e+01
8.125000e+01
8.750000e+01
9.375000e+01
1.000000e+02
1.062500e+02
1.125000e+02
1.187500e+02
1.250000e+02
1.312500e+02
1.375000e+02
1.437500e+02
1.500000e+02
1.562500e+02
1.625000e+02
1.687500e+02
1.750000e+02
1.812500e+02
1.875000e+02
1.937500e+02
2.000000e+02
0.000000e+00
6.250000e+00
1.250000e+01
1.875000e+01
2.500000e+01
3.125000e+01
3.750000e+01
4.375000e+01
5.000000e+01
5.625000e+01
6.250000e+01
6.875000e+01
7.500000e+01
8.125000e+01
8.750000e+01
9.375000e+01
1.000000e+02
1.062500e+02
1.125000e+02
1.187500e+02
1.250000e+02
1.312500e+02
1.375000e+02
1.437500e+02
1.500000e+02
1.562500e+02
1.625000e+02
1.687500e+02
1.750000e+02
1.812500e+02
1.875000e+02
1.937500e+02
2.000000e+02
0.000000e+00
6.250000e+00
1.250000e+01
1.875000e+01
2.500000e+01
3.125000e+01
3.750000e+01
4.375000e+01
5.000000e+01
5.625000e+01
6.250000e+01
6.875000e+01
7.500000e+01
8.125000e+01
8.750000e+01
9.375000e+01
1.000000e+02
1.062500e+02
1.125000e+02
1.187500e+02
1.250000e+02
1.312500e+02
1.375000e+02
1.437500e+02
1.500000e+02
1.562500e+02
1.625000e+02
1.687500e+02
1.750000e+02
1.812500e+02
1.875000e+02
1.937500e+02
2.000000e+02
0.000000e+00
6.250000e+00
1.250000e+01
1.875000e+01
2.500000e+01
3.125000e+01
3.750000e+01
4.375000e+01
5.000000e+01
5.625000e+01
6.250000e+01
6.875000e+01
7.500000e+01
8.125000e+01
8.750000e+01
9.375000e+01
1.000000e+02
1.062500e+02
1.125000e+02
1.187500e+02
1.250000e+02
1.312500e+02
1.375000e+02
1.437500e+02
1.500000e+02
1.562500e+02
1.625000e+02
1.687500e+02
1.750000e+02
1.812500e+02
1.875000e+02
1.937500e+02
2.000000e+02
0.000000e+00
6.250000e+00
1.250000e+01
1.875000e+01
2.500000e+01
3.125000e+01
3.750000e+01
4.375000e+01
5.000000e+01
5.625000e+01
6.250000e+01
6.875000e+01
7.500000e+01
8.125000e+01
8.750000e+01
9.375000e+01
1.000000e+02
1.062500e+02
1.125000e+02
1.187500e+02
1.250000e+02
1.312500e+02
1.375000e+02
1.437500e+02
1.500000e+02
1.562500e+02
1.625000e+02
1.687500e+02
1.750000e+02
1.812500e+02
1.875000e+02
1.937500e+02
2.000000e+02
0.000000e+00
0.000000e+00
0.000000e+00
0.000000e+00
0.000000e+00
0.000000e+00
0.000000e+00
0.000000e+00
0.000000e+00
0.000000e+00
0.000000e+00
0.000000e+00
0.000000e+00
0.000000e+00
0.000000e+00
0.000000e+00
0.000000e+00
0.000000e+00
0.000000e+00
0.000000e+00
0.000000e+00
0.000000e+00
0.000000e+00
0.000000e+00
0.000000e+00
0.000000e+00
0.000000e+00
0.000000e+00
0.000000e+00
0.000000e+00
0.000000e+00
0.000000e+00
0.000000e+00
6.250000e+00
6.250000e+00
6.250000e+00
6.250000e+00
6.250000e+00
6.250000e+00
6.250000e+00
6.250000e+00
6.250000e+00
6.250000e+00
6.250000e+00
6.250000e+00
6.250000e+00
6.250000e+00
6.250000e+00
6.250000e+00
6.250000e+00
6.250000e+00
6.250000e+00
6.250000e+00
6.250000e+00
6.250000e+00
6.250000e+00
6.250000e+00
6.250000e+00
6.250000e+00
6.250000e+00
6.250000e+00
6.250000e+00
6.250000e+00
6.250000e+00
6.250000e+00
6.250000e+00
1.250000e+01
1.250000e+01
1.250000e+01
1.250000e+01
1.250000e+01
1.250000e+01
1.250000e+01
1.250000e+01
1.250000e+01
1.250000e+01
1.250000e+01
1.250000e+01
1.250000e+01
1.250000e+01
1.250000e+01
1.250000e+01
1.250000e+01
1.250000e+01
1.250000e+01
1.250000e+01
1.250000e+01
1.250000e+01
1.250000e+01
1.250000e+01
1.250000e+01
1.250000e+01
1.250000e+01
1.250000e+01
1.250000e+01
1.250000e+01
1.250000e+01
1.250000e+01
1.250000e+01
1.875000e+01
1.875000e+01
1.875000e+01
1.875000e+01
1.875000e+01
1.875000e+01
1.875000e+01
1.875000e+01
1.875000e+01
1.875000e+01
1.875000e+01
1.875000e+01
1.875000e+01
1.875000e+01
1.875000e+01
1.875000e+01
1.875000e+01
1.875000e+01
1.875000e+01
1.875000e+01
1.875000e+01
1.875000e+01
1.875000e+01
1.875000e+01
1.875000e+01
1.875000e+01
1.875000e+01
1.875000e+01
1.875000e+01
1.875000e+01
1.875000e+01
1.875000e+01
1.875000e+01
2.500000e+01
2.500000e+01
2.500000e+01
2.500000e+01
2.500000e+01
2.500000e+01
2.500000e+01
2.500000e+01
2.500000e+01
2.500000e+01
2.500000e+01
2.500000e+01
2.500000e+01
2.500000e+01
2.500000e+01
2.500000e+01
2.500000e+01
2.500000e+01
2.500000e+01
2.500000e+01
2.500000e+01
2.500000e+01
2.500000e+01
2.500000e+01
2.500000e+01
2.500000e+01
2.500000e+01
2.500000e+01
2.500000e+01
2.500000e+01
2.500000e+01
2.500000e+01
2.500000e+01
3.125000e+01
3.125000e+01
3.125000e+01
3.125000e+01
3.125000e+01
3.125000e+01
3.125000e+01
3.125000e+01
3.125000e+01
3.125000e+01
3.125000e+01
3.125000e+01
3.125000e+01
3.125000e+01
3.125000e+01
3.125000e+01
3.125000e+01
3.125000e+01
3.125000e+01
3.125000e+01
3.125000e+01
3.125000e+01
3.125000e+01
3.125000e+01
3.125000e+01
3.125000e+01
3.125000e+01
3.125000e+01
3.125000e+01
3.125000e+01
3.125000e+01
3.125000e+01
3.125000e+01
3.750000e+01
3.750000e+01
3.750000e+01
3.750000e+01
3.750000e+01
3.750000e+01
3.750000e+01
3.750000e+01
3.750000e+01
3.750000e+01
3.750000e+01
3.750000e+01
3.750000e+01
3.750000e+01
3.750000e+01
3.750000e+01
3.750000e+01
3.750000e+01
3.750000e+01
3.750000e+01
3.750000e+01
3.750000e+01
3.750000e+01
3.750000e+01
3.750000e+01
3.750000e+01
3.750000e+01
3.750000e+01
3.750000e+01
3.750000e+01
3.750000e+01
3.750000e+01
3.750000e+01
4.375000e+01
4.375000e+01
4.375000e+01
4.375000e+01
4.375000e+01
4.375000e+01
4.375000e+01
4.375000e+01
4.375000e+01
4.375000e+01
4.375000e+01
4.375000e+01
4.375000e+01
4.375000e+01
4.375000e+01
4.375000e+01
4.375000e+01
4.375000e+01
4.375000e+01
4.375000e+01
4.375000e+01
4.375000e+01
4.375000e+01
4.375000e+01
4.375000e+01
4.375000e+01
4.375000e+01
4.375000e+01
4.375000e+01
4.375000e+01
4.375000e+01
4.375000e+01
4.375000e+01
5.000000e+01
5.000000e+01
5.000000e+01
5.000000e+01
5.000000e+01
5.000000e+01
5.000000e+01
5.000000e+01
5.000000e+01
5.000000e+01
5.000000e+01
5.000000e+01
5.000000e+01
5.000000e+01
5.000000e+01
5.000000e+01
5.000000e+01
5.000000e+01
5.000000e+01
5.000000e+01
5.000000e+01
5.000000e+01
5.000000e+01
5.000000e+01
5.000000e+01
5.000000e+01
5.000000e+01
5.000000e+01
5.000000e+01
5.000000e+01
5.000000e+01
5.000000e+01
5.000000e+01
5.625000e+01
5.625000e+01
5.625000e+01
5.625000e+01
5.625000e+01
5.625000e+01
5.625000e+01
5.625000e+01
5.625000e+01
5.625000e+01
5.625000e+01
5.625000e+01
5.625000e+01
5.625000e+01
5.625000e+01
5.625000e+01
5.625000e+01
5.625000e+01
5.625000e+01
5.625000e+01
5.625000e+01
5.625000e+01
5.625000e+01
5.625000e+01
5.625000e+01
5.625000e+01
5.625000e+01
5.625000e+01
5.625000e+01
5.625000e+01
5.625000e+01
5.625000e+01
5.625000e+01
6.250000e+01
6.250000e+01
6.250000e+01
6.250000e+01
6.250000e+01
6.250000e+01
6.250000e+01
6.250000e+01
6.250000e+01
6.250000e+01
6.250000e+01
6.250000e+01
6.250000e+01
6.250000e+01
6.250000e+01
6.250000e+01
6.250000e+01
6.250000e+01
6.250000e+01
6.250000e+01
6.250000e+01
6.250000e+01
6.250000e+01
6.250000e+01
6.250000e+01
6.250000e+01
6.250000e+01
6.250000e+01
6.250000e+01
6.250000e+01
6.250000e+01
6.250000e+01
6.250000e+01
6.875000e+01
6.875000e+01
6.875000e+01
6.875000e+01
6.875000e+01
6.875000e+01
6.875000e+01
6.875000e+01
6.875000e+01
6.875000e+01
6.875000e+01
6.875000e+01
6.875000e+01
6.875000e+01
6.875000e+01
6.875000e+01
6.875000e+01
6.875000e+01
6.875000e+01
6.875000e+01
6.875000e+01
6.875000e+01
6.875000e+01
6.875000e+01
6.875000e+01
6.875000e+01
6.875000e+01
6.875000e+01
6.875000e+01
6.875000e+01
6.875000e+01
6.875000e+01
6.875000e+01
7.500000e+01
7.500000e+01
7.500000e+01
7.500000e+01
7.500000e+01
7.500000e+01
7.500000e+01
7.500000e+01
7.500000e+01
7.500000e+01
7.500000e+01
7.500000e+01
7.500000e+01
7.500000e+01
7.500000e+01
7.500000e+01
7.500000e+01
7.500000e+01
7.500000e+01
7.500000e+01
7.500000e+01
7.500000e+01
7.500000e+01
7.500000e+01
7.500000e+01
7.500000e+01
7.500000e+01
7.500000e+01
7.500000e+01
7.500000e+01
7.500000e+01
7.500000e+01
7.500000e+01
8.125000e+01
8.125000e+01
8.125000e+01
8.125000e+01
8.125000e+01
8.125000e+01
8.125000e+01
8.125000e+01
8.125000e+01
8.125000e+01
8.125000e+01
8.125000e+01
8.125000e+01
8.125000e+01
8.125000e+01
8.125000e+01
8.125000e+01
8.125000e+01
8.125000e+01
8.125000e+01
8.125000e+01
8.125000e+01
8.125000e+01
8.125000e+01
8.125000e+01
8.125000e+01
8.125000e+01
8.125000e+01
8.125000e+01
8.125000e+01
8.125000e+01
8.125000e+01
8.125000e+01
8.750000e+01
8.750000e+01
8.750000e+01
8.750000e+01
8.750000e+01
8.750000e+01
8.750000e+01
8.750000e+01
8.750000e+01
8.750000e+01
8.750000e+01
8.750000e+01
8.750000e+01
8.750000e+01
8.750000e+01
8.750000e+01
8.750000e+01
8.750000e+01
8.750000e+01
8.750000e+01
8.750000e+01
8.750000e+01
8.750000e+01
8.750000e+01
8.750000e+01
8.750000e+01
8.750000e+01
8.750000e+01
8.750000e+01
8.750000e+01
8.750000e+01
8.750000e+01
8.750000e+01
9.375000e+01
9.375000e+01
9.375000e+01
9.375000e+01
9.375000e+01
9.375000e+01
9.375000e+01
9.375000e+01
9.375000e+01
9.375000e+01
9.375000e+01
9.375000e+01
9.375000e+01
9.375000e+01
9.375000e+01
9.375000e+01
9.375000e+01
9.375000e+01
9.375000e+01
9.375000e+01
9.375000e+01
9.375000e+01
9.375000e+01
9.375000e+01
9.375000e+01
9.375000e+01
9.375000e+01
9.375000e+01
9.375000e+01
9.375000e+01
9.375000e+01
9.375000e+01
9.375000e+01
1.000000e+02
1.000000e+02
1.000000e+02
1.000000e+02
1.000000e+02
1.000000e+02
1.000000e+02
1.000000e+02
1.000000e+02
1.000000e+02
1.000000e+02
1.000000e+02
1.000000e+02
1.000000e+02
1.000000e+02
1.000000e+02
1.000000e+02
1.000000e+02
1.000000e+02
1.000000e+02
1.000000e+02
1.000000e+02
1.000000e+02
1.000000e+02
1.000000e+02
1.000000e+02
1.000000e+02
1.000000e+02
1.000000e+02
1.000000e+02
1.000000e+02
1.000000e+02
1.000000e+02
0.000000e+00
-3.941057e-02
-7.150525e-02
-1.012364e-01
-1.297700e-01
-1.573234e-01
-1.839520e-01
-2.096536e-01
-2.344118e-01
-2.582086e-01
-2.810293e-01
-3.028634e-01
-3.237057e-01
-3.435557e-01
-3.624181e-01
-3.803027e-01
-3.972257e-01
-4.132103e-01
-4.282887e-01
-4.425041e-01
-4.559145e-01
-4.685962e-01
-4.806503e-01
-4.922109e-01
-5.034574e-01
-5.146339e-01
-5.260794e-01
-5.382772e-01
-5.519363e-01
-5.681002e-01
-5.881225e-01
-6.119836e-01
-6.265457e-01
0.000000e+00
-2.642374e-02
-5.497744e-02
-8.189980e-02
-1.074884e-01
-1.319870e-01
-1.555249e-01
-1.781589e-01
-1.999115e-01
-2.207900e-01
-2.407958e-01
-2.599289e-01
-2.781903e-01
-2.955828e-01
-3.121124e-01
-3.277881e-01
-3.426233e-01
-3.566363e-01
-3.698514e-01
-3.823002e-01
-3.940229e-01
-4.050702e-01
-4.155050e-01
-4.254043e-01
-4.348601e-01
-4.439783e-01
-4.528705e-01
-4.616289e-01
-4.702527e-01
-4.784615e-01
-4.853016e-01
-4.893007e-01
-4.948680e-01
0.000000e+00
-2.095939e-02
-4.314994e-02
-6.574344e-02
-8.769730e-02
-1.088421e-01
-1.291643e-01
-1.486833e-01
-1.674161e-01
-1.853748e-01
-2.025668e-01
-2.189976e-01
-2.346717e-01
-2.495937e-01
-2.637691e-01
-2.772049e-01
-2.899098e-01
-3.018947e-01
-3.131731e-01
-3.237611e-01
-3.336772e-01
-3.429415e-01
-3.515736e-01
-3.595890e-01
-3.669907e-01
-3.737551e-01
-3.798047e-01
-3.849615e-01
-3.888768e-01
-3.909850e-01
-3.908002e-01
-3.896163e-01
-3.961175e-01
0.000000e+00
-1.662941e-02
-3.417724e-02
-5.220543e-02
-7.019135e-02
-8.774160e-02
-1.047059e-01
-1.210303e-01
-1.367002e-01
-1.517151e-01
-1.660787e-01
-1.797959e-01
-1.928712e-01
-2.053089e-01
-2.171126e-01
-2.282856e-01
-2.388310e-01
-2.487515e-01
-2.580491e-01
-2.667244e-01
-2.747751e-01
-2.821938e-01
-2.889642e-01
-2.950547e-01
-3.004090e-01
-3.049328e-01
-3.084761e-01
-3.108226e-01
-3.117185e-01
-3.110534e-01
-3.094380e-01
-3.093416e-01
-3.155356e-01
0.000000e+00
-1.290674e-02
-2.642861e-02
-4.038243e-02
-5.444959e-02
-6.834421e-02
-8.187458e-02
-9.494361e-02
-1.075072e-01
-1.195484e-01
-1.310627e-01
-1.420507e-01
-1.525146e-01
-1.624560e-01
-1.718756e-01
-1.807726e-01
-1.891443e-01
-1.969855e-01
-2.042882e-01
-2.110400e-01
-2.172230e-01
-2.228107e-01
-2.277647e-01
-2.320308e-01
-2.355335e-01
-2.381738e-01
-2.398352e-01
-2.404180e-01
-2.399399e-01
-2.387699e-01
-2.380109e-01
-2.397637e-01
-2.450475e-01
0.000000e+00
-9.485705e-03
-1.937781e-02
-2.958773e-02
-3.993902e-02
-5.023846e-02
-6.033267e-02
-7.012192e-02
-7.955149e-02
-8.859477e-02
-9.724053e-02
-1.054848e-01
-1.133262e-01
-1.207633e-01
-1.277933e-01
-1.344113e-01
-1.406093e-01
-1.463760e-01
-1.516958e-01
-1.565479e-01
-1.609050e-01
-1.647318e-01
-1.679835e-01
-1.706056e-01
-1.725359e-01
-1.737137e-01
-1.741044e-01
-1.737537e-01
-1.728895e-01
-1.720671e-01
-1.722674e-01
-1.745018e-01
-1.788737e-01
0.000000e+00
-6.242733e-03
-1.273240e-02
-1.942793e-02
-2.623385e-02
-3.303560e-02
-3.973059e-02
-4.624408e-02
-5.252924e-02
-5.856028e-02
-6.432415e-02
-6.981428e-02
-7.502647e-02
-7.995639e-02
-8.459808e-02
-8.894306e-02
-9.297960e-02
-9.669219e-02
-1.000609e-01
-1.030610e-01
-1.056622e-01
-1.078293e-01
-1.095230e-01
-1.107032e-01
-1.113373e-01
-1.114160e-01
-1.109824e-01
-1.101801e-01
-1.093143e-01
-1.088947e-01
-1.095494e-01
-1.117249e-01
-1.152540e-01
0.000000e+00
-3.100763e-03
-6.318754e-03
-9.637432e-03
-1.301488e-02
-1.639775e-02
-1.973536e-02
-2.298808e-02
-2.612910e-02
-2.914207e-02
-3.201730e-02
-3.474836e-02
-3.732968e-02
-3.975484e-02
-4.201559e-02
-4.410107e-02
-4.599729e-02
-4.768674e-02
-4.914818e-02
-5.035673e-02
-5.128446e-02
-5.190198e-02
-5.218171e-02
-5.210391e-02
-5.166703e-02
-5.090443e-02
-4.990838e-02
-4.885887e-02
-4.804415e-02
-4.784007e-02
-4.860828e-02
-5.050606e-02
-5.330633e-02
0.000000e+00
-5.002643e-06
-1.084717e-05
-1.720981e-05
-2.375586e-05
-3.003409e-05
-3.536440e-05
-3.871334e-05
-3.854846e-05
-3.266310e-05
-1.796482e-05
9.776184e-06
5.621837e-05
1.287733e-04
2.369478e-04
3.926743e-04
6.105777e-04
9.080969e-04
1.305329e-03
1.824400e-03
2.488056e-03
3.317059e-03
4.325791e-03
5.515345e-03
6.863437e-03
8.311015e-03
9.747247e-03
1.099854e-02
1.183383e-02
1.200322e-02
1.132116e-02
9.776527e-03
7.613185e-03
0.000000e+00
3.091341e-03
6.298282e-03
9.604885e-03
1.296985e-02
1.634065e-02
1.966788e-02
2.291382e-02
2.605453e-02
2.907778e-02
3.197967e-02
3.476173e-02
3.742900e-02
3.998905e-02
4.245154e-02
4.482817e-02
4.713268e-02
4.938072e-02
5.158941e-02
5.377641e-02
5.595807e-02
5.814639e-02
6.034450e-02
6.254020e-02
6.469778e-02
6.674917e-02
6.858699e-02
7.006514e-02
7.101490e-02
7.128379e-02
7.079680e-02
6.962342e-02
6.801780e-02
0.000000e+00
6.235036e-03
1.271555e-02
1.940096e-02
2.619625e-02
3.298748e-02
3.967307e-02
4.617976e-02
5.246303e-02
5.850039e-02
6.428346e-02
6.981212e-02
7.509084e-02
8.012674e-02
8.492865e-02
8.950679e-02
9.387264e-02
9.803865e-02
1.020177e-01
1.058222e-01
1.094620e-01
1.129417e-01
1.162565e-01
1.193873e-01
1.222948e-01
1.249145e-01
1.271553e-01
1.289055e-01
1.300510e-01
1.305090e-01
1.302735e-01
1.294615e-01
1.283409e-01
0.000000e+00
9.480795e-03
1.936688e-02
2.956991e-02
3.991372e-02
5.020545e-02
6.029227e-02
7.007542e-02
7.950158e-02
8.854622e-02
9.720109e-02
1.054664e-01
1.133463e-01
1.208470e-01
1.279756e-01
1.347395e-01
1.411469e-01
1.472057e-01
1.529238e-01
1.583078e-01
1.633615e-01
1.680836e-01
1.724651e-01
1.764852e-01
1.801085e-01
1.832822e-01
1.859381e-01
1.879993e-01
1.893971e-01
1.900975e-01
1.901369e-01
1.896606e-01
1.889524e-01
0.000000e+00
1.290552e-02
2.642556e-02
4.037697e-02
5.444115e-02
6.833232e-02
8.185891e-02
9.492416e-02
1.074843e-01
1.195231e-01
1.310370e-01
1.420279e-01
1.524998e-01
1.624572e-01
1.719041e-01
1.808445e-01
1.892817e-01
1.972185e-01
2.046568e-01
2.115970e-01
2.180369e-01
2.239707e-01
2.293869e-01
2.342668e-01
2.385830e-01
2.422993e-01
2.453730e-01
2.477620e-01
2.494362e-01
2.503980e-01
2.507100e-01
2.505312e-01
2.501581e-01
0.000000e+00
1.663250e-02
3.418352e-02
5.221477e-02
7.020350e-02
8.775620e-02
1.047224e-01
1.210480e-01
1.367177e-01
1.517301e-01
1.660881e-01
1.797949e-01
1.928531e-01
2.052640e-01
2.170280e-01
2.281442e-01
2.386103e-01
2.484230e-01
2.575774e-01
2.660670e-01
2.738834e-01
2.810155e-01
2.874499e-01
2.931702e-01
2.981583e-01
3.023955e-01
3.058659e-01
3.085616e-01
3.104909e-01
3.116899e-01
3.122414e-01
3.123072e-01
3.121834e-01
0.000000e+00
2.096693e-02
4.316604e-02
6.576865e-02
8.773210e-02
1.088869e-01
1.292192e-01
1.487476e-01
1.674881e-01
1.854507e-01
2.026401e-01
2.190578e-01
2.347026e-01
2.495716e-01
2.636602e-01
2.769619e-01
2.894685e-01
3.011699e-01
3.120537e-01
3.221054e-01
3.313084e-01
3.396450e-01
3.470969e-01
3.536474e-01
3.592843e-01
3.640031e-01
3.678124e-01
3.707390e-01
3.728335e-01
3.741751e-01
3.748772e-01
3.751059e-01
3.751332e-01
0.000000e+00
2.643506e-02
5.500218e-02
8.193959e-02
1.075452e-01
1.320627e-01
1.556212e-01
1.782767e-01
2.000504e-01
2.209472e-01
2.409647e-01
2.600976e-01
2.783386e-01
2.956793e-01
3.121098e-01
3.276186e-01
3.421914e-01
3.558111e-01
3.684573e-01
3.801060e-01
3.907305e-01
4.003021e-01
4.087925e-01
4.161775e-01
4.224416e-01
4.275853e-01
4.316328e-01
4.346412e-01
4.367077e-01
4.379740e-01
4.386209e-01
4.388555e-01
4.389129e-01
0.000000e+00
3.942296e-02
7.153417e-02
1.012860e-01
1.298441e-01
1.574262e-01
1.840877e-01
2.098260e-01
2.346242e-01
2.584624e-01
2.813221e-01
3.031876e-01
3.240447e-01
3.438802e-01
3.626802e-01
3.804290e-01
3.971078e-01
4.126933e-01
4.271569e-01
4.404646e-01
4.525761e-01
4.634470e-01
4.730305e-01
4.812827e-01
4.881696e-01
4.936773e-01
4.978253e-01
5.006828e-01
5.023860e-01
5.031535e-01
5.032930e-01
5.031774e-01
5.031124e-01
0.000000e+00
-2.435498e-02
-4.250467e-02
-6.231033e-02
-8.436510e-02
-1.092782e-01
-1.372227e-01
-1.682472e-01
-2.023208e-01
-2.393704e-01
-2.792979e-01
-3.219903e-01
-3.673257e-01
-4.151773e-01
-4.654157e-01
-5.179106e-01
-5.725325e-01
-6.291539e-01
-6.876520e-01
-7.479110e-01
-8.098258e-01
-8.733085e-01
-9.382957e-01
-1.004763e+00
-1.072742e+00
-1.142361e+00
-1.213894e+00
-1.287883e+00
-1.365361e+00
-1.448372e+00
-1.541329e+00
-1.654643e+00
-1.811190e+00
0.000000e+00
-1.513569e-02
-3.413363e-02
-5.407290e-02
-7.643509e-02
-1.016188e-01
-1.298349e-01
-1.611309e-01
-1.954787e-01
-2.328053e-01
-2.730119e-01
-3.159845e-01
-3.616004e-01
-4.097317e-01
-4.602476e-01
-5.130166e-01
-5.679076e-01
-6.247913e-01
-6.835424e-01
-7.440422e-01
-8.061821e-01
-8.698694e-01
-9.350352e-01
-1.001647e+00
-1.069730e+00
-1.139397e+00
-1.210911e+00
-1.284796e+00
-1.362062e+00
-1.444720e+00
-1.536959e+00
-1.647751e+00
-1.794006e+00
0.000000e+00
-1.111804e-02
-2.751836e-02
-4.718563e-02
-6.958689e-02
-9.495621e-02
-1.233950e-01
-1.549295e-01
-1.895220e-01
-2.270958e-01
-2.675507e-01
-3.107717e-01
-3.566355e-01
-4.050136e-01
-4.557751e-01
-5.087878e-01
-5.639198e-01
-6.210413e-01
-6.800261e-01
-7.407544e-01
-8.031169e-01
-8.670199e-01
-9.323945e-01
-9.992093e-01
-1.067491e+00
-1.137362e+00
-1.209094e+00
-1.283224e+00
-1.360752e+00
-1.443489e+00
-1.534528e+00
-1.637525e+00
-1.751780e+00
0.000000e+00
-8.902843e-03
-2.330249e-02
-4.192100e-02
-6.403438e-02
-8.939582e-02
-1.179562e-01
-1.496674e-01
-1.844612e-01
-2.222470e-01
-2.629180e-01
-3.063565e-01
-3.524381e-01
-4.010342e-01
-4.520138e-01
-5.052451e-01
-5.605968e-01
-6.179394e-01
-6.771475e-01
-7.381023e-01
-8.006957e-01
-8.648366e-01
-9.304594e-01
-9.975376e-01
-1.066105e+00
-1.136288e+00
-1.208358e+00
-1.282810e+00
-1.360460e+00
-1.442502e+00
-1.530079e+00
-1.622445e+00
-1.708429e+00
0.000000e+00
-7.533259e-03
-2.054545e-02
-3.818249e-02
-5.979178e-02
-8.498694e-02
-1.135581e-01
-1.453724e-01
-1.803148e-01
-2.182713e-01
-2.591230e-01
-3.027469e-01
-3.490163e-01
-3.978022e-01
-4.489741e-01
-5.024012e-01
-5.579534e-01
-6.155027e-01
-6.749255e-01
-7.361048e-01
-7.989352e-01
-8.633281e-01
-9.292208e-01
-9.965886e-01
-1.065463e+00
-1.135954e+00
-1.208284e+00
-1.282808e+00
-1.359997e+00
-1.440229e+00
-1.523122e+00
-1.605631e+00
-1.680514e+00
0.000000e+00
-6.661779e-03
-1.873649e-02
-3.560980e-02
-5.673266e-02
-8.169182e-02
-1.102008e-01
-1.420558e-01
-1.770962e-01
-2.151805e-01
-2.561754e-01
-2.999506e-01
-3.463763e-01
-3.953228e-01
-4.466604e-01
-5.002594e-01
-5.559916e-01
-6.137309e-01
-6.733554e-01
-7.347503e-01
-7.978115e-01
-8.624511e-01
-9.286042e-01
-9.962390e-01
-1.065368e+00
-1.136056e+00
-1.208430e+00
-1.282644e+00
-1.358786e+00
-1.436598e+00
-1.514894e+00
-1.590878e+00
-1.660327e+00
0.000000e+00
-6.120164e-03
-1.759278e-02
-3.393750e-02
-5.468327e-02
-7.942735e-02
-1.078517e-01
-1.397107e-01
-1.748089e-01
-2.129817e-01
-2.540822e-01
-2.979730e-01
-3.445213e-01
-3.935969e-01
-4.450707e-01
-4.988147e-01
-5.547022e-01
-6.126089e-01
-6.724145e-01
-7.340047e-01
-7.972746e-01
-8.621327e-01
-9.285056e-01
-9.963433e-01
-1.065622e+00
-1.136344e+00
-1.208515e+00
-1.282093e+00
-1.356866e+00
-1.432226e+00
-1.506869e+00
-1.578643e+00
-1.644911e+00
0.000000e+00
-5.822539e-03
-1.695815e-02
-3.299512e-02
-5.350813e-02
-7.810832e-02
-1.064675e-01
-1.383195e-01
-1.734489e-01
-2.116765e-01
-2.528461e-01
-2.968157e-01
-3.434506e-01
-3.926207e-01
-4.441976e-01
-4.980550e-01
-5.540675e-01
-6.121120e-01
-6.720686e-01
-7.338217e-01
-7.972629e-01
-8.622923e-01
-9.288216e-01
-9.967741e-01
-1.066082e+00
-1.136673e+00
-1.208443e+00
-1.281198e+00
-1.354549e+00
-1.427774e+00
-1.499697e+00
-1.568700e+00
-1.632983e+00
0.000000e+00
-5.726645e-03
-1.675341e-02
-3.268969e-02
-5.312513e-02
-7.767662e-02
-1.060140e-01
-1.378655e-01
-1.730097e-01
-2.112629e-01
-2.524663e-01
-2.964768e-01
-3.431601e-01
-3.923866e-01
-4.440296e-01
-4.979636e-01
-5.540647e-01
-6.122100e-01
-6.722785e-01
-7.341518e-01
-7.977149e-01
-8.628563e-01
-9.294680e-01
-9.974424e-01
-1.066665e+00
-1.136997e+00
-1.208249e+00
-1.280127e+00
-1.352165e+00
-1.423655e+00
-1.493602e+00
-1.560770e+00
-1.623841e+00
0.000000e+00
-5.819765e-03
-1.695431e-02
-3.299181e-02
-5.350713e-02
-7.811184e-02
-1.064784e-01
-1.383417e-01
-1.734875e-01
-2.117381e-01
-2.529395e-01
-2.969516e-01
-3.436424e-01
-3.928844e-01
-4.445523e-01
-4.985217e-01
-5.546693e-01
-6.128717e-01
-6.730058e-01
-7.349489e-01
-7.985774e-01
-8.637664e-01
-9.303864e-01
-9.982990e-01
-1.067347e+00
-1.137339e+00
-1.208024e+00
-1.279058e+00
-1.349961e+00
-1.420090e+00
-1.488623e+00
-1.554605e+00
-1.617028e+00
0.000000e+00
-6.114841e-03
-1.758539e-02
-3.393111e-02
-5.468127e-02
-7.943396e-02
-1.078725e-01
-1.397531e-01
-1.748826e-01
-2.130997e-01
-2.542609e-01
-2.982332e-01
-3.448888e-01
-3.941026e-01
-4.457510e-01
-4.997105e-01
-5.558578e-01
-6.140685e-01
-6.742168e-01
-7.361745e-01
-7.998092e-01
-8.649819e-01
-9.315427e-01
-9.993255e-01
-1.068138e+00
-1.137749e+00
-1.207871e+00
-1.278141e+00
-1.348098e+00
-1.417179e+00
-1.484718e+00
-1.549980e+00
-1.612192e+00
0.000000e+00
-6.654381e-03
-1.872622e-02
-3.560088e-02
-5.672977e-02
-8.170086e-02
-1.102296e-01
-1.421147e-01
-1.771989e-01
-2.153450e-01
-2.564248e-01
-3.003141e-01
-3.468899e-01
-3.960301e-01
-4.476123e-01
-5.015137e-01
-5.576106e-01
-6.157772e-01
-6.758849e-01
-7.377999e-01
-8.013814e-01
-8.664776e-01
-9.329211e-01
-1.000523e+00
-1.069064e+00
-1.138286e+00
-1.207881e+00
-1.277484e+00
-1.346668e+00
-1.414949e+00
-1.481803e+00
-1.546682e+00
-1.609021e+00
0.000000e+00
-7.524544e-03
-2.053337e-02
-3.817197e-02
-5.978843e-02
-8.499789e-02
-1.135928e-01
-1.454434e-01
-1.804388e-01
-2.184699e-01
-2.594244e-01
-3.031863e-01
-3.496375e-01
-3.986578e-01
-4.501260e-01
-5.039194e-01
-5.599138e-01
-6.179820e-01
-6.779923e-01
-7.398066e-01
-8.032767e-01
-8.682406e-01
-9.345171e-01
-1.001900e+00
-1.070152e+00
-1.138997e+00
-1.208117e+00
-1.277153e+00
-1.345712e+00
-1.413385e+00
-1.479768e+00
-1.544492e+00
-1.607207e+00
0.000000e+00
-8.893886e-03
-2.329008e-02
-4.191031e-02
-6.403151e-02
-8.940868e-02
-1.179953e-01
-1.497467e-01
-1.845991e-01
-2.224675e-01
-2.632521e-01
-3.068432e-01
-3.531255e-01
-4.019804e-01
-4.532868e-01
-5.069222e-01
-5.627614e-01
-6.206758e-01
-6.805317e-01
-7.421871e-01
-8.054889e-01
-8.702675e-01
-9.363325e-01
-1.003467e+00
-1.071420e+00
-1.139908e+00
-1.208609e+00
-1.277171e+00
-1.345230e+00
-1.412436e+00
-1.478489e+00
-1.543184e+00
-1.606416e+00
0.000000e+00
-1.111023e-02
-2.750749e-02
-4.717661e-02
-6.958604e-02
-9.497186e-02
-1.234381e-01
-1.550148e-01
-1.896685e-01
-2.273285e-01
-2.679015e-01
-3.112808e-01
-3.573523e-01
-4.059978e-01
-4.570962e-01
-5.105243e-01
-5.661562e-01
-6.238622e-01
-6.835069e-01
-7.449459e-01
-8.080226e-01
-8.725635e-01
-9.383729e-01
-1.005228e+00
-1.072873e+00
-1.141020e+00
-1.209349e+00
-1.277515e+00
-1.345176e+00
-1.412020e+00
-1.477826e+00
-1.542527e+00
-1.606278e+00
0.000000e+00
-1.513067e-02
-3.412624e-02
-5.406759e-02
-7.643838e-02
-1.016392e-01
-1.298835e-01
-1.612224e-01
-1.956322e-01
-2.330454e-01
-2.733702e-01
-3.165004e-01
-3.623221e-01
-4.107168e-01
-4.615630e-01
-5.147368e-01
-5.701116e-01
-6.275567e-01
-6.869351e-01
-7.481011e-01
-8.108962e-01
-8.751448e-01
-9.406497e-01
-1.007187e+00
-1.074500e+00
-1.142305e+00
-1.210284e+00
-1.278105e+00
-1.345439e+00
-1.412001e+00
-1.477610e+00
-1.542289e+00
-1.606396e+00
0.000000e+00
-2.435427e-02
-4.250221e-02
-6.231080e-02
-8.437505e-02
-1.093062e-01
-1.372798e-01
-1.683480e-01
-2.024839e-01
-2.396200e-01
-2.796642e-01
-3.225108e-01
-3.680459e-01
-4.161509e-01
-4.667038e-01
-5.195802e-01
-5.746522e-01
-6.317880e-01
-6.908492e-01
-7.516884e-01
-8.141457e-01
-8.780447e-01
-9.431876e-01