TITLE = "Solution"
VARIABLES = x, y, u, v, psiu, psiv, t, stress
ZONE T="structure" N=561 E=512 F=FEBLOCK ET=QUADRILATERAL VARLOCATION=([7,8]=cellcentered)
0.000000e+00
6.250000e+00
1.250000e+01
1.875000e+01
2.500000e+01
3.125000e+01
3.750000e+01
4.375000e+01
5.000000e+01
5.625000e+01
6.250000e+01
6.875000e+01
7.500000e+01
8.125000e+01
8.750000e+01
9.375000e+01
1.000000e+02
1.062500e+02
1.125000e+02
1.187500e+02
1.250000e+02
1.312500e+02
1.375000e+02
1.437500e+02
1.500000e+02
1.562500e+02
1.625000e+02
1.687500e+02
1.750000e+02
1.812500e+02
1.875000e+02
1.937500e+02
2.000000e+02
0.000000e+00
6.250000e+00
1.250000e+01
1.875000e+01
2.500000e+01
3.125000e+01
3.750000e+01
4.375000e+01
5.000000e+01
5.625000e+01
6.250000e+01
6.875000e+01
7.500000e+01
8.125000e+01
8.750000e+01
9.375000e+01
1.000000e+02
1.062500e+02
1.125000e+02
1.187500e+02
1.250000e+02
1.312500e+02
1.375000e+02
1.437500e+02
1.500000e+02
1.562500e+02
1.625000e+02
1.687500e+02
1.750000e+02
1.812500e+02
1.875000e+02
1.937500e+02
2.000000e+02
0.000000e+00
6.250000e+00
1.250000e+01
1.875000e+01
2.500000e+01
3.125000e+01
3.750000e+01
4.375000e+01
5.000000e+01
5.625000e+01
6.250000e+01
6.875000e+01
7.500000e+01
8.125000e+01
8.750000e+01
9.375000e+01
1.000000e+02
1.062500e+02
1.125000e+02
1.187500e+02
1.250000e+02
1.312500e+02
1.375000e+02
1.437500e+02
1.500000e+02
1.562500e+02
1.625000e+02
1.687500e+02
1.750000e+02
1.812500e+02
1.875000e+02
1.937500e+02
2.000000e+02
0.000000e+00
6.250000e+00
1.250000e+01
1.875000e+01
2.500000e+01
3.125000e+01
3.750000e+01
4.375000e+01
5.000000e+01
5.625000e+01
6.250000e+01
6.875000e+01
7.500000e+01
8.125000e+01
8.750000e+01
9.375000e+01
1.000000e+02
1.062500e+02
1.125000e+02
1.187500e+02
1.250000e+02
1.312500e+02
1.375000e+02
1.437500e+02
1.500000e+02
1.562500e+02
1.625000e+02
1.687500e+02
1.750000e+02
1.812500e+02
1.875000e+02
1.937500e+02
2.000000e+02
0.000000e+00
6.250000e+00
1.250000e+01
1.875000e+01
2.500000e+01
3.125000e+01
3.750000e+01
4.375000e+01
5.000000e+01
5.625000e+01
6.250000e+01
6.875000e+01
7.500000e+01
8.125000e+01
8.750000e+01
9.375000e+01
1.000000e+02
1.062500e+02
1.125000e+02
1.187500e+02
1.250000e+02
1.312500e+02
1.375000e+02
1.437500e+02
1.500000e+02
1.562500e+02
1.625000e+02
1.687500e+02
1.750000e+02
1.812500e+02
1.875000e+02
1.937500e+02
2.000000e+02
0.000000e+00
6.250000e+00
1.250000e+01
1.875000e+01
2.500000e+01
3.125000e+01
3.750000e+01
4.375000e+01
5.000000e+01
5.625000e+01
6.250000e+01
6.875000e+01
7.500000e+01
8.125000e+01
8.750000e+01
9.375000e+01
1.000000e+02
1.062500e+02
1.125000e+02
1.187500e+02
1.250000e+02
1.312500e+02
1.375000e+02
1.437500e+02
1.500000e+02
1.562500e+02
1.625000e+02
1.687500e+02
1.750000e+02
1.812500e+02
1.875000e+02
1.937500e+02
2.000000e+02
0.000000e+00
6.250000e+00
1.250000e+01
1.875000e+01
2.500000e+01
3.125000e+01
3.750000e+01
4.375000e+01
5.000000e+01
5.625000e+01
6.250000e+01
6.875000e+01
7.500000e+01
8.125000e+01
8.750000e+01
9.375000e+01
1.000000e+02
1.062500e+02
1.125000e+02
1.187500e+02
1.250000e+02
1.312500e+02
1.375000e+02
1.437500e+02
1.500000e+02
1.562500e+02
1.625000e+02
1.687500e+02
1.750000e+02
1.812500e+02
1.875000e+02
1.937500e+02
2.000000e+02
0.000000e+00
6.250000e+00
1.250000e+01
1.875000e+01
2.500000e+01
3.125000e+01
3.750000e+01
4.375000e+01
5.000000e+01
5.625000e+01
6.250000e+01
6.875000e+01
7.500000e+01
8.125000e+01
8.750000e+01
9.375000e+01
1.000000e+02
1.062500e+02
1.125000e+02
1.187500e+02
1.250000e+02
1.312500e+02
1.375000e+02
1.437500e+02
1.500000e+02
1.562500e+02
1.625000e+02
1.687500e+02
1.750000e+02
1.812500e+02
1.875000e+02
1.937500e+02
2.000000e+02
0.000000e+00
6.250000e+00
1.250000e+01
1.875000e+01
2.500000e+01
3.125000e+01
3.750000e+01
4.375000e+01
5.000000e+01
5.625000e+01
6.250000e+01
6.875000e+01
7.500000e+01
8.125000e+01
8.750000e+01
9.375000e+01
1.000000e+02
1.062500e+02
1.125000e+02
1.187500e+02
1.250000e+02
1.312500e+02
1.375000e+02
1.437500e+02
1.500000e+02
1.562500e+02
1.625000e+02
1.687500e+02
1.750000e+02
1.812500e+02
1.875000e+02
1.937500e+02
2.000000e+02
0.000000e+00
6.250000e+00
1.250000e+01
1.875000e+01
2.500000e+01
3.125000e+01
3.750000e+01
4.375000e+01
5.000000e+01
5.625000e+01
6.250000e+01
6.875000e+01
7.500000e+01
8.125000e+01
8.750000e+01
9.375000e+01
1.000000e+02
1.062500e+02
1.125000e+02
1.187500e+02
1.250000e+02
1.312500e+02
1.375000e+02
1.437500e+02
1.500000e+02
1.562500e+02
1.625000e+02
1.687500e+02
1.750000e+02
1.812500e+02
1.875000e+02
1.937500e+02
2.000000e+02
0.000000e+00
6.250000e+00
1.250000e+01
1.875000e+01
2.500000e+01
3.125000e+01
3.750000e+01
4.375000e+01
5.000000e+01
5.625000e+01
6.250000e+01
6.875000e+01
7.500000e+01
8.125000e+01
8.750000e+01
9.375000e+01
1.000000e+02
1.062500e+02
1.125000e+02
1.187500e+02
1.250000e+02
1.312500e+02
1.375000e+02
1.437500e+02
1.500000e+02
1.562500e+02
1.625000e+02
1.687500e+02
1.750000e+02
1.812500e+02
1.875000e+02
1.937500e+02
2.000000e+02
0.000000e+00
6.250000e+00
1.250000e+01
1.875000e+01
2.500000e+01
3.125000e+01
3.750000e+01
4.375000e+01
5.000000e+01
5.625000e+01
6.250000e+01
6.875000e+01
7.500000e+01
8.125000e+01
8.750000e+01
9.375000e+01
1.000000e+02
1.062500e+02
1.125000e+02
1.187500e+02
1.250000e+02
1.312500e+02
1.375000e+02
1.437500e+02
1.500000e+02
1.562500e+02
1.625000e+02
1.687500e+02
1.750000e+02
1.812500e+02
1.875000e+02
1.937500e+02
2.000000e+02
0.000000e+00
6.250000e+00
1.250000e+01
1.875000e+01
2.500000e+01
3.125000e+01
3.750000e+01
4.375000e+01
5.000000e+01
5.625000e+01
6.250000e+01
6.875000e+01
7.500000e+01
8.125000e+01
8.750000e+01
9.375000e+01
1.000000e+02
1.062500e+02
1.125000e+02
1.187500e+02
1.250000e+02
1.312500e+02
1.375000e+02
1.437500e+02
1.500000e+02
1.562500e+02
1.625000e+02
1.687500e+02
1.750000e+02
1.812500e+02
1.875000e+02
1.937500e+02
2.000000e+02
0.000000e+00
6.250000e+00
1.250000e+01
1.875000e+01
2.500000e+01
3.125000e+01
3.750000e+01
4.375000e+01
5.000000e+01
5.625000e+01
6.250000e+01
6.875000e+01
7.500000e+01
8.125000e+01
8.750000e+01
9.375000e+01
1.000000e+02
1.062500e+02
1.125000e+02
1.187500e+02
1.250000e+02
1.312500e+02
1.375000e+02
1.437500e+02
1.500000e+02
1.562500e+02
1.625000e+02
1.687500e+02
1.750000e+02
1.812500e+02
1.875000e+02
1.937500e+02
2.000000e+02
0.000000e+00
6.250000e+00
1.250000e+01
1.875000e+01
2.500000e+01
3.125000e+01
3.750000e+01
4.375000e+01
5.000000e+01
5.625000e+01
6.250000e+01
6.875000e+01
7.500000e+01
8.125000e+01
8.750000e+01
9.375000e+01
1.000000e+02
1.062500e+02
1.125000e+02
1.187500e+02
1.250000e+02
1.312500e+02
1.375000e+02
1.437500e+02
1.500000e+02
1.562500e+02
1.625000e+02
1.687500e+02
1.750000e+02
1.812500e+02
1.875000e+02
1.937500e+02
2.000000e+02
0.000000e+00
6.250000e+00
1.250000e+01
1.875000e+01
2.500000e+01
3.125000e+01
3.750000e+01
4.375000e+01
5.000000e+01
5.625000e+01
6.250000e+01
6.875000e+01
7.500000e+01
8.125000e+01
8.750000e+01
9.375000e+01
1.000000e+02
1.062500e+02
1.125000e+02
1.187500e+02
1.250000e+02
1.312500e+02
1.375000e+02
1.437500e+02
1.500000e+02
1.562500e+02
1.625000e+02
1.687500e+02
1.750000e+02
1.812500e+02
1.875000e+02
1.937500e+02
2.000000e+02
0.000000e+00
6.250000e+00
1.250000e+01
1.875000e+01
2.500000e+01
3.125000e+01
3.750000e+01
4.375000e+01
5.000000e+01
5.625000e+01
6.250000e+01
6.875000e+01
7.500000e+01
8.125000e+01
8.750000e+01
9.375000e+01
1.000000e+02
1.062500e+02
1.125000e+02
1.187500e+02
1.250000e+02
1.312500e+02
1.375000e+02
1.437500e+02
1.500000e+02
1.562500e+02
1.625000e+02
1.687500e+02
1.750000e+02
1.812500e+02
1.875000e+02
1.937500e+02
2.000000e+02
0.000000e+00
0.000000e+00
0.000000e+00
0.000000e+00
0.000000e+00
0.000000e+00
0.000000e+00
0.000000e+00
0.000000e+00
0.000000e+00
0.000000e+00
0.000000e+00
0.000000e+00
0.000000e+00
0.000000e+00
0.000000e+00
0.000000e+00
0.000000e+00
0.000000e+00
0.000000e+00
0.000000e+00
0.000000e+00
0.000000e+00
0.000000e+00
0.000000e+00
0.000000e+00
0.000000e+00
0.000000e+00
0.000000e+00
0.000000e+00
0.000000e+00
0.000000e+00
0.000000e+00
6.250000e+00
6.250000e+00
6.250000e+00
6.250000e+00
6.250000e+00
6.250000e+00
6.250000e+00
6.250000e+00
6.250000e+00
6.250000e+00
6.250000e+00
6.250000e+00
6.250000e+00
6.250000e+00
6.250000e+00
6.250000e+00
6.250000e+00
6.250000e+00
6.250000e+00
6.250000e+00
6.250000e+00
6.250000e+00
6.250000e+00
6.250000e+00
6.250000e+00
6.250000e+00
6.250000e+00
6.250000e+00
6.250000e+00
6.250000e+00
6.250000e+00
6.250000e+00
6.250000e+00
1.250000e+01
1.250000e+01
1.250000e+01
1.250000e+01
1.250000e+01
1.250000e+01
1.250000e+01
1.250000e+01
1.250000e+01
1.250000e+01
1.250000e+01
1.250000e+01
1.250000e+01
1.250000e+01
1.250000e+01
1.250000e+01
1.250000e+01
1.250000e+01
1.250000e+01
1.250000e+01
1.250000e+01
1.250000e+01
1.250000e+01
1.250000e+01
1.250000e+01
1.250000e+01
1.250000e+01
1.250000e+01
1.250000e+01
1.250000e+01
1.250000e+01
1.250000e+01
1.250000e+01
1.875000e+01
1.875000e+01
1.875000e+01
1.875000e+01
1.875000e+01
1.875000e+01
1.875000e+01
1.875000e+01
1.875000e+01
1.875000e+01
1.875000e+01
1.875000e+01
1.875000e+01
1.875000e+01
1.875000e+01
1.875000e+01
1.875000e+01
1.875000e+01
1.875000e+01
1.875000e+01
1.875000e+01
1.875000e+01
1.875000e+01
1.875000e+01
1.875000e+01
1.875000e+01
1.875000e+01
1.875000e+01
1.875000e+01
1.875000e+01
1.875000e+01
1.875000e+01
1.875000e+01
2.500000e+01
2.500000e+01
2.500000e+01
2.500000e+01
2.500000e+01
2.500000e+01
2.500000e+01
2.500000e+01
2.500000e+01
2.500000e+01
2.500000e+01
2.500000e+01
2.500000e+01
2.500000e+01
2.500000e+01
2.500000e+01
2.500000e+01
2.500000e+01
2.500000e+01
2.500000e+01
2.500000e+01
2.500000e+01
2.500000e+01
2.500000e+01
2.500000e+01
2.500000e+01
2.500000e+01
2.500000e+01
2.500000e+01
2.500000e+01
2.500000e+01
2.500000e+01
2.500000e+01
3.125000e+01
3.125000e+01
3.125000e+01
3.125000e+01
3.125000e+01
3.125000e+01
3.125000e+01
3.125000e+01
3.125000e+01
3.125000e+01
3.125000e+01
3.125000e+01
3.125000e+01
3.125000e+01
3.125000e+01
3.125000e+01
3.125000e+01
3.125000e+01
3.125000e+01
3.125000e+01
3.125000e+01
3.125000e+01
3.125000e+01
3.125000e+01
3.125000e+01
3.125000e+01
3.125000e+01
3.125000e+01
3.125000e+01
3.125000e+01
3.125000e+01
3.125000e+01
3.125000e+01
3.750000e+01
3.750000e+01
3.750000e+01
3.750000e+01
3.750000e+01
3.750000e+01
3.750000e+01
3.750000e+01
3.750000e+01
3.750000e+01
3.750000e+01
3.750000e+01
3.750000e+01
3.750000e+01
3.750000e+01
3.750000e+01
3.750000e+01
3.750000e+01
3.750000e+01
3.750000e+01
3.750000e+01
3.750000e+01
3.750000e+01
3.750000e+01
3.750000e+01
3.750000e+01
3.750000e+01
3.750000e+01
3.750000e+01
3.750000e+01
3.750000e+01
3.750000e+01
3.750000e+01
4.375000e+01
4.375000e+01
4.375000e+01
4.375000e+01
4.375000e+01
4.375000e+01
4.375000e+01
4.375000e+01
4.375000e+01
4.375000e+01
4.375000e+01
4.375000e+01
4.375000e+01
4.375000e+01
4.375000e+01
4.375000e+01
4.375000e+01
4.375000e+01
4.375000e+01
4.375000e+01
4.375000e+01
4.375000e+01
4.375000e+01
4.375000e+01
4.375000e+01
4.375000e+01
4.375000e+01
4.375000e+01
4.375000e+01
4.375000e+01
4.375000e+01
4.375000e+01
4.375000e+01
5.000000e+01
5.000000e+01
5.000000e+01
5.000000e+01
5.000000e+01
5.000000e+01
5.000000e+01
5.000000e+01
5.000000e+01
5.000000e+01
5.000000e+01
5.000000e+01
5.000000e+01
5.000000e+01
5.000000e+01
5.000000e+01
5.000000e+01
5.000000e+01
5.000000e+01
5.000000e+01
5.000000e+01
5.000000e+01
5.000000e+01
5.000000e+01
5.000000e+01
5.000000e+01
5.000000e+01
5.000000e+01
5.000000e+01
5.000000e+01
5.000000e+01
5.000000e+01
5.000000e+01
5.625000e+01
5.625000e+01
5.625000e+01
5.625000e+01
5.625000e+01
5.625000e+01
5.625000e+01
5.625000e+01
5.625000e+01
5.625000e+01
5.625000e+01
5.625000e+01
5.625000e+01
5.625000e+01
5.625000e+01
5.625000e+01
5.625000e+01
5.625000e+01
5.625000e+01
5.625000e+01
5.625000e+01
5.625000e+01
5.625000e+01
5.625000e+01
5.625000e+01
5.625000e+01
5.625000e+01
5.625000e+01
5.625000e+01
5.625000e+01
5.625000e+01
5.625000e+01
5.625000e+01
6.250000e+01
6.250000e+01
6.250000e+01
6.250000e+01
6.250000e+01
6.250000e+01
6.250000e+01
6.250000e+01
6.250000e+01
6.250000e+01
6.250000e+01
6.250000e+01
6.250000e+01
6.250000e+01
6.250000e+01
6.250000e+01
6.250000e+01
6.250000e+01
6.250000e+01
6.250000e+01
6.250000e+01
6.250000e+01
6.250000e+01
6.250000e+01
6.250000e+01
6.250000e+01
6.250000e+01
6.250000e+01
6.250000e+01
6.250000e+01
6.250000e+01
6.250000e+01
6.250000e+01
6.875000e+01
6.875000e+01
6.875000e+01
6.875000e+01
6.875000e+01
6.875000e+01
6.875000e+01
6.875000e+01
6.875000e+01
6.875000e+01
6.875000e+01
6.875000e+01
6.875000e+01
6.875000e+01
6.875000e+01
6.875000e+01
6.875000e+01
6.875000e+01
6.875000e+01
6.875000e+01
6.875000e+01
6.875000e+01
6.875000e+01
6.875000e+01
6.875000e+01
6.875000e+01
6.875000e+01
6.875000e+01
6.875000e+01
6.875000e+01
6.875000e+01
6.875000e+01
6.875000e+01
7.500000e+01
7.500000e+01
7.500000e+01
7.500000e+01
7.500000e+01
7.500000e+01
7.500000e+01
7.500000e+01
7.500000e+01
7.500000e+01
7.500000e+01
7.500000e+01
7.500000e+01
7.500000e+01
7.500000e+01
7.500000e+01
7.500000e+01
7.500000e+01
7.500000e+01
7.500000e+01
7.500000e+01
7.500000e+01
7.500000e+01
7.500000e+01
7.500000e+01
7.500000e+01
7.500000e+01
7.500000e+01
7.500000e+01
7.500000e+01
7.500000e+01
7.500000e+01
7.500000e+01
8.125000e+01
8.125000e+01
8.125000e+01
8.125000e+01
8.125000e+01
8.125000e+01
8.125000e+01
8.125000e+01
8.125000e+01
8.125000e+01
8.125000e+01
8.125000e+01
8.125000e+01
8.125000e+01
8.125000e+01
8.125000e+01
8.125000e+01
8.125000e+01
8.125000e+01
8.125000e+01
8.125000e+01
8.125000e+01
8.125000e+01
8.125000e+01
8.125000e+01
8.125000e+01
8.125000e+01
8.125000e+01
8.125000e+01
8.125000e+01
8.125000e+01
8.125000e+01
8.125000e+01
8.750000e+01
8.750000e+01
8.750000e+01
8.750000e+01
8.750000e+01
8.750000e+01
8.750000e+01
8.750000e+01
8.750000e+01
8.750000e+01
8.750000e+01
8.750000e+01
8.750000e+01
8.750000e+01
8.750000e+01
8.750000e+01
8.750000e+01
8.750000e+01
8.750000e+01
8.750000e+01
8.750000e+01
8.750000e+01
8.750000e+01
8.750000e+01
8.750000e+01
8.750000e+01
8.750000e+01
8.750000e+01
8.750000e+01
8.750000e+01
8.750000e+01
8.750000e+01
8.750000e+01
9.375000e+01
9.375000e+01
9.375000e+01
9.375000e+01
9.375000e+01
9.375000e+01
9.375000e+01
9.375000e+01
9.375000e+01
9.375000e+01
9.375000e+01
9.375000e+01
9.375000e+01
9.375000e+01
9.375000e+01
9.375000e+01
9.375000e+01
9.375000e+01
9.375000e+01
9.375000e+01
9.375000e+01
9.375000e+01
9.375000e+01
9.375000e+01
9.375000e+01
9.375000e+01
9.375000e+01
9.375000e+01
9.375000e+01
9.375000e+01
9.375000e+01
9.375000e+01
9.375000e+01
1.000000e+02
1.000000e+02
1.000000e+02
1.000000e+02
1.000000e+02
1.000000e+02
1.000000e+02
1.000000e+02
1.000000e+02
1.000000e+02
1.000000e+02
1.000000e+02
1.000000e+02
1.000000e+02
1.000000e+02
1.000000e+02
1.000000e+02
1.000000e+02
1.000000e+02
1.000000e+02
1.000000e+02
1.000000e+02
1.000000e+02
1.000000e+02
1.000000e+02
1.000000e+02
1.000000e+02
1.000000e+02
1.000000e+02
1.000000e+02
1.000000e+02
1.000000e+02
1.000000e+02
0.000000e+00
-3.949386e-02
-7.165637e-02
-1.014504e-01
-1.300442e-01
-1.576559e-01
-1.843409e-01
-2.100968e-01
-2.349073e-01
-2.587546e-01
-2.816235e-01
-3.035038e-01
-3.243902e-01
-3.442822e-01
-3.631845e-01
-3.811071e-01
-3.980659e-01
-4.140843e-01
-4.291946e-01
-4.434401e-01
-4.568789e-01
-4.695875e-01
-4.816671e-01
-4.932522e-01
-5.045225e-01
-5.157228e-01
-5.271925e-01
-5.394161e-01
-5.531041e-01
-5.693023e-01
-5.893669e-01
-6.132785e-01
-6.278715e-01
0.000000e+00
-2.647958e-02
-5.509362e-02
-8.207287e-02
-1.077156e-01
-1.322659e-01
-1.558536e-01
-1.785355e-01
-2.003341e-01
-2.212567e-01
-2.413049e-01
-2.604785e-01
-2.787785e-01
-2.962079e-01
-3.127724e-01
-3.284813e-01
-3.433479e-01
-3.573906e-01
-3.706337e-01
-3.831089e-01
-3.948564e-01
-4.059271e-01
-4.163840e-01
-4.263042e-01
-4.357801e-01
-4.449176e-01
-4.538287e-01
-4.626056e-01
-4.712477e-01
-4.794738e-01
-4.863284e-01
-4.903359e-01
-4.959151e-01
0.000000e+00
-2.100367e-02
-4.324111e-02
-6.588236e-02
-8.788263e-02
-1.090721e-01
-1.294373e-01
-1.489975e-01
-1.677700e-01
-1.857667e-01
-2.029951e-01
-2.194606e-01
-2.351679e-01
-2.501215e-01
-2.643269e-01
-2.777912e-01
-2.905230e-01
-3.025332e-01
-3.138355e-01
-3.244460e-01
-3.343830e-01
-3.436669e-01
-3.523173e-01
-3.603497e-01
-3.677671e-01
-3.745458e-01
-3.806082e-01
-3.857760e-01
-3.896996e-01
-3.918123e-01
-3.916270e-01
-3.904407e-01
-3.969556e-01
0.000000e+00
-1.666455e-02
-3.424946e-02
-5.231574e-02
-7.033968e-02
-8.792703e-02
-1.049272e-01
-1.212861e-01
-1.369892e-01
-1.520358e-01
-1.664298e-01
-1.801760e-01
-1.932791e-01
-2.057431e-01
-2.175717e-01
-2.287684e-01
-2.393361e-01
-2.492776e-01
-2.585949e-01
-2.672885e-01
-2.753563e-01
-2.827907e-01
-2.895755e-01
-2.956789e-01
-3.010446e-01
-3.055779e-01
-3.091287e-01
-3.114802e-01
-3.123780e-01
-3.117115e-01
-3.100927e-01
-3.099960e-01
-3.162032e-01
0.000000e+00
-1.293402e-02
-2.648446e-02
-4.046776e-02
-5.456466e-02
-6.848865e-02
-8.204762e-02
-9.514429e-02
-1.077345e-01
-1.198011e-01
-1.313397e-01
-1.423510e-01
-1.528370e-01
-1.627995e-01
-1.722391e-01
-1.811549e-01
-1.895443e-01
-1.974021e-01
-2.047202e-01
-2.114864e-01
-2.176825e-01
-2.232820e-01
-2.282465e-01
-2.325217e-01
-2.360318e-01
-2.386776e-01
-2.403426e-01
-2.409266e-01
-2.404475e-01
-2.392751e-01
-2.385145e-01
-2.402709e-01
-2.455659e-01
0.000000e+00
-9.505750e-03
-1.941876e-02
-2.965025e-02
-4.002342e-02
-5.034464e-02
-6.046018e-02
-7.027013e-02
-7.971964e-02
-8.878205e-02
-9.744610e-02
-1.057078e-01
-1.135658e-01
-1.210187e-01
-1.280636e-01
-1.346955e-01
-1.409066e-01
-1.466855e-01
-1.520166e-01
-1.568790e-01
-1.612454e-01
-1.650803e-01
-1.683389e-01
-1.709665e-01
-1.729009e-01
-1.740811e-01
-1.744727e-01
-1.741213e-01
-1.732552e-01
-1.724311e-01
-1.726318e-01
-1.748709e-01
-1.792521e-01
0.000000e+00
-6.255926e-03
-1.275930e-02
-1.946898e-02
-2.628929e-02
-3.310541e-02
-3.981457e-02
-4.634182e-02
-5.264028e-02
-5.868407e-02
-6.446013e-02
-6.996188e-02
-7.518510e-02
-8.012546e-02
-8.477697e-02
-8.913115e-02
-9.317624e-02
-9.689669e-02
-1.002725e-01
-1.032789e-01
-1.058857e-01
-1.080574e-01
-1.097546e-01
-1.109374e-01
-1.115728e-01
-1.116517e-01
-1.112172e-01
-1.104132e-01
-1.095456e-01
-1.091250e-01
-1.097812e-01
-1.119612e-01
-1.154978e-01
0.000000e+00
-3.107316e-03
-6.332107e-03
-9.657798e-03
-1.304239e-02
-1.643240e-02
-1.977707e-02
-2.303666e-02
-2.618433e-02
-2.920368e-02
-3.208499e-02
-3.482183e-02
-3.740860e-02
-3.983890e-02
-4.210444e-02
-4.419433e-02
-4.609456e-02
-4.778759e-02
-4.925213e-02
-5.046324e-02
-5.139293e-02
-5.201176e-02
-5.229209e-02
-5.221412e-02
-5.177631e-02
-5.101209e-02
-5.001393e-02
-4.896221e-02
-4.814576e-02
-4.794124e-02
-4.871108e-02
-5.061287e-02
-5.341907e-02
0.000000e+00
-5.013280e-06
-1.087023e-05
-1.724638e-05
-2.380634e-05
-3.009790e-05
-3.543954e-05
-3.879561e-05
-3.863041e-05
-3.273262e-05
-1.800325e-05
9.796477e-06
5.633698e-05
1.290455e-04
2.374491e-04
3.935053e-04
6.118702e-04
9.100195e-04
1.308093e-03
1.828263e-03
2.493325e-03
3.324084e-03
4.334953e-03
5.527026e-03
6.877975e-03
8.328619e-03
9.767895e-03
1.102184e-02
1.185890e-02
1.202865e-02
1.134515e-02
9.797242e-03
7.629317e-03
0.000000e+00
3.097874e-03
6.311591e-03
9.625182e-03
1.299726e-02
1.637519e-02
1.970945e-02
2.296225e-02
2.610960e-02
2.913925e-02
3.204728e-02
3.483522e-02
3.750814e-02
4.007360e-02
4.254131e-02
4.492297e-02
4.723236e-02
4.948515e-02
5.169852e-02
5.389016e-02
5.607644e-02
5.826940e-02
6.047216e-02
6.267251e-02
6.483467e-02
6.689040e-02
6.873211e-02
7.021340e-02
7.116517e-02
7.143462e-02
7.094661e-02
6.977074e-02
6.816172e-02
0.000000e+00
6.248212e-03
1.274242e-02
1.944196e-02
2.625161e-02
3.305720e-02
3.975692e-02
4.627736e-02
5.257393e-02
5.862406e-02
6.441936e-02
6.995972e-02
7.524961e-02
8.029617e-02
8.510824e-02
8.969608e-02
9.407117e-02
9.824600e-02
1.022335e-01
1.060461e-01
1.096935e-01
1.131806e-01
1.165024e-01
1.196399e-01
1.225535e-01
1.251788e-01
1.274243e-01
1.291782e-01
1.303261e-01
1.307851e-01
1.305491e-01
1.297354e-01
1.286124e-01
0.000000e+00
9.500829e-03
1.940780e-02
2.963240e-02
3.999807e-02
5.031155e-02
6.041970e-02
7.022353e-02
7.966963e-02
8.873340e-02
9.740658e-02
1.056893e-01
1.135860e-01
1.211026e-01
1.282462e-01
1.350245e-01
1.414454e-01
1.475170e-01
1.532473e-01
1.586427e-01
1.637070e-01
1.684392e-01
1.728299e-01
1.768586e-01
1.804895e-01
1.836700e-01
1.863314e-01
1.883970e-01
1.897978e-01
1.904997e-01
1.905392e-01
1.900619e-01
1.893521e-01
0.000000e+00
1.293279e-02
2.648140e-02
4.046229e-02
5.455620e-02
6.847673e-02
8.203192e-02
9.512479e-02
1.077115e-01
1.197758e-01
1.313140e-01
1.423282e-01
1.528223e-01
1.628007e-01
1.722676e-01
1.812270e-01
1.896820e-01
1.976357e-01
2.050897e-01
2.120446e-01
2.184981e-01
2.244445e-01
2.298721e-01
2.347624e-01
2.390877e-01
2.428119e-01
2.458922e-01
2.482861e-01
2.499639e-01
2.509278e-01
2.512405e-01
2.510612e-01
2.506874e-01
0.000000e+00
1.666765e-02
3.425575e-02
5.232510e-02
7.035185e-02
8.794166e-02
1.049438e-01
1.213038e-01
1.370067e-01
1.520509e-01
1.664393e-01
1.801751e-01
1.932608e-01
2.056981e-01
2.174870e-01
2.286266e-01
2.391149e-01
2.489484e-01
2.581222e-01
2.666298e-01
2.744627e-01
2.816100e-01
2.880579e-01
2.937904e-01
2.987891e-01
3.030353e-01
3.065130e-01
3.092144e-01
3.111478e-01
3.123493e-01
3.129020e-01
3.129679e-01
3.128438e-01
0.000000e+00
2.101123e-02
4.325725e-02
6.590762e-02
8.791750e-02
1.091170e-01
1.294923e-01
1.490620e-01
1.678422e-01
1.858427e-01
2.030685e-01
2.195209e-01
2.351989e-01
2.500994e-01
2.642177e-01
2.775476e-01
2.900807e-01
3.018069e-01
3.127137e-01
3.227867e-01
3.320092e-01
3.403634e-01
3.478311e-01
3.543956e-01
3.600444e-01
3.647731e-01
3.685905e-01
3.715233e-01
3.736223e-01
3.749667e-01
3.756703e-01
3.758995e-01
3.759269e-01
0.000000e+00
2.649092e-02
5.511841e-02
8.211274e-02
1.077725e-01
1.323418e-01
1.559502e-01
1.786536e-01
2.004733e-01
2.214143e-01
2.414742e-01
2.606476e-01
2.789271e-01
2.963045e-01
3.127699e-01
3.283115e-01
3.429151e-01
3.565637e-01
3.692366e-01
3.809100e-01
3.915570e-01
4.011489e-01
4.096573e-01
4.170579e-01
4.233353e-01
4.284899e-01
4.325460e-01
4.355607e-01
4.376316e-01
4.389006e-01
4.395489e-01
4.397839e-01
4.398415e-01
0.000000e+00
3.950628e-02
7.168535e-02
1.015000e-01
1.301185e-01
1.577589e-01
1.844768e-01
2.102696e-01
2.351202e-01
2.590088e-01
2.819169e-01
3.038287e-01
3.247300e-01
3.446074e-01
3.634472e-01
3.812336e-01
3.979477e-01
4.135661e-01
4.280605e-01
4.413963e-01
4.535335e-01
4.644273e-01
4.740312e-01
4.823009e-01
4.892024e-01
4.947217e-01
4.988785e-01
5.017421e-01
5.034489e-01
5.042180e-01
5.043578e-01
5.042420e-01
5.041768e-01
0.000000e+00
-2.440645e-02
-4.259452e-02
-6.244206e-02
-8.454348e-02
-1.095092e-01
-1.375128e-01
-1.686029e-01
-2.027486e-01
-2.398766e-01
-2.798885e-01
-3.226712e-01
-3.681025e-01
-4.160554e-01
-4.664000e-01
-5.190060e-01
-5.737433e-01
-6.304846e-01
-6.891064e-01
-7.494929e-01
-8.115387e-01
-8.751557e-01
-9.402805e-01
-1.006888e+00
-1.075012e+00
-1.144777e+00
-1.216462e+00
-1.290608e+00
-1.368249e+00
-1.451436e+00
-1.544589e+00
-1.658144e+00
-1.815022e+00
0.000000e+00
-1.516768e-02
-3.420579e-02
-5.418722e-02
-7.659670e-02
-1.018337e-01
-1.301094e-01
-1.614716e-01
-1.958921e-01
-2.332976e-01
-2.735892e-01
-3.166528e-01
-3.623652e-01
-4.105982e-01
-4.612210e-01
-5.141016e-01
-5.691087e-01
-6.261127e-01
-6.849881e-01
-7.456159e-01
-8.078873e-01
-8.717093e-01
-9.370130e-01
-1.003766e+00
-1.071993e+00
-1.141807e+00
-1.213473e+00
-1.287514e+00
-1.364943e+00
-1.447777e+00
-1.540211e+00
-1.651237e+00
-1.797802e+00
0.000000e+00
-1.114153e-02
-2.757654e-02
-4.728540e-02
-6.973403e-02
-9.515699e-02
-1.236559e-01
-1.552571e-01
-1.899227e-01
-2.275761e-01
-2.681165e-01
-3.114289e-01
-3.573897e-01
-4.058702e-01
-4.567390e-01
-5.098638e-01
-5.651125e-01
-6.223548e-01
-6.814644e-01
-7.423212e-01
-8.048156e-01
-8.688538e-01
-9.343667e-01
-1.001323e+00
-1.069750e+00
-1.139767e+00
-1.211651e+00
-1.285939e+00
-1.363631e+00
-1.446542e+00
-1.537774e+00
-1.640989e+00
-1.755486e+00
0.000000e+00
-8.921664e-03
-2.335176e-02
-4.200964e-02
-6.416978e-02
-8.958485e-02
-1.182056e-01
-1.499839e-01
-1.848513e-01
-2.227170e-01
-2.634740e-01
-3.070044e-01
-3.531835e-01
-4.018823e-01
-4.529697e-01
-5.063137e-01
-5.617824e-01
-6.192464e-01
-6.785797e-01
-7.396634e-01
-8.023893e-01
-8.666659e-01
-9.324275e-01
-9.996476e-01
-1.068360e+00
-1.138692e+00
-1.210914e+00
-1.285523e+00
-1.363338e+00
-1.445554e+00
-1.533316e+00
-1.625878e+00
-1.712043e+00
0.000000e+00
-7.549190e-03
-2.058890e-02
-3.826323e-02
-5.991821e-02
-8.516665e-02
-1.137982e-01
-1.456798e-01
-1.806961e-01
-2.187328e-01
-2.596709e-01
-3.033871e-01
-3.497544e-01
-3.986435e-01
-4.499236e-01
-5.034637e-01
-5.591334e-01
-6.168045e-01
-6.763529e-01
-7.376617e-01
-8.006250e-01
-8.651542e-01
-9.311863e-01
-9.986966e-01
-1.067716e+00
-1.138357e+00
-1.210840e+00
-1.285522e+00
-1.362874e+00
-1.443276e+00
-1.526344e+00
-1.609028e+00
-1.684069e+00
0.000000e+00
-6.675872e-03
-1.877612e-02
-3.568511e-02
-5.685263e-02
-8.186456e-02
-1.104339e-01
-1.423562e-01
-1.774707e-01
-2.156355e-01
-2.567172e-01
-3.005849e-01
-3.471088e-01
-3.961588e-01
-4.476050e-01
-5.013174e-01
-5.571675e-01
-6.150289e-01
-6.747795e-01
-7.363043e-01
-7.994990e-01
-8.642753e-01
-9.305684e-01
-9.983463e-01
-1.067621e+00
-1.138459e+00
-1.210986e+00
-1.285358e+00
-1.361660e+00
-1.439637e+00
-1.518099e+00
-1.594244e+00
-1.663840e+00
0.000000e+00
-6.133114e-03
-1.762999e-02
-3.400928e-02
-5.479892e-02
-7.959531e-02
-1.080798e-01
-1.400061e-01
-1.751785e-01
-2.134321e-01
-2.546195e-01
-2.986031e-01
-3.452499e-01
-3.944292e-01
-4.460119e-01
-4.998696e-01
-5.558753e-01
-6.139046e-01
-6.738367e-01
-7.355572e-01
-7.989610e-01
-8.639563e-01
-9.304696e-01
-9.984508e-01
-1.067876e+00
-1.138748e+00
-1.211071e+00
-1.284805e+00
-1.359737e+00
-1.435256e+00
-1.510057e+00
-1.581983e+00
-1.648391e+00
0.000000e+00
-5.834861e-03
-1.699403e-02
-3.306491e-02
-5.362129e-02
-7.827349e-02
-1.066926e-01
-1.386119e-01
-1.738156e-01
-2.121241e-01
-2.533808e-01
-2.974434e-01
-3.441770e-01
-3.934510e-01
-4.451370e-01
-4.991083e-01
-5.552393e-01
-6.134066e-01
-6.734900e-01
-7.353738e-01
-7.989492e-01
-8.641162e-01
-9.307863e-01
-9.988825e-01
-1.068337e+00
-1.139077e+00
-1.211000e+00
-1.283909e+00
-1.357414e+00
-1.430794e+00
-1.502870e+00
-1.572019e+00
-1.636438e+00
0.000000e+00
-5.738765e-03
-1.678885e-02
-3.275883e-02
-5.323748e-02
-7.784089e-02
-1.062382e-01
-1.381570e-01
-1.733756e-01
-2.117096e-01
-2.530002e-01
-2.971038e-01
-3.438858e-01
-3.932164e-01
-4.449686e-01
-4.990168e-01
-5.552365e-01
-6.135048e-01
-6.737004e-01
-7.357046e-01
-7.994021e-01
-8.646813e-01
-9.314340e-01
-9.995523e-01
-1.068921e+00
-1.139403e+00
-1.210805e+00
-1.282835e+00
-1.355025e+00
-1.426667e+00
-1.496761e+00
-1.564072e+00
-1.627277e+00
0.000000e+00
-5.832081e-03
-1.699017e-02
-3.306159e-02
-5.362028e-02
-7.827702e-02
-1.067036e-01
-1.386342e-01
-1.738543e-01
-2.121859e-01
-2.534744e-01
-2.975795e-01
-3.443691e-01
-3.937153e-01
-4.454924e-01
-4.995761e-01
-5.558424e-01
-6.141679e-01
-6.744293e-01
-7.365034e-01
-8.002665e-01
-8.655934e-01
-9.323544e-01
-1.000411e+00
-1.069605e+00
-1.139745e+00
-1.210579e+00
-1.281763e+00
-1.352817e+00
-1.423094e+00
-1.491772e+00
-1.557894e+00
-1.620449e+00
0.000000e+00
-6.127780e-03
-1.762259e-02
-3.400287e-02
-5.479691e-02
-7.960194e-02
-1.081006e-01
-1.400486e-01
-1.752524e-01
-2.135503e-01
-2.547986e-01
-2.988639e-01
-3.456181e-01
-3.949360e-01
-4.466936e-01
-5.007674e-01
-5.570334e-01
-6.153672e-01
-6.756428e-01
-7.377316e-01
-8.015009e-01
-8.668114e-01
-9.335132e-01
-1.001439e+00
-1.070397e+00
-1.140156e+00
-1.210427e+00
-1.280845e+00
-1.350950e+00
-1.420177e+00
-1.487859e+00
-1.553259e+00
-1.615603e+00
0.000000e+00
-6.668458e-03
-1.876583e-02
-3.567617e-02
-5.684974e-02
-8.187363e-02
-1.104627e-01
-1.424152e-01
-1.775736e-01
-2.158003e-01
-2.569671e-01
-3.009492e-01
-3.476235e-01
-3.968676e-01
-4.485589e-01
-5.025743e-01
-5.587899e-01
-6.170796e-01
-6.773144e-01
-7.393604e-01
-8.030764e-01
-8.683103e-01
-9.348944e-01
-1.002639e+00
-1.071325e+00
-1.140694e+00
-1.210436e+00
-1.280187e+00
-1.349517e+00
-1.417943e+00
-1.484938e+00
-1.549954e+00
-1.612425e+00
0.000000e+00
-7.540457e-03
-2.057679e-02
-3.825269e-02
-5.991486e-02
-8.517762e-02
-1.138330e-01
-1.457509e-01
-1.808203e-01
-2.189319e-01
-2.599730e-01
-3.038275e-01
-3.503769e-01
-3.995008e-01
-4.510779e-01
-5.049852e-01
-5.610980e-01
-6.192890e-01
-6.794263e-01
-7.413714e-01
-8.049757e-01
-8.700771e-01
-9.364938e-01
-1.004019e+00
-1.072415e+00
-1.141406e+00
-1.210672e+00
-1.279855e+00
-1.348559e+00
-1.416375e+00
-1.482899e+00
-1.547759e+00
-1.610607e+00
0.000000e+00
-8.912688e-03
-2.333932e-02
-4.199893e-02
-6.416690e-02
-8.959773e-02
-1.182448e-01
-1.500633e-01
-1.849895e-01
-2.229380e-01
-2.638088e-01
-3.074921e-01
-3.538723e-01
-4.028305e-01
-4.542455e-01
-5.079943e-01
-5.639516e-01
-6.219885e-01
-6.819710e-01
-7.437569e-01
-8.071926e-01
-8.721082e-01
-9.383130e-01
-1.005589e+00
-1.073687e+00
-1.142319e+00
-1.211165e+00
-1.279873e+00
-1.348076e+00
-1.415424e+00
-1.481617e+00
-1.546448e+00
-1.609815e+00
0.000000e+00
-1.113371e-02
-2.756565e-02
-4.727635e-02
-6.973317e-02
-9.517268e-02
-1.236991e-01
-1.553426e-01
-1.900695e-01
-2.278092e-01
-2.684680e-01
-3.119390e-01
-3.581081e-01
-4.068564e-01
-4.580629e-01
-5.116040e-01
-5.673536e-01
-6.251817e-01
-6.849525e-01
-7.465215e-01
-8.097317e-01
-8.744091e-01
-9.403577e-01
-1.007354e+00
-1.075143e+00
-1.143434e+00
-1.211907e+00
-1.280218e+00
-1.348022e+00
-1.415007e+00
-1.480952e+00
-1.545790e+00
-1.609676e+00
0.000000e+00
-1.516265e-02
-3.419838e-02
-5.418190e-02
-7.659999e-02
-1.018541e-01
-1.301581e-01
-1.615633e-01
-1.960459e-01
-2.335382e-01
-2.739483e-01
-3.171697e-01
-3.630884e-01
-4.115854e-01
-4.625391e-01
-5.158254e-01
-5.713174e-01
-6.288840e-01
-6.883881e-01
-7.496834e-01
-8.126113e-01
-8.769959e-01
-9.426394e-01
-1.009317e+00
-1.076773e+00
-1.144721e+00
-1.212844e+00
-1.280809e+00
-1.348286e+00
-1.414988e+00
-1.480736e+00
-1.545552e+00
-1.609794e+00
0.000000e+00
-2.440574e-02
-4.259205e-02
-6.244253e-02
-8.455345e-02
-1.095373e-01
-1.375701e-01
-1.687040e-01
-2.029121e-01
-2.401267e-01
-2.802556e-01
-3.231928e-01
-3.688243e-01
-4.170310e-01
-4.676908e-01
-5.206790e-01
-5.758676e-01
-6.331243e-01
-6.923104e-01
-7.532783e-01
-8.158678e-01
-8.799019e-01
-9.451827e-01