TITLE = "Solution"
VARIABLES = x, y, u, v, psiu, psiv, t, stress
ZONE T="structure" N=561 E=512 F=FEBLOCK ET=QUADRILATERAL VARLOCATION=([7,8]=cellcentered)
0.000000e+00
6.250000e+00
1.250000e+01
1.875000e+01
2.500000e+01
3.125000e+01
3.750000e+01
4.375000e+01
5.000000e+01
5.625000e+01
6.250000e+01
6.875000e+01
7.500000e+01
8.125000e+01
8.750000e+01
9.375000e+01
1.000000e+02
1.062500e+02
1.125000e+02
1.187500e+02
1.250000e+02
1.312500e+02
1.375000e+02
1.437500e+02
1.500000e+02
1.562500e+02
1.625000e+02
1.687500e+02
1.750000e+02
1.812500e+02
1.875000e+02
1.937500e+02
2.000000e+02
0.000000e+00
6.250000e+00
1.250000e+01
1.875000e+01
2.500000e+01
3.125000e+01
3.750000e+01
4.375000e+01
5.000000e+01
5.625000e+01
6.250000e+01
6.875000e+01
7.500000e+01
8.125000e+01
8.750000e+01
9.375000e+01
1.000000e+02
1.062500e+02
1.125000e+02
1.187500e+02
1.250000e+02
1.312500e+02
1.375000e+02
1.437500e+02
1.500000e+02
1.562500e+02
1.625000e+02
1.687500e+02
1.750000e+02
1.812500e+02
1.875000e+02
1.937500e+02
2.000000e+02
0.000000e+00
6.250000e+00
1.250000e+01
1.875000e+01
2.500000e+01
3.125000e+01
3.750000e+01
4.375000e+01
5.000000e+01
5.625000e+01
6.250000e+01
6.875000e+01
7.500000e+01
8.125000e+01
8.750000e+01
9.375000e+01
1.000000e+02
1.062500e+02
1.125000e+02
1.187500e+02
1.250000e+02
1.312500e+02
1.375000e+02
1.437500e+02
1.500000e+02
1.562500e+02
1.625000e+02
1.687500e+02
1.750000e+02
1.812500e+02
1.875000e+02
1.937500e+02
2.000000e+02
0.000000e+00
6.250000e+00
1.250000e+01
1.875000e+01
2.500000e+01
3.125000e+01
3.750000e+01
4.375000e+01
5.000000e+01
5.625000e+01
6.250000e+01
6.875000e+01
7.500000e+01
8.125000e+01
8.750000e+01
9.375000e+01
1.000000e+02
1.062500e+02
1.125000e+02
1.187500e+02
1.250000e+02
1.312500e+02
1.375000e+02
1.437500e+02
1.500000e+02
1.562500e+02
1.625000e+02
1.687500e+02
1.750000e+02
1.812500e+02
1.875000e+02
1.937500e+02
2.000000e+02
0.000000e+00
6.250000e+00
1.250000e+01
1.875000e+01
2.500000e+01
3.125000e+01
3.750000e+01
4.375000e+01
5.000000e+01
5.625000e+01
6.250000e+01
6.875000e+01
7.500000e+01
8.125000e+01
8.750000e+01
9.375000e+01
1.000000e+02
1.062500e+02
1.125000e+02
1.187500e+02
1.250000e+02
1.312500e+02
1.375000e+02
1.437500e+02
1.500000e+02
1.562500e+02
1.625000e+02
1.687500e+02
1.750000e+02
1.812500e+02
1.875000e+02
1.937500e+02
2.000000e+02
0.000000e+00
6.250000e+00
1.250000e+01
1.875000e+01
2.500000e+01
3.125000e+01
3.750000e+01
4.375000e+01
5.000000e+01
5.625000e+01
6.250000e+01
6.875000e+01
7.500000e+01
8.125000e+01
8.750000e+01
9.375000e+01
1.000000e+02
1.062500e+02
1.125000e+02
1.187500e+02
1.250000e+02
1.312500e+02
1.375000e+02
1.437500e+02
1.500000e+02
1.562500e+02
1.625000e+02
1.687500e+02
1.750000e+02
1.812500e+02
1.875000e+02
1.937500e+02
2.000000e+02
0.000000e+00
6.250000e+00
1.250000e+01
1.875000e+01
2.500000e+01
3.125000e+01
3.750000e+01
4.375000e+01
5.000000e+01
5.625000e+01
6.250000e+01
6.875000e+01
7.500000e+01
8.125000e+01
8.750000e+01
9.375000e+01
1.000000e+02
1.062500e+02
1.125000e+02
1.187500e+02
1.250000e+02
1.312500e+02
1.375000e+02
1.437500e+02
1.500000e+02
1.562500e+02
1.625000e+02
1.687500e+02
1.750000e+02
1.812500e+02
1.875000e+02
1.937500e+02
2.000000e+02
0.000000e+00
6.250000e+00
1.250000e+01
1.875000e+01
2.500000e+01
3.125000e+01
3.750000e+01
4.375000e+01
5.000000e+01
5.625000e+01
6.250000e+01
6.875000e+01
7.500000e+01
8.125000e+01
8.750000e+01
9.375000e+01
1.000000e+02
1.062500e+02
1.125000e+02
1.187500e+02
1.250000e+02
1.312500e+02
1.375000e+02
1.437500e+02
1.500000e+02
1.562500e+02
1.625000e+02
1.687500e+02
1.750000e+02
1.812500e+02
1.875000e+02
1.937500e+02
2.000000e+02
0.000000e+00
6.250000e+00
1.250000e+01
1.875000e+01
2.500000e+01
3.125000e+01
3.750000e+01
4.375000e+01
5.000000e+01
5.625000e+01
6.250000e+01
6.875000e+01
7.500000e+01
8.125000e+01
8.750000e+01
9.375000e+01
1.000000e+02
1.062500e+02
1.125000e+02
1.187500e+02
1.250000e+02
1.312500e+02
1.375000e+02
1.437500e+02
1.500000e+02
1.562500e+02
1.625000e+02
1.687500e+02
1.750000e+02
1.812500e+02
1.875000e+02
1.937500e+02
2.000000e+02
0.000000e+00
6.250000e+00
1.250000e+01
1.875000e+01
2.500000e+01
3.125000e+01
3.750000e+01
4.375000e+01
5.000000e+01
5.625000e+01
6.250000e+01
6.875000e+01
7.500000e+01
8.125000e+01
8.750000e+01
9.375000e+01
1.000000e+02
1.062500e+02
1.125000e+02
1.187500e+02
1.250000e+02
1.312500e+02
1.375000e+02
1.437500e+02
1.500000e+02
1.562500e+02
1.625000e+02
1.687500e+02
1.750000e+02
1.812500e+02
1.875000e+02
1.937500e+02
2.000000e+02
0.000000e+00
6.250000e+00
1.250000e+01
1.875000e+01
2.500000e+01
3.125000e+01
3.750000e+01
4.375000e+01
5.000000e+01
5.625000e+01
6.250000e+01
6.875000e+01
7.500000e+01
8.125000e+01
8.750000e+01
9.375000e+01
1.000000e+02
1.062500e+02
1.125000e+02
1.187500e+02
1.250000e+02
1.312500e+02
1.375000e+02
1.437500e+02
1.500000e+02
1.562500e+02
1.625000e+02
1.687500e+02
1.750000e+02
1.812500e+02
1.875000e+02
1.937500e+02
2.000000e+02
0.000000e+00
6.250000e+00
1.250000e+01
1.875000e+01
2.500000e+01
3.125000e+01
3.750000e+01
4.375000e+01
5.000000e+01
5.625000e+01
6.250000e+01
6.875000e+01
7.500000e+01
8.125000e+01
8.750000e+01
9.375000e+01
1.000000e+02
1.062500e+02
1.125000e+02
1.187500e+02
1.250000e+02
1.312500e+02
1.375000e+02
1.437500e+02
1.500000e+02
1.562500e+02
1.625000e+02
1.687500e+02
1.750000e+02
1.812500e+02
1.875000e+02
1.937500e+02
2.000000e+02
0.000000e+00
6.250000e+00
1.250000e+01
1.875000e+01
2.500000e+01
3.125000e+01
3.750000e+01
4.375000e+01
5.000000e+01
5.625000e+01
6.250000e+01
6.875000e+01
7.500000e+01
8.125000e+01
8.750000e+01
9.375000e+01
1.000000e+02
1.062500e+02
1.125000e+02
1.187500e+02
1.250000e+02
1.312500e+02
1.375000e+02
1.437500e+02
1.500000e+02
1.562500e+02
1.625000e+02
1.687500e+02
1.750000e+02
1.812500e+02
1.875000e+02
1.937500e+02
2.000000e+02
0.000000e+00
6.250000e+00
1.250000e+01
1.875000e+01
2.500000e+01
3.125000e+01
3.750000e+01
4.375000e+01
5.000000e+01
5.625000e+01
6.250000e+01
6.875000e+01
7.500000e+01
8.125000e+01
8.750000e+01
9.375000e+01
1.000000e+02
1.062500e+02
1.125000e+02
1.187500e+02
1.250000e+02
1.312500e+02
1.375000e+02
1.437500e+02
1.500000e+02
1.562500e+02
1.625000e+02
1.687500e+02
1.750000e+02
1.812500e+02
1.875000e+02
1.937500e+02
2.000000e+02
0.000000e+00
6.250000e+00
1.250000e+01
1.875000e+01
2.500000e+01
3.125000e+01
3.750000e+01
4.375000e+01
5.000000e+01
5.625000e+01
6.250000e+01
6.875000e+01
7.500000e+01
8.125000e+01
8.750000e+01
9.375000e+01
1.000000e+02
1.062500e+02
1.125000e+02
1.187500e+02
1.250000e+02
1.312500e+02
1.375000e+02
1.437500e+02
1.500000e+02
1.562500e+02
1.625000e+02
1.687500e+02
1.750000e+02
1.812500e+02
1.875000e+02
1.937500e+02
2.000000e+02
0.000000e+00
6.250000e+00
1.250000e+01
1.875000e+01
2.500000e+01
3.125000e+01
3.750000e+01
4.375000e+01
5.000000e+01
5.625000e+01
6.250000e+01
6.875000e+01
7.500000e+01
8.125000e+01
8.750000e+01
9.375000e+01
1.000000e+02
1.062500e+02
1.125000e+02
1.187500e+02
1.250000e+02
1.312500e+02
1.375000e+02
1.437500e+02
1.500000e+02
1.562500e+02
1.625000e+02
1.687500e+02
1.750000e+02
1.812500e+02
1.875000e+02
1.937500e+02
2.000000e+02
0.000000e+00
6.250000e+00
1.250000e+01
1.875000e+01
2.500000e+01
3.125000e+01
3.750000e+01
4.375000e+01
5.000000e+01
5.625000e+01
6.250000e+01
6.875000e+01
7.500000e+01
8.125000e+01
8.750000e+01
9.375000e+01
1.000000e+02
1.062500e+02
1.125000e+02
1.187500e+02
1.250000e+02
1.312500e+02
1.375000e+02
1.437500e+02
1.500000e+02
1.562500e+02
1.625000e+02
1.687500e+02
1.750000e+02
1.812500e+02
1.875000e+02
1.937500e+02
2.000000e+02
0.000000e+00
0.000000e+00
0.000000e+00
0.000000e+00
0.000000e+00
0.000000e+00
0.000000e+00
0.000000e+00
0.000000e+00
0.000000e+00
0.000000e+00
0.000000e+00
0.000000e+00
0.000000e+00
0.000000e+00
0.000000e+00
0.000000e+00
0.000000e+00
0.000000e+00
0.000000e+00
0.000000e+00
0.000000e+00
0.000000e+00
0.000000e+00
0.000000e+00
0.000000e+00
0.000000e+00
0.000000e+00
0.000000e+00
0.000000e+00
0.000000e+00
0.000000e+00
0.000000e+00
6.250000e+00
6.250000e+00
6.250000e+00
6.250000e+00
6.250000e+00
6.250000e+00
6.250000e+00
6.250000e+00
6.250000e+00
6.250000e+00
6.250000e+00
6.250000e+00
6.250000e+00
6.250000e+00
6.250000e+00
6.250000e+00
6.250000e+00
6.250000e+00
6.250000e+00
6.250000e+00
6.250000e+00
6.250000e+00
6.250000e+00
6.250000e+00
6.250000e+00
6.250000e+00
6.250000e+00
6.250000e+00
6.250000e+00
6.250000e+00
6.250000e+00
6.250000e+00
6.250000e+00
1.250000e+01
1.250000e+01
1.250000e+01
1.250000e+01
1.250000e+01
1.250000e+01
1.250000e+01
1.250000e+01
1.250000e+01
1.250000e+01
1.250000e+01
1.250000e+01
1.250000e+01
1.250000e+01
1.250000e+01
1.250000e+01
1.250000e+01
1.250000e+01
1.250000e+01
1.250000e+01
1.250000e+01
1.250000e+01
1.250000e+01
1.250000e+01
1.250000e+01
1.250000e+01
1.250000e+01
1.250000e+01
1.250000e+01
1.250000e+01
1.250000e+01
1.250000e+01
1.250000e+01
1.875000e+01
1.875000e+01
1.875000e+01
1.875000e+01
1.875000e+01
1.875000e+01
1.875000e+01
1.875000e+01
1.875000e+01
1.875000e+01
1.875000e+01
1.875000e+01
1.875000e+01
1.875000e+01
1.875000e+01
1.875000e+01
1.875000e+01
1.875000e+01
1.875000e+01
1.875000e+01
1.875000e+01
1.875000e+01
1.875000e+01
1.875000e+01
1.875000e+01
1.875000e+01
1.875000e+01
1.875000e+01
1.875000e+01
1.875000e+01
1.875000e+01
1.875000e+01
1.875000e+01
2.500000e+01
2.500000e+01
2.500000e+01
2.500000e+01
2.500000e+01
2.500000e+01
2.500000e+01
2.500000e+01
2.500000e+01
2.500000e+01
2.500000e+01
2.500000e+01
2.500000e+01
2.500000e+01
2.500000e+01
2.500000e+01
2.500000e+01
2.500000e+01
2.500000e+01
2.500000e+01
2.500000e+01
2.500000e+01
2.500000e+01
2.500000e+01
2.500000e+01
2.500000e+01
2.500000e+01
2.500000e+01
2.500000e+01
2.500000e+01
2.500000e+01
2.500000e+01
2.500000e+01
3.125000e+01
3.125000e+01
3.125000e+01
3.125000e+01
3.125000e+01
3.125000e+01
3.125000e+01
3.125000e+01
3.125000e+01
3.125000e+01
3.125000e+01
3.125000e+01
3.125000e+01
3.125000e+01
3.125000e+01
3.125000e+01
3.125000e+01
3.125000e+01
3.125000e+01
3.125000e+01
3.125000e+01
3.125000e+01
3.125000e+01
3.125000e+01
3.125000e+01
3.125000e+01
3.125000e+01
3.125000e+01
3.125000e+01
3.125000e+01
3.125000e+01
3.125000e+01
3.125000e+01
3.750000e+01
3.750000e+01
3.750000e+01
3.750000e+01
3.750000e+01
3.750000e+01
3.750000e+01
3.750000e+01
3.750000e+01
3.750000e+01
3.750000e+01
3.750000e+01
3.750000e+01
3.750000e+01
3.750000e+01
3.750000e+01
3.750000e+01
3.750000e+01
3.750000e+01
3.750000e+01
3.750000e+01
3.750000e+01
3.750000e+01
3.750000e+01
3.750000e+01
3.750000e+01
3.750000e+01
3.750000e+01
3.750000e+01
3.750000e+01
3.750000e+01
3.750000e+01
3.750000e+01
4.375000e+01
4.375000e+01
4.375000e+01
4.375000e+01
4.375000e+01
4.375000e+01
4.375000e+01
4.375000e+01
4.375000e+01
4.375000e+01
4.375000e+01
4.375000e+01
4.375000e+01
4.375000e+01
4.375000e+01
4.375000e+01
4.375000e+01
4.375000e+01
4.375000e+01
4.375000e+01
4.375000e+01
4.375000e+01
4.375000e+01
4.375000e+01
4.375000e+01
4.375000e+01
4.375000e+01
4.375000e+01
4.375000e+01
4.375000e+01
4.375000e+01
4.375000e+01
4.375000e+01
5.000000e+01
5.000000e+01
5.000000e+01
5.000000e+01
5.000000e+01
5.000000e+01
5.000000e+01
5.000000e+01
5.000000e+01
5.000000e+01
5.000000e+01
5.000000e+01
5.000000e+01
5.000000e+01
5.000000e+01
5.000000e+01
5.000000e+01
5.000000e+01
5.000000e+01
5.000000e+01
5.000000e+01
5.000000e+01
5.000000e+01
5.000000e+01
5.000000e+01
5.000000e+01
5.000000e+01
5.000000e+01
5.000000e+01
5.000000e+01
5.000000e+01
5.000000e+01
5.000000e+01
5.625000e+01
5.625000e+01
5.625000e+01
5.625000e+01
5.625000e+01
5.625000e+01
5.625000e+01
5.625000e+01
5.625000e+01
5.625000e+01
5.625000e+01
5.625000e+01
5.625000e+01
5.625000e+01
5.625000e+01
5.625000e+01
5.625000e+01
5.625000e+01
5.625000e+01
5.625000e+01
5.625000e+01
5.625000e+01
5.625000e+01
5.625000e+01
5.625000e+01
5.625000e+01
5.625000e+01
5.625000e+01
5.625000e+01
5.625000e+01
5.625000e+01
5.625000e+01
5.625000e+01
6.250000e+01
6.250000e+01
6.250000e+01
6.250000e+01
6.250000e+01
6.250000e+01
6.250000e+01
6.250000e+01
6.250000e+01
6.250000e+01
6.250000e+01
6.250000e+01
6.250000e+01
6.250000e+01
6.250000e+01
6.250000e+01
6.250000e+01
6.250000e+01
6.250000e+01
6.250000e+01
6.250000e+01
6.250000e+01
6.250000e+01
6.250000e+01
6.250000e+01
6.250000e+01
6.250000e+01
6.250000e+01
6.250000e+01
6.250000e+01
6.250000e+01
6.250000e+01
6.250000e+01
6.875000e+01
6.875000e+01
6.875000e+01
6.875000e+01
6.875000e+01
6.875000e+01
6.875000e+01
6.875000e+01
6.875000e+01
6.875000e+01
6.875000e+01
6.875000e+01
6.875000e+01
6.875000e+01
6.875000e+01
6.875000e+01
6.875000e+01
6.875000e+01
6.875000e+01
6.875000e+01
6.875000e+01
6.875000e+01
6.875000e+01
6.875000e+01
6.875000e+01
6.875000e+01
6.875000e+01
6.875000e+01
6.875000e+01
6.875000e+01
6.875000e+01
6.875000e+01
6.875000e+01
7.500000e+01
7.500000e+01
7.500000e+01
7.500000e+01
7.500000e+01
7.500000e+01
7.500000e+01
7.500000e+01
7.500000e+01
7.500000e+01
7.500000e+01
7.500000e+01
7.500000e+01
7.500000e+01
7.500000e+01
7.500000e+01
7.500000e+01
7.500000e+01
7.500000e+01
7.500000e+01
7.500000e+01
7.500000e+01
7.500000e+01
7.500000e+01
7.500000e+01
7.500000e+01
7.500000e+01
7.500000e+01
7.500000e+01
7.500000e+01
7.500000e+01
7.500000e+01
7.500000e+01
8.125000e+01
8.125000e+01
8.125000e+01
8.125000e+01
8.125000e+01
8.125000e+01
8.125000e+01
8.125000e+01
8.125000e+01
8.125000e+01
8.125000e+01
8.125000e+01
8.125000e+01
8.125000e+01
8.125000e+01
8.125000e+01
8.125000e+01
8.125000e+01
8.125000e+01
8.125000e+01
8.125000e+01
8.125000e+01
8.125000e+01
8.125000e+01
8.125000e+01
8.125000e+01
8.125000e+01
8.125000e+01
8.125000e+01
8.125000e+01
8.125000e+01
8.125000e+01
8.125000e+01
8.750000e+01
8.750000e+01
8.750000e+01
8.750000e+01
8.750000e+01
8.750000e+01
8.750000e+01
8.750000e+01
8.750000e+01
8.750000e+01
8.750000e+01
8.750000e+01
8.750000e+01
8.750000e+01
8.750000e+01
8.750000e+01
8.750000e+01
8.750000e+01
8.750000e+01
8.750000e+01
8.750000e+01
8.750000e+01
8.750000e+01
8.750000e+01
8.750000e+01
8.750000e+01
8.750000e+01
8.750000e+01
8.750000e+01
8.750000e+01
8.750000e+01
8.750000e+01
8.750000e+01
9.375000e+01
9.375000e+01
9.375000e+01
9.375000e+01
9.375000e+01
9.375000e+01
9.375000e+01
9.375000e+01
9.375000e+01
9.375000e+01
9.375000e+01
9.375000e+01
9.375000e+01
9.375000e+01
9.375000e+01
9.375000e+01
9.375000e+01
9.375000e+01
9.375000e+01
9.375000e+01
9.375000e+01
9.375000e+01
9.375000e+01
9.375000e+01
9.375000e+01
9.375000e+01
9.375000e+01
9.375000e+01
9.375000e+01
9.375000e+01
9.375000e+01
9.375000e+01
9.375000e+01
1.000000e+02
1.000000e+02
1.000000e+02
1.000000e+02
1.000000e+02
1.000000e+02
1.000000e+02
1.000000e+02
1.000000e+02
1.000000e+02
1.000000e+02
1.000000e+02
1.000000e+02
1.000000e+02
1.000000e+02
1.000000e+02
1.000000e+02
1.000000e+02
1.000000e+02
1.000000e+02
1.000000e+02
1.000000e+02
1.000000e+02
1.000000e+02
1.000000e+02
1.000000e+02
1.000000e+02
1.000000e+02
1.000000e+02
1.000000e+02
1.000000e+02
1.000000e+02
1.000000e+02
0.000000e+00
-3.891807e-02
-7.061172e-02
-9.997136e-02
-1.281482e-01
-1.553572e-01
-1.816529e-01
-2.070330e-01
-2.314816e-01
-2.549808e-01
-2.775160e-01
-2.990770e-01
-3.196584e-01
-3.392601e-01
-3.578863e-01
-3.755472e-01
-3.922583e-01
-4.080428e-01
-4.229323e-01
-4.369698e-01
-4.502122e-01
-4.627352e-01
-4.746383e-01
-4.860541e-01
-4.971598e-01
-5.081963e-01
-5.194985e-01
-5.315435e-01
-5.450316e-01
-5.609932e-01
-5.807649e-01
-6.043274e-01
-6.187074e-01
0.000000e+00
-2.609357e-02
-5.429052e-02
-8.087648e-02
-1.061453e-01
-1.303376e-01
-1.535812e-01
-1.759322e-01
-1.974127e-01
-2.180300e-01
-2.377856e-01
-2.566793e-01
-2.747122e-01
-2.918871e-01
-3.082098e-01
-3.236893e-01
-3.383388e-01
-3.521764e-01
-3.652261e-01
-3.775190e-01
-3.890949e-01
-4.000038e-01
-4.103079e-01
-4.200832e-01
-4.294206e-01
-4.384246e-01
-4.472055e-01
-4.558542e-01
-4.643700e-01
-4.724759e-01
-4.792304e-01
-4.831794e-01
-4.886771e-01
0.000000e+00
-2.069752e-02
-4.261084e-02
-6.492203e-02
-8.660152e-02
-1.074820e-01
-1.275502e-01
-1.468250e-01
-1.653236e-01
-1.830576e-01
-2.000346e-01
-2.162598e-01
-2.317378e-01
-2.464730e-01
-2.604711e-01
-2.737387e-01
-2.862846e-01
-2.981194e-01
-3.092566e-01
-3.197121e-01
-3.295040e-01
-3.386522e-01
-3.471762e-01
-3.550912e-01
-3.624002e-01
-3.690799e-01
-3.750537e-01
-3.801460e-01
-3.840122e-01
-3.860940e-01
-3.859114e-01
-3.847424e-01
-3.911622e-01
0.000000e+00
-1.642165e-02
-3.375024e-02
-5.155318e-02
-6.931433e-02
-8.664521e-02
-1.033974e-01
-1.195177e-01
-1.349917e-01
-1.498187e-01
-1.640026e-01
-1.775482e-01
-1.904600e-01
-2.027420e-01
-2.143980e-01
-2.254311e-01
-2.358445e-01
-2.456408e-01
-2.548220e-01
-2.633887e-01
-2.713386e-01
-2.786644e-01
-2.853500e-01
-2.913642e-01
-2.966515e-01
-3.011185e-01
-3.046175e-01
-3.069346e-01
-3.078192e-01
-3.071624e-01
-3.055673e-01
-3.054720e-01
-3.115886e-01
0.000000e+00
-1.274548e-02
-2.609842e-02
-3.987788e-02
-5.376926e-02
-6.749021e-02
-8.085143e-02
-9.375706e-02
-1.061635e-01
-1.180541e-01
-1.294244e-01
-1.402749e-01
-1.506079e-01
-1.604249e-01
-1.697267e-01
-1.785123e-01
-1.867792e-01
-1.945222e-01
-2.017334e-01
-2.084008e-01
-2.145063e-01
-2.200240e-01
-2.249160e-01
-2.291287e-01
-2.325875e-01
-2.351947e-01
-2.368353e-01
-2.374108e-01
-2.369386e-01
-2.357833e-01
-2.350338e-01
-2.367646e-01
-2.419823e-01
0.000000e+00
-9.367184e-03
-1.913570e-02
-2.921804e-02
-3.943998e-02
-4.961070e-02
-5.957872e-02
-6.924558e-02
-7.855723e-02
-8.748741e-02
-9.602502e-02
-1.041662e-01
-1.119094e-01
-1.192535e-01
-1.261956e-01
-1.327307e-01
-1.388510e-01
-1.445455e-01
-1.497988e-01
-1.545902e-01
-1.588927e-01
-1.626716e-01
-1.658826e-01
-1.684718e-01
-1.703779e-01
-1.715409e-01
-1.719268e-01
-1.715805e-01
-1.707270e-01
-1.699150e-01
-1.701127e-01
-1.723192e-01
-1.766364e-01
0.000000e+00
-6.164731e-03
-1.257331e-02
-1.918518e-02
-2.590605e-02
-3.262279e-02
-3.923410e-02
-4.566615e-02
-5.187272e-02
-5.782833e-02
-6.352010e-02
-6.894155e-02
-7.408853e-02
-7.895675e-02
-8.354036e-02
-8.783095e-02
-9.181697e-02
-9.548308e-02
-9.880963e-02
-1.017721e-01
-1.043408e-01
-1.064808e-01
-1.081532e-01
-1.093186e-01
-1.099448e-01
-1.100225e-01
-1.095944e-01
-1.088021e-01
-1.079472e-01
-1.075328e-01
-1.081793e-01
-1.103276e-01
-1.138125e-01
0.000000e+00
-3.062019e-03
-6.239802e-03
-9.517011e-03
-1.285226e-02
-1.619284e-02
-1.948874e-02
-2.270078e-02
-2.580253e-02
-2.877782e-02
-3.161708e-02
-3.431398e-02
-3.686300e-02
-3.925782e-02
-4.149028e-02
-4.354965e-02
-4.542213e-02
-4.709044e-02
-4.853359e-02
-4.972700e-02
-5.064311e-02
-5.125290e-02
-5.152913e-02
-5.145230e-02
-5.102089e-02
-5.026784e-02
-4.928427e-02
-4.824791e-02
-4.744340e-02
-4.724188e-02
-4.800048e-02
-4.987450e-02
-5.263970e-02
0.000000e+00
-4.939755e-06
-1.071085e-05
-1.699357e-05
-2.345743e-05
-2.965681e-05
-3.492016e-05
-3.822696e-05
-3.806394e-05
-3.225207e-05
-1.773764e-05
9.656207e-06
5.551708e-05
1.271637e-04
2.339840e-04
3.877607e-04
6.029358e-04
8.967297e-04
1.288988e-03
1.801559e-03
2.456904e-03
3.275526e-03
4.271624e-03
5.446280e-03
6.777487e-03
8.206932e-03
9.625172e-03
1.086079e-02
1.168561e-02
1.185286e-02
1.117934e-02
9.654050e-03
7.517802e-03
0.000000e+00
3.052715e-03
6.219587e-03
9.484874e-03
1.280779e-02
1.613646e-02
1.942210e-02
2.262746e-02
2.572890e-02
2.871434e-02
3.157993e-02
3.432719e-02
3.696108e-02
3.948909e-02
4.192077e-02
4.426766e-02
4.654332e-02
4.876321e-02
5.094425e-02
5.310387e-02
5.525820e-02
5.741913e-02
5.958971e-02
6.175790e-02
6.388846e-02
6.591416e-02
6.772895e-02
6.918858e-02
7.012644e-02
7.039195e-02
6.991106e-02
6.875237e-02
6.716686e-02
0.000000e+00
6.157130e-03
1.255668e-02
1.915855e-02
2.586892e-02
3.257528e-02
3.917729e-02
4.560263e-02
5.180734e-02
5.776919e-02
6.347993e-02
6.893942e-02
7.415210e-02
7.912497e-02
8.386679e-02
8.838763e-02
9.269883e-02
9.681268e-02
1.007420e-01
1.044988e-01
1.080930e-01
1.115291e-01
1.148024e-01
1.178940e-01
1.207651e-01
1.233520e-01
1.255647e-01
1.272929e-01
1.284241e-01
1.288763e-01
1.286438e-01
1.278420e-01
1.267354e-01
0.000000e+00
9.362336e-03
1.912490e-02
2.920045e-02
3.941500e-02
4.957810e-02
5.953883e-02
6.919966e-02
7.850795e-02
8.743947e-02
9.598608e-02
1.041480e-01
1.119293e-01
1.193362e-01
1.263755e-01
1.330548e-01
1.393819e-01
1.453649e-01
1.510115e-01
1.563280e-01
1.613184e-01
1.659814e-01
1.703080e-01
1.742778e-01
1.778557e-01
1.809896e-01
1.836122e-01
1.856476e-01
1.870279e-01
1.877195e-01
1.877584e-01
1.872881e-01
1.865888e-01
0.000000e+00
1.274428e-02
2.609540e-02
3.987249e-02
5.376092e-02
6.747846e-02
8.083597e-02
9.373785e-02
1.061410e-01
1.180292e-01
1.293990e-01
1.402524e-01
1.505933e-01
1.604261e-01
1.697548e-01
1.785833e-01
1.869149e-01
1.947523e-01
2.020975e-01
2.089508e-01
2.153100e-01
2.211695e-01
2.265179e-01
2.313367e-01
2.355988e-01
2.392685e-01
2.423038e-01
2.446628e-01
2.463160e-01
2.472658e-01
2.475739e-01
2.473973e-01
2.470289e-01
0.000000e+00
1.642470e-02
3.375645e-02
5.156241e-02
6.932632e-02
8.665962e-02
1.034137e-01
1.195351e-01
1.350089e-01
1.498336e-01
1.640120e-01
1.775473e-01
1.904420e-01
2.026977e-01
2.143145e-01
2.252915e-01
2.356266e-01
2.453164e-01
2.543562e-01
2.627396e-01
2.704580e-01
2.775009e-01
2.838546e-01
2.895033e-01
2.944290e-01
2.986131e-01
3.020400e-01
3.047019e-01
3.066071e-01
3.077910e-01
3.083356e-01
3.084006e-01
3.082783e-01
0.000000e+00
2.070497e-02
4.262673e-02
6.494693e-02
8.663589e-02
1.075262e-01
1.276044e-01
1.468885e-01
1.653947e-01
1.831326e-01
2.001070e-01
2.163193e-01
2.317683e-01
2.464513e-01
2.603635e-01
2.734987e-01
2.858488e-01
2.974037e-01
3.081512e-01
3.180770e-01
3.271648e-01
3.353970e-01
3.427556e-01
3.492241e-01
3.547903e-01
3.594500e-01
3.632116e-01
3.661015e-01
3.681699e-01
3.694946e-01
3.701879e-01
3.704138e-01
3.704407e-01
0.000000e+00
2.610475e-02
5.431494e-02
8.091576e-02
1.062014e-01
1.304124e-01
1.536763e-01
1.760485e-01
1.975499e-01
2.181853e-01
2.379524e-01
2.568459e-01
2.748587e-01
2.919823e-01
3.082073e-01
3.235219e-01
3.379123e-01
3.513615e-01
3.638493e-01
3.753522e-01
3.858437e-01
3.952954e-01
4.036795e-01
4.109720e-01
4.171577e-01
4.222369e-01
4.262337e-01
4.292044e-01
4.312450e-01
4.324954e-01
4.331343e-01
4.333659e-01
4.334226e-01
0.000000e+00
3.893031e-02
7.064027e-02
1.000203e-01
1.282215e-01
1.554587e-01
1.817869e-01
2.072034e-01
2.316914e-01
2.552314e-01
2.778052e-01
2.993971e-01
3.199932e-01
3.395805e-01
3.581452e-01
3.756719e-01
3.921418e-01
4.075322e-01
4.218148e-01
4.349558e-01
4.469157e-01
4.576504e-01
4.671139e-01
4.752628e-01
4.820634e-01
4.875020e-01
4.915981e-01
4.944199e-01
4.961017e-01
4.968596e-01
4.969973e-01
4.968832e-01
4.968190e-01
0.000000e+00
-2.405062e-02
-4.197343e-02
-6.153145e-02
-8.331044e-02
-1.079120e-01
-1.355070e-01
-1.661436e-01
-1.997911e-01
-2.363775e-01
-2.758057e-01
-3.179642e-01
-3.627326e-01
-4.099858e-01
-4.595959e-01
-5.114343e-01
-5.653729e-01
-6.212862e-01
-6.790526e-01
-7.385578e-01
-7.996982e-01
-8.623867e-01
-9.265610e-01
-9.921963e-01
-1.059326e+00
-1.128073e+00
-1.198712e+00
-1.271775e+00
-1.348283e+00
-1.430255e+00
-1.522049e+00
-1.633946e+00
-1.788534e+00
0.000000e+00
-1.494654e-02
-3.370699e-02
-5.339697e-02
-7.547955e-02
-1.003484e-01
-1.282116e-01
-1.591163e-01
-1.930347e-01
-2.298945e-01
-2.695983e-01
-3.120336e-01
-3.570790e-01
-4.046083e-01
-4.544925e-01
-5.066015e-01
-5.608059e-01
-6.169781e-01
-6.749944e-01
-7.347374e-01
-7.961000e-01
-8.589907e-01
-9.233413e-01
-9.891200e-01
-1.056351e+00
-1.125146e+00
-1.195766e+00
-1.268726e+00
-1.345025e+00
-1.426650e+00
-1.517735e+00
-1.627140e+00
-1.771566e+00
0.000000e+00
-1.097909e-02
-2.717438e-02
-4.659577e-02
-6.871695e-02
-9.376907e-02
-1.218522e-01
-1.529925e-01
-1.871524e-01
-2.242564e-01
-2.642054e-01
-3.068859e-01
-3.521762e-01
-3.999493e-01
-4.500760e-01
-5.024256e-01
-5.568681e-01
-6.132751e-01
-6.715221e-01
-7.314909e-01
-7.930732e-01
-8.561769e-01
-9.207337e-01
-9.867126e-01
-1.054141e+00
-1.123137e+00
-1.193971e+00
-1.267174e+00
-1.343732e+00
-1.425434e+00
-1.515333e+00
-1.617042e+00
-1.729868e+00
0.000000e+00
-8.791559e-03
-2.301117e-02
-4.139692e-02
-6.323382e-02
-8.827818e-02
-1.164815e-01
-1.477962e-01
-1.821550e-01
-2.194683e-01
-2.596307e-01
-3.025260e-01
-3.480314e-01
-3.960197e-01
-4.463617e-01
-4.989273e-01
-5.535867e-01
-6.102121e-01
-6.686796e-01
-7.288719e-01
-7.906824e-01
-8.540209e-01
-9.188228e-01
-9.850618e-01
-1.052771e+00
-1.122077e+00
-1.193245e+00
-1.266765e+00
-1.343444e+00
-1.424460e+00
-1.510941e+00
-1.602151e+00
-1.687059e+00
0.000000e+00
-7.439065e-03
-2.028857e-02
-3.770510e-02
-5.904423e-02
-8.392440e-02
-1.121383e-01
-1.435548e-01
-1.780604e-01
-2.155422e-01
-2.558831e-01
-2.989615e-01
-3.446523e-01
-3.928281e-01
-4.433601e-01
-4.961190e-01
-5.509764e-01
-6.078059e-01
-6.664854e-01
-7.268994e-01
-7.889439e-01
-8.525313e-01
-9.175997e-01
-9.841247e-01
-1.052137e+00
-1.121747e+00
-1.193172e+00
-1.266764e+00
-1.342987e+00
-1.422215e+00
-1.504070e+00
-1.585547e+00
-1.659493e+00
0.000000e+00
-6.578457e-03
-1.850219e-02
-3.516454e-02
-5.602332e-02
-8.067044e-02
-1.088230e-01
-1.402798e-01
-1.748820e-01
-2.124901e-01
-2.529725e-01
-2.962002e-01
-3.420454e-01
-3.903798e-01
-4.410753e-01
-4.940040e-01
-5.490391e-01
-6.060562e-01
-6.649349e-01
-7.255619e-01
-7.878343e-01
-8.516652e-01
-9.169908e-01
-9.837796e-01
-1.052043e+00
-1.121848e+00
-1.193316e+00
-1.266602e+00
-1.341791e+00
-1.418629e+00
-1.495946e+00
-1.570979e+00
-1.639559e+00
0.000000e+00
-6.043597e-03
-1.737275e-02
-3.351312e-02
-5.399953e-02
-7.843427e-02
-1.065033e-01
-1.379640e-01
-1.726233e-01
-2.103188e-01
-2.509054e-01
-2.942473e-01
-3.402136e-01
-3.886754e-01
-4.395055e-01
-4.925773e-01
-5.477659e-01
-6.049483e-01
-6.640058e-01
-7.248256e-01
-7.873041e-01
-8.513509e-01
-9.168935e-01
-9.838825e-01
-1.052295e+00
-1.122132e+00
-1.193399e+00
-1.266057e+00
-1.339895e+00
-1.414312e+00
-1.488021e+00
-1.558897e+00
-1.624336e+00
0.000000e+00
-5.749684e-03
-1.674605e-02
-3.258251e-02
-5.283906e-02
-7.713171e-02
-1.051363e-01
-1.365901e-01
-1.712803e-01
-2.090299e-01
-2.496848e-01
-2.931045e-01
-3.391563e-01
-3.877114e-01
-4.386434e-01
-4.918271e-01
-5.471391e-01
-6.044576e-01
-6.636642e-01
-7.246449e-01
-7.872925e-01
-8.515085e-01
-9.172055e-01
-9.843079e-01
-1.052748e+00
-1.122456e+00
-1.193329e+00
-1.265174e+00
-1.337607e+00
-1.409916e+00
-1.480939e+00
-1.549079e+00
-1.612557e+00
0.000000e+00
-5.654986e-03
-1.654386e-02
-3.228089e-02
-5.246085e-02
-7.670541e-02
-1.046885e-01
-1.361418e-01
-1.708466e-01
-2.086215e-01
-2.493097e-01
-2.927699e-01
-3.388694e-01
-3.874803e-01
-4.384774e-01
-4.917369e-01
-5.471364e-01
-6.045544e-01
-6.638715e-01
-7.249709e-01
-7.877388e-01
-8.520654e-01
-9.178438e-01
-9.849679e-01
-1.053324e+00
-1.122777e+00
-1.193137e+00
-1.264115e+00
-1.335253e+00
-1.405848e+00
-1.474920e+00
-1.541248e+00
-1.603530e+00
0.000000e+00
-5.746944e-03
-1.674225e-02
-3.257924e-02
-5.283807e-02
-7.713519e-02
-1.051471e-01
-1.366120e-01
-1.713184e-01
-2.090908e-01
-2.497770e-01
-2.932387e-01
-3.393457e-01
-3.879719e-01
-4.389935e-01
-4.922881e-01
-5.477334e-01
-6.052077e-01
-6.645898e-01
-7.257580e-01
-7.885906e-01
-8.529641e-01
-9.187507e-01
-9.858137e-01
-1.053998e+00
-1.123114e+00
-1.192915e+00
-1.263060e+00
-1.333077e+00
-1.402328e+00
-1.470003e+00
-1.535160e+00
-1.596802e+00
0.000000e+00
-6.038341e-03
-1.736546e-02
-3.350681e-02
-5.399755e-02
-7.844079e-02
-1.065238e-01
-1.380058e-01
-1.726961e-01
-2.104353e-01
-2.510819e-01
-2.945043e-01
-3.405765e-01
-3.891748e-01
-4.401772e-01
-4.934620e-01
-5.489070e-01
-6.063896e-01
-6.657856e-01
-7.269683e-01
-7.898070e-01
-8.541643e-01
-9.198926e-01
-9.868274e-01
-1.054779e+00
-1.123519e+00
-1.192764e+00
-1.262155e+00
-1.331237e+00
-1.399453e+00
-1.466148e+00
-1.530593e+00
-1.592027e+00
0.000000e+00
-6.571151e-03
-1.849205e-02
-3.515573e-02
-5.602047e-02
-8.067937e-02
-1.088514e-01
-1.403379e-01
-1.749834e-01
-2.126525e-01
-2.532187e-01
-2.965592e-01
-3.425526e-01
-3.910782e-01
-4.420153e-01
-4.952426e-01
-5.506378e-01
-6.080769e-01
-6.674327e-01
-7.285733e-01
-7.913595e-01
-8.556413e-01
-9.212537e-01
-9.880097e-01
-1.055693e+00
-1.124049e+00
-1.192774e+00
-1.261506e+00
-1.329825e+00
-1.397252e+00
-1.463269e+00
-1.527336e+00
-1.588896e+00
0.000000e+00
-7.430459e-03
-2.027663e-02
-3.769471e-02
-5.904092e-02
-8.393521e-02
-1.121726e-01
-1.436249e-01
-1.781828e-01
-2.157384e-01
-2.561808e-01
-2.993955e-01
-3.452657e-01
-3.936730e-01
-4.444975e-01
-4.976182e-01
-5.529122e-01
-6.102541e-01
-6.695138e-01
-7.305549e-01
-7.932310e-01
-8.573823e-01
-9.228297e-01
-9.893697e-01
-1.056768e+00
-1.124751e+00
-1.193006e+00
-1.261179e+00
-1.328881e+00
-1.395706e+00
-1.461260e+00
-1.525173e+00
-1.587104e+00
0.000000e+00
-8.782714e-03
-2.299892e-02
-4.138636e-02
-6.323099e-02
-8.829087e-02
-1.165201e-01
-1.478745e-01
-1.822911e-01
-2.196860e-01
-2.599606e-01
-3.030066e-01
-3.487101e-01
-3.969540e-01
-4.476188e-01
-5.005834e-01
-5.557241e-01
-6.129142e-01
-6.720214e-01
-7.329056e-01
-7.954155e-01
-8.593838e-01
-9.246223e-01
-9.909166e-01
-1.058020e+00
-1.125651e+00
-1.193492e+00
-1.261197e+00
-1.328405e+00
-1.394769e+00
-1.459997e+00
-1.523882e+00
-1.586323e+00
0.000000e+00
-1.097138e-02
-2.716365e-02
-4.658685e-02
-6.871610e-02
-9.378452e-02
-1.218949e-01
-1.530767e-01
-1.872971e-01
-2.244862e-01
-2.645518e-01
-3.073886e-01
-3.528841e-01
-4.009212e-01
-4.513805e-01
-5.041404e-01
-5.590764e-01
-6.160607e-01
-6.749593e-01
-7.356298e-01
-7.979175e-01
-8.616510e-01
-9.266372e-01
-9.926557e-01
-1.059455e+00
-1.126750e+00
-1.194223e+00
-1.261537e+00
-1.328351e+00
-1.394359e+00
-1.459342e+00
-1.523233e+00
-1.586187e+00
0.000000e+00
-1.494159e-02
-3.369969e-02
-5.339172e-02
-7.548279e-02
-1.003685e-01
-1.282596e-01
-1.592067e-01
-1.931862e-01
-2.301316e-01
-2.699521e-01
-3.125430e-01
-3.577917e-01
-4.055811e-01
-4.557914e-01
-5.083002e-01
-5.629824e-01
-6.197090e-01
-6.783447e-01
-7.387455e-01
-8.007551e-01
-8.642000e-01
-9.288855e-01
-9.945899e-01
-1.061062e+00
-1.128018e+00
-1.195147e+00
-1.262119e+00
-1.328611e+00
-1.394340e+00
-1.459128e+00
-1.522998e+00
-1.586303e+00
0.000000e+00
-2.404992e-02
-4.197100e-02
-6.153192e-02
-8.332026e-02
-1.079396e-01
-1.355635e-01
-1.662431e-01
-1.999523e-01
-2.366239e-01
-2.761674e-01
-3.184781e-01
-3.634438e-01
-4.109472e-01
-4.608679e-01
-5.130829e-01
-5.674662e-01
-6.238873e-01
-6.822097e-01
-7.422879e-01
-8.039640e-01
-8.670636e-01
-9.313916e-01