TITLE = "Solution"
VARIABLES = x, y, u, v, psiu, psiv, t, stress
ZONE T="structure" N=153 E=128 F=FEBLOCK ET=QUADRILATERAL VARLOCATION=([7,8]=cellcentered)
0.000000e+00
1.250000e+01
2.500000e+01
3.750000e+01
5.000000e+01
6.250000e+01
7.500000e+01
8.750000e+01
1.000000e+02
1.125000e+02
1.250000e+02
1.375000e+02
1.500000e+02
1.625000e+02
1.750000e+02
1.875000e+02
2.000000e+02
0.000000e+00
1.250000e+01
2.500000e+01
3.750000e+01
5.000000e+01
6.250000e+01
7.500000e+01
8.750000e+01
1.000000e+02
1.125000e+02
1.250000e+02
1.375000e+02
1.500000e+02
1.625000e+02
1.750000e+02
1.875000e+02
2.000000e+02
0.000000e+00
1.250000e+01
2.500000e+01
3.750000e+01
5.000000e+01
6.250000e+01
7.500000e+01
8.750000e+01
1.000000e+02
1.125000e+02
1.250000e+02
1.375000e+02
1.500000e+02
1.625000e+02
1.750000e+02
1.875000e+02
2.000000e+02
0.000000e+00
1.250000e+01
2.500000e+01
3.750000e+01
5.000000e+01
6.250000e+01
7.500000e+01
8.750000e+01
1.000000e+02
1.125000e+02
1.250000e+02
1.375000e+02
1.500000e+02
1.625000e+02
1.750000e+02
1.875000e+02
2.000000e+02
0.000000e+00
1.250000e+01
2.500000e+01
3.750000e+01
5.000000e+01
6.250000e+01
7.500000e+01
8.750000e+01
1.000000e+02
1.125000e+02
1.250000e+02
1.375000e+02
1.500000e+02
1.625000e+02
1.750000e+02
1.875000e+02
2.000000e+02
0.000000e+00
1.250000e+01
2.500000e+01
3.750000e+01
5.000000e+01
6.250000e+01
7.500000e+01
8.750000e+01
1.000000e+02
1.125000e+02
1.250000e+02
1.375000e+02
1.500000e+02
1.625000e+02
1.750000e+02
1.875000e+02
2.000000e+02
0.000000e+00
1.250000e+01
2.500000e+01
3.750000e+01
5.000000e+01
6.250000e+01
7.500000e+01
8.750000e+01
1.000000e+02
1.125000e+02
1.250000e+02
1.375000e+02
1.500000e+02
1.625000e+02
1.750000e+02
1.875000e+02
2.000000e+02
0.000000e+00
1.250000e+01
2.500000e+01
3.750000e+01
5.000000e+01
6.250000e+01
7.500000e+01
8.750000e+01
1.000000e+02
1.125000e+02
1.250000e+02
1.375000e+02
1.500000e+02
1.625000e+02
1.750000e+02
1.875000e+02
2.000000e+02
0.000000e+00
1.250000e+01
2.500000e+01
3.750000e+01
5.000000e+01
6.250000e+01
7.500000e+01
8.750000e+01
1.000000e+02
1.125000e+02
1.250000e+02
1.375000e+02
1.500000e+02
1.625000e+02
1.750000e+02
1.875000e+02
2.000000e+02
0.000000e+00
0.000000e+00
0.000000e+00
0.000000e+00
0.000000e+00
0.000000e+00
0.000000e+00
0.000000e+00
0.000000e+00
0.000000e+00
0.000000e+00
0.000000e+00
0.000000e+00
0.000000e+00
0.000000e+00
0.000000e+00
0.000000e+00
1.250000e+01
1.250000e+01
1.250000e+01
1.250000e+01
1.250000e+01
1.250000e+01
1.250000e+01
1.250000e+01
1.250000e+01
1.250000e+01
1.250000e+01
1.250000e+01
1.250000e+01
1.250000e+01
1.250000e+01
1.250000e+01
1.250000e+01
2.500000e+01
2.500000e+01
2.500000e+01
2.500000e+01
2.500000e+01
2.500000e+01
2.500000e+01
2.500000e+01
2.500000e+01
2.500000e+01
2.500000e+01
2.500000e+01
2.500000e+01
2.500000e+01
2.500000e+01
2.500000e+01
2.500000e+01
3.750000e+01
3.750000e+01
3.750000e+01
3.750000e+01
3.750000e+01
3.750000e+01
3.750000e+01
3.750000e+01
3.750000e+01
3.750000e+01
3.750000e+01
3.750000e+01
3.750000e+01
3.750000e+01
3.750000e+01
3.750000e+01
3.750000e+01
5.000000e+01
5.000000e+01
5.000000e+01
5.000000e+01
5.000000e+01
5.000000e+01
5.000000e+01
5.000000e+01
5.000000e+01
5.000000e+01
5.000000e+01
5.000000e+01
5.000000e+01
5.000000e+01
5.000000e+01
5.000000e+01
5.000000e+01
6.250000e+01
6.250000e+01
6.250000e+01
6.250000e+01
6.250000e+01
6.250000e+01
6.250000e+01
6.250000e+01
6.250000e+01
6.250000e+01
6.250000e+01
6.250000e+01
6.250000e+01
6.250000e+01
6.250000e+01
6.250000e+01
6.250000e+01
7.500000e+01
7.500000e+01
7.500000e+01
7.500000e+01
7.500000e+01
7.500000e+01
7.500000e+01
7.500000e+01
7.500000e+01
7.500000e+01
7.500000e+01
7.500000e+01
7.500000e+01
7.500000e+01
7.500000e+01
7.500000e+01
7.500000e+01
8.750000e+01
8.750000e+01
8.750000e+01
8.750000e+01
8.750000e+01
8.750000e+01
8.750000e+01
8.750000e+01
8.750000e+01
8.750000e+01
8.750000e+01
8.750000e+01
8.750000e+01
8.750000e+01
8.750000e+01
8.750000e+01
8.750000e+01
1.000000e+02
1.000000e+02
1.000000e+02
1.000000e+02
1.000000e+02
1.000000e+02
1.000000e+02
1.000000e+02
1.000000e+02
1.000000e+02
1.000000e+02
1.000000e+02
1.000000e+02
1.000000e+02
1.000000e+02
1.000000e+02
1.000000e+02
0.000000e+00
-7.739094e-02
-1.425012e-01
-2.024113e-01
-2.582046e-01
-3.097634e-01
-3.569770e-01
-3.998087e-01
-4.383208e-01
-4.726906e-01
-5.032588e-01
-5.306229e-01
-5.558105e-01
-5.805973e-01
-6.080454e-01
-6.417552e-01
-6.670506e-01
0.000000e+00
-4.621637e-02
-9.600555e-02
-1.419829e-01
-1.843423e-01
-2.232449e-01
-2.587713e-01
-2.909690e-01
-3.198961e-01
-3.456415e-01
-3.683361e-01
-3.881432e-01
-4.051893e-01
-4.192989e-01
-4.292512e-01
-4.314325e-01
-4.392533e-01
0.000000e+00
-2.890233e-02
-5.943046e-02
-8.988694e-02
-1.183173e-01
-1.444204e-01
-1.681752e-01
-1.896084e-01
-2.087253e-01
-2.254940e-01
-2.398243e-01
-2.515159e-01
-2.601520e-01
-2.649729e-01
-2.651067e-01
-2.631809e-01
-2.711574e-01
0.000000e+00
-1.395003e-02
-2.871803e-02
-4.357938e-02
-5.778960e-02
-7.087816e-02
-8.274171e-02
-9.334567e-02
-1.026293e-01
-1.104719e-01
-1.166729e-01
-1.209396e-01
-1.229228e-01
-1.224595e-01
-1.205559e-01
-1.210765e-01
-1.270158e-01
0.000000e+00
-1.285151e-05
-2.921550e-05
-4.552586e-05
-5.418248e-05
-3.823741e-05
3.594897e-05
2.287389e-04
6.391648e-04
1.414741e-03
2.747922e-03
4.832043e-03
7.719347e-03
1.098215e-02
1.323599e-02
1.261784e-02
8.685465e-03
0.000000e+00
1.393025e-02
2.867213e-02
4.350595e-02
5.769826e-02
7.080387e-02
8.277052e-02
9.365673e-02
1.035569e-01
1.125858e-01
1.208614e-01
1.284450e-01
1.352048e-01
1.406254e-01
1.438141e-01
1.440670e-01
1.420711e-01
0.000000e+00
2.889908e-02
5.942057e-02
8.986726e-02
1.182865e-01
1.443822e-01
1.681435e-01
1.896187e-01
2.088524e-01
2.258786e-01
2.407122e-01
2.533170e-01
2.635479e-01
2.711119e-01
2.756521e-01
2.771263e-01
2.766608e-01
0.000000e+00
4.623533e-02
9.604678e-02
1.420486e-01
1.844305e-01
2.233393e-01
2.588243e-01
2.908722e-01
3.194343e-01
3.444281e-01
3.657348e-01
3.832072e-01
3.967055e-01
4.061851e-01
4.118398e-01
4.142512e-01
4.146941e-01
0.000000e+00
7.742264e-02
1.425849e-01
2.025680e-01
2.584549e-01
3.101154e-01
3.573969e-01
4.001618e-01
4.382670e-01
4.715145e-01
4.996159e-01
5.221966e-01
5.388856e-01
5.495517e-01
5.547100e-01
5.559832e-01
5.559586e-01
0.000000e+00
-4.684691e-02
-9.196613e-02
-1.504302e-01
-2.221828e-01
-3.070896e-01
-4.042210e-01
-5.124899e-01
-6.307450e-01
-7.578503e-01
-8.927566e-01
-1.034629e+00
-1.183124e+00
-1.339036e+00
-1.506409e+00
-1.697916e+00
-1.973077e+00
0.000000e+00
-2.883984e-02
-7.590657e-02
-1.350955e-01
-2.080207e-01
-2.940862e-01
-3.923943e-01
-5.018312e-01
-6.212324e-01
-7.494415e-01
-8.853799e-01
-1.028174e+00
-1.177429e+00
-1.333918e+00
-1.501226e+00
-1.691570e+00
-1.924762e+00
0.000000e+00
-2.176227e-02
-6.477330e-02
-1.241807e-01
-1.977953e-01
-2.847467e-01
-3.839583e-01
-4.943058e-01
-6.146325e-01
-7.437984e-01
-8.807459e-01
-1.024632e+00
-1.175098e+00
-1.332789e+00
-1.500241e+00
-1.680599e+00
-1.855147e+00
0.000000e+00
-1.875325e-02
-5.923792e-02
-1.177740e-01
-1.916547e-01
-2.791412e-01
-3.789714e-01
-4.899780e-01
-6.110262e-01
-7.410068e-01
-8.788852e-01
-1.023801e+00
-1.175228e+00
-1.333094e+00
-1.497196e+00
-1.662919e+00
-1.815588e+00
0.000000e+00
-1.788643e-02
-5.756266e-02
-1.157302e-01
-1.896310e-01
-2.773353e-01
-3.774524e-01
-4.888164e-01
-6.103139e-01
-7.408539e-01
-8.793785e-01
-1.024892e+00
-1.176454e+00
-1.332945e+00
-1.492025e+00
-1.648253e+00
-1.792176e+00
0.000000e+00
-1.874212e-02
-5.923000e-02
-1.177881e-01
-1.917239e-01
-2.793237e-01
-3.793616e-01
-4.907171e-01
-6.123004e-01
-7.430153e-01
-8.817353e-01
-1.027256e+00
-1.178168e+00
-1.332553e+00
-1.487444e+00
-1.638314e+00
-1.779166e+00
0.000000e+00
-2.174411e-02
-6.476017e-02
-1.242042e-01
-1.979120e-01
-2.850553e-01
-3.846199e-01
-4.955607e-01
-6.167991e-01
-7.472197e-01
-8.856204e-01
-1.030611e+00
-1.180444e+00
-1.332806e+00
-1.484694e+00
-1.632669e+00
-1.773427e+00
0.000000e+00
-2.882282e-02
-7.589514e-02
-1.351268e-01
-2.081608e-01
-2.944492e-01
-3.931645e-01
-5.032818e-01
-6.237213e-01
-7.533474e-01
-8.909086e-01
-1.034915e+00
-1.183472e+00
-1.334138e+00
-1.484006e+00
-1.630335e+00
-1.772080e+00
0.000000e+00
-4.683988e-02
-9.196711e-02
-1.504785e-01
-2.223452e-01
-3.074775e-01
-4.050091e-01
-5.139277e-01
-6.331421e-01
-7.614968e-01
-8.977102e-01
-1.040260e+00
-1.187237e+00
-1.336254e+00
-1.484591e+00
-1.629908e+00
-1.772101e+00


0.000000e+00
2.937213e-08
5.890653e-08
8.629714e-08
1.119107e-07
1.356041e-07
1.572900e-07
1.769785e-07
1.947256e-07
2.106208e-07
2.247834e-07
2.373429e-07
2.483793e-07
2.578180e-07
2.655489e-07
2.721728e-07
2.780844e-07
0.000000e+00
1.661726e-08
4.039220e-08
6.170522e-08
8.117495e-08
9.905593e-08
1.153473e-07
1.300644e-07
1.432329e-07
1.548749e-07
1.649977e-07
1.735808e-07
1.805878e-07
1.861683e-07
1.912672e-07
1.973466e-07
2.036264e-07
0.000000e+00
1.053536e-08
2.561005e-08
3.970205e-08
5.278467e-08
6.476719e-08
7.561614e-08
8.533135e-08
9.390900e-08
1.013295e-07
1.075580e-07
1.125706e-07
1.164507e-07
1.196028e-07
1.229341e-07
1.274564e-07
1.326964e-07
0.000000e+00
5.166357e-09
1.229522e-08
1.920116e-08
2.574617e-08
3.173232e-08
3.710252e-08
4.183978e-08
4.592253e-08
4.932040e-08
5.200804e-08
5.400501e-08
5.544993e-08
5.668807e-08
5.828811e-08
6.092487e-08
6.455827e-08
0.000000e+00
4.926690e-12
5.826939e-12
-3.765722e-12
-3.270782e-11
-9.510961e-11
-2.116356e-10
-4.097807e-10
-7.213810e-10
-1.174662e-09
-1.776749e-09
-2.484463e-09
-3.170423e-09
-3.602414e-09
-3.425167e-09
-2.183822e-09
1.982748e-10
0.000000e+00
-5.157117e-09
-1.228322e-08
-1.920340e-08
-2.579416e-08
-3.188115e-08
-3.744253e-08
-4.250883e-08
-4.711507e-08
-5.128393e-08
-5.501095e-08
-5.824842e-08
-6.089541e-08
-6.280009e-08
-6.377471e-08
-6.358620e-08
-6.228360e-08
0.000000e+00
-1.052949e-08
-2.560165e-08
-3.969779e-08
-5.279706e-08
-6.481982e-08
-7.574996e-08
-8.561205e-08
-9.443380e-08
-1.022296e-07
-1.089882e-07
-1.146631e-07
-1.191705e-07
-1.224101e-07
-1.243320e-07
-1.249720e-07
-1.245875e-07
0.000000e+00
-1.662344e-08
-4.040472e-08
-6.171688e-08
-8.117386e-08
-9.902172e-08
-1.152464e-07
-1.298449e-07
-1.428198e-07
-1.541674e-07
-1.638731e-07
-1.719088e-07
-1.782335e-07
-1.828123e-07
-1.856903e-07
-1.871049e-07
-1.874462e-07
0.000000e+00
-2.940621e-08
-5.896687e-08
-8.637169e-08
-1.119744e-07
-1.356046e-07
-1.571286e-07
-1.764846e-07
-1.936268e-07
-2.085144e-07
-2.211174e-07
-2.314288e-07
-2.394768e-07
-2.453358e-07
-2.491483e-07
-2.511169e-07
-2.517483e-07
0.000000e+00
2.659299e-08
5.176367e-08
7.996468e-08
1.136043e-07
1.530296e-07
1.979698e-07
2.479954e-07
3.026162e-07
3.613592e-07
4.238211e-07
4.897521e-07
5.592790e-07
6.333910e-07
7.139211e-07
7.994613e-07
8.843604e-07
0.000000e+00
1.603630e-08
4.050326e-08
6.896243e-08
1.032991e-07
1.435536e-07
1.893736e-07
2.402750e-07
2.957557e-07
3.553375e-07
4.186107e-07
4.853082e-07
5.554326e-07
6.294190e-07
7.079949e-07
7.913618e-07
8.751388e-07
0.000000e+00
1.015728e-08
3.148222e-08
5.994500e-08
9.481120e-08
1.357823e-07
1.823643e-07
2.340370e-07
2.902909e-07
3.506466e-07
4.146816e-07
4.820656e-07
5.525730e-07
6.259982e-07
7.022237e-07
7.825514e-07
8.636363e-07
0.000000e+00
7.420292e-09
2.675168e-08
5.470141e-08
8.981460e-08
1.312265e-07
1.783005e-07
2.304846e-07
2.872636e-07
3.481501e-07
4.126882e-07
4.804473e-07
5.509758e-07
6.237106e-07
6.982034e-07
7.754492e-07
8.525172e-07
0.000000e+00
6.636599e-09
2.532141e-08
5.301709e-08
8.819725e-08
1.297837e-07
1.770677e-07
2.294831e-07
2.865085e-07
3.476394e-07
4.123738e-07
4.801865e-07
5.504759e-07
6.224983e-07
6.955254e-07
7.700235e-07
8.431447e-07
0.000000e+00
7.426348e-09
2.677403e-08
5.475644e-08
8.992382e-08
1.314192e-07
1.786134e-07
2.309563e-07
2.879212e-07
3.489809e-07
4.135886e-07
4.811500e-07
5.509766e-07
6.222232e-07
6.939803e-07
7.661893e-07
8.364350e-07
0.000000e+00
1.016704e-08
3.152117e-08
6.004151e-08
9.500287e-08
1.361209e-07
1.829145e-07
2.348674e-07
2.914498e-07
3.521121e-07
4.162698e-07
4.832805e-07
5.524078e-07
6.227700e-07
6.933959e-07
7.638946e-07
8.323541e-07
0.000000e+00
1.604873e-08
4.055283e-08
6.908153e-08
1.035333e-07
1.439652e-07
1.900394e-07
2.412748e-07
2.971416e-07
3.570718e-07
4.204509e-07
4.866012e-07
5.547604e-07
6.240614e-07
6.936080e-07
7.628636e-07
8.304091e-07
0.000000e+00
2.661355e-08
5.182181e-08
8.009344e-08
1.138486e-07
1.534486e-07
1.986339e-07
2.489711e-07
3.039320e-07
3.629387e-07
4.253609e-07
4.905031e-07
5.575952e-07
6.258036e-07
6.943380e-07
7.626960e-07
8.298429e-07


2.261278e-01
2.261278e-01
2.261288e-01
2.261305e-01
2.261319e-01
2.261332e-01
2.261343e-01
2.261352e-01
2.261361e-01
2.261368e-01
2.261374e-01
2.261379e-01
2.261382e-01
2.261382e-01
2.261378e-01
2.261375e-01
2.261302e-01
2.261301e-01
2.261308e-01
2.261320e-01
2.261331e-01
2.261341e-01
2.261350e-01
2.261358e-01
2.261365e-01
2.261371e-01
2.261376e-01
2.261380e-01
2.261382e-01
2.261381e-01
2.261378e-01
2.261375e-01
2.261340e-01
2.261338e-01
2.261341e-01
2.261347e-01
2.261353e-01
2.261358e-01
2.261363e-01
2.261368e-01
2.261372e-01
2.261376e-01
2.261379e-01
2.261381e-01
2.261382e-01
2.261381e-01
2.261378e-01
2.261376e-01
2.261367e-01
2.261365e-01
2.261364e-01
2.261365e-01
2.261368e-01
2.261370e-01
2.261373e-01
2.261375e-01
2.261377e-01
2.261379e-01
2.261380e-01
2.261381e-01
2.261382e-01
2.261381e-01
2.261380e-01
2.261380e-01
2.261367e-01
2.261365e-01
2.261364e-01
2.261365e-01
2.261368e-01
2.261370e-01
2.261372e-01
2.261374e-01
2.261376e-01
2.261378e-01
2.261379e-01
2.261380e-01
2.261381e-01
2.261382e-01
2.261383e-01
2.261384e-01
2.261340e-01
2.261338e-01
2.261341e-01
2.261347e-01
2.261352e-01
2.261358e-01
2.261363e-01
2.261367e-01
2.261371e-01
2.261374e-01
2.261377e-01
2.261380e-01
2.261382e-01
2.261384e-01
2.261386e-01
2.261387e-01
2.261302e-01
2.261301e-01
2.261308e-01
2.261320e-01
2.261331e-01
2.261341e-01
2.261350e-01
2.261358e-01
2.261365e-01
2.261370e-01
2.261375e-01
2.261380e-01
2.261383e-01
2.261386e-01
2.261388e-01
2.261389e-01
2.261278e-01
2.261278e-01
2.261288e-01
2.261305e-01
2.261319e-01
2.261332e-01
2.261343e-01
2.261353e-01
2.261361e-01
2.261369e-01
2.261375e-01
2.261380e-01
2.261384e-01
2.261387e-01
2.261389e-01
2.261390e-01


9.865250e-01
9.884358e-01
9.902035e-01
9.915641e-01
9.928272e-01
9.939918e-01
9.950529e-01
9.959980e-01
9.968171e-01
9.975022e-01
9.980470e-01
9.984461e-01
9.986941e-01
9.987826e-01
9.988465e-01
9.949082e-01
9.949022e-01
9.940265e-01
9.945898e-01
9.953251e-01
9.960106e-01
9.966337e-01
9.971977e-01
9.977086e-01
9.981711e-01
9.985901e-01
9.989703e-01
9.993146e-01
9.996150e-01
9.998116e-01
9.993143e-01
9.925727e-01
9.982287e-01
9.977258e-01
9.975900e-01
9.977810e-01
9.980322e-01
9.982755e-01
9.985015e-01
9.987150e-01
9.989218e-01
9.991234e-01
9.993117e-01
9.994575e-01
9.994880e-01
9.992254e-01
9.982728e-01
9.965596e-01
9.996395e-01
9.992727e-01
9.990461e-01
9.989886e-01
9.990115e-01
9.990501e-01
9.990885e-01
9.991261e-01
9.991630e-01
9.991939e-01
9.992024e-01
9.991565e-01
9.990109e-01
9.987495e-01
9.985278e-01
9.984717e-01
9.996409e-01
9.992746e-01
9.990478e-01
9.989882e-01
9.990058e-01
9.990336e-01
9.990529e-01
9.990594e-01
9.990505e-01
9.990221e-01
9.989692e-01
9.988930e-01
9.988204e-01
9.988348e-01
9.990400e-01
9.993951e-01
9.982313e-01
9.977296e-01
9.975937e-01
9.977810e-01
9.980224e-01
9.982454e-01
9.984341e-01
9.985857e-01
9.986993e-01
9.987758e-01
9.988241e-01
9.988714e-01
9.989708e-01
9.991790e-01
9.994918e-01
9.998152e-01
9.949017e-01
9.940261e-01
9.945891e-01
9.953230e-01
9.960052e-01
9.966214e-01
9.971723e-01
9.976601e-01
9.980851e-01
9.984484e-01
9.987560e-01
9.990246e-01
9.992833e-01
9.995545e-01
9.998082e-01
9.999679e-01
9.865158e-01
9.884214e-01
9.901858e-01
9.915443e-01
9.928094e-01
9.939854e-01
9.950748e-01
9.960752e-01
9.969867e-01
9.978076e-01
9.985281e-01
9.991258e-01
9.995705e-01
9.998448e-01
9.999696e-01
9.999994e-01
1 2 19 18
2 3 20 19
3 4 21 20
4 5 22 21
5 6 23 22
6 7 24 23
7 8 25 24
8 9 26 25
9 10 27 26
10 11 28 27
11 12 29 28
12 13 30 29
13 14 31 30
14 15 32 31
15 16 33 32
16 17 34 33
18 19 36 35
19 20 37 36
20 21 38 37
21 22 39 38
22 23 40 39
23 24 41 40
24 25 42 41
25 26 43 42
26 27 44 43
27 28 45 44
28 29 46 45
29 30 47 46
30 31 48 47
31 32 49 48
32 33 50 49
33 34 51 50
35 36 53 52
36 37 54 53
37 38 55 54
38 39 56 55
39 40 57 56
40 41 58 57
41 42 59 58
42 43 60 59
43 44 61 60
44 45 62 61
45 46 63 62
46 47 64 63
47 48 65 64
48 49 66 65
49 50 67 66
50 51 68 67
52 53 70 69
53 54 71 70
54 55 72 71
55 56 73 72
56 57 74 73
57 58 75 74
58 59 76 75
59 60 77 76
60 61 78 77
61 62 79 78
62 63 80 79
63 64 81 80
64 65 82 81
65 66 83 82
66 67 84 83
67 68 85 84
69 70 87 86
70 71 88 87
71 72 89 88
72 73 90 89
73 74 91 90
74 75 92 91
75 76 93 92
76 77 94 93
77 78 95 94
78 79 96 95
79 80 97 96
80 81 98 97
81 82 99 98
82 83 100 99
83 84 101 100
84 85 102 101
86 87 104 103
87 88 105 104
88 89 106 105
89 90 107 106
90 91 108 107
91 92 109 108
92 93 110 109
93 94 111 110
94 95 112 111
95 96 113 112
96 97 114 113
97 98 115 114
98 99 116 115
99 100 117 116
100 101 118 117
101 102 119 118
103 104 121 120
104 105 122 121
105 106 123 122
106 107 124 123
107 108 125 124
108 109 126 125
109 110 127 126
110 111 128 127
111 112 129 128
112 113 130 129
113 114 131 130
114 115 132 131
115 116 133 132
116 117 134 133
117 118 135 134
118 119 136 135
120 121 138 137
121 122 139 138
122 123 140 139
123 124 141 140
124 125 142 141
125 126 143 142
126 127 144 143
127 128 145 144
128 129 146 145
129 130 147 146
130 131 148 147
131 132 149 148
132 133 150 149
133 134 151 150
134 135 152 151
135 136 153 152
