TITLE = "Solution"
VARIABLES = x, y, u, v, psiu, psiv, t, stress
ZONE T="structure" N=153 E=128 F=FEBLOCK ET=QUADRILATERAL VARLOCATION=([7,8]=cellcentered)
0.000000e+00
1.250000e+01
2.500000e+01
3.750000e+01
5.000000e+01
6.250000e+01
7.500000e+01
8.750000e+01
1.000000e+02
1.125000e+02
1.250000e+02
1.375000e+02
1.500000e+02
1.625000e+02
1.750000e+02
1.875000e+02
2.000000e+02
0.000000e+00
1.250000e+01
2.500000e+01
3.750000e+01
5.000000e+01
6.250000e+01
7.500000e+01
8.750000e+01
1.000000e+02
1.125000e+02
1.250000e+02
1.375000e+02
1.500000e+02
1.625000e+02
1.750000e+02
1.875000e+02
2.000000e+02
0.000000e+00
1.250000e+01
2.500000e+01
3.750000e+01
5.000000e+01
6.250000e+01
7.500000e+01
8.750000e+01
1.000000e+02
1.125000e+02
1.250000e+02
1.375000e+02
1.500000e+02
1.625000e+02
1.750000e+02
1.875000e+02
2.000000e+02
0.000000e+00
1.250000e+01
2.500000e+01
3.750000e+01
5.000000e+01
6.250000e+01
7.500000e+01
8.750000e+01
1.000000e+02
1.125000e+02
1.250000e+02
1.375000e+02
1.500000e+02
1.625000e+02
1.750000e+02
1.875000e+02
2.000000e+02
0.000000e+00
1.250000e+01
2.500000e+01
3.750000e+01
5.000000e+01
6.250000e+01
7.500000e+01
8.750000e+01
1.000000e+02
1.125000e+02
1.250000e+02
1.375000e+02
1.500000e+02
1.625000e+02
1.750000e+02
1.875000e+02
2.000000e+02
0.000000e+00
1.250000e+01
2.500000e+01
3.750000e+01
5.000000e+01
6.250000e+01
7.500000e+01
8.750000e+01
1.000000e+02
1.125000e+02
1.250000e+02
1.375000e+02
1.500000e+02
1.625000e+02
1.750000e+02
1.875000e+02
2.000000e+02
0.000000e+00
1.250000e+01
2.500000e+01
3.750000e+01
5.000000e+01
6.250000e+01
7.500000e+01
8.750000e+01
1.000000e+02
1.125000e+02
1.250000e+02
1.375000e+02
1.500000e+02
1.625000e+02
1.750000e+02
1.875000e+02
2.000000e+02
0.000000e+00
1.250000e+01
2.500000e+01
3.750000e+01
5.000000e+01
6.250000e+01
7.500000e+01
8.750000e+01
1.000000e+02
1.125000e+02
1.250000e+02
1.375000e+02
1.500000e+02
1.625000e+02
1.750000e+02
1.875000e+02
2.000000e+02
0.000000e+00
1.250000e+01
2.500000e+01
3.750000e+01
5.000000e+01
6.250000e+01
7.500000e+01
8.750000e+01
1.000000e+02
1.125000e+02
1.250000e+02
1.375000e+02
1.500000e+02
1.625000e+02
1.750000e+02
1.875000e+02
2.000000e+02
0.000000e+00
0.000000e+00
0.000000e+00
0.000000e+00
0.000000e+00
0.000000e+00
0.000000e+00
0.000000e+00
0.000000e+00
0.000000e+00
0.000000e+00
0.000000e+00
0.000000e+00
0.000000e+00
0.000000e+00
0.000000e+00
0.000000e+00
1.250000e+01
1.250000e+01
1.250000e+01
1.250000e+01
1.250000e+01
1.250000e+01
1.250000e+01
1.250000e+01
1.250000e+01
1.250000e+01
1.250000e+01
1.250000e+01
1.250000e+01
1.250000e+01
1.250000e+01
1.250000e+01
1.250000e+01
2.500000e+01
2.500000e+01
2.500000e+01
2.500000e+01
2.500000e+01
2.500000e+01
2.500000e+01
2.500000e+01
2.500000e+01
2.500000e+01
2.500000e+01
2.500000e+01
2.500000e+01
2.500000e+01
2.500000e+01
2.500000e+01
2.500000e+01
3.750000e+01
3.750000e+01
3.750000e+01
3.750000e+01
3.750000e+01
3.750000e+01
3.750000e+01
3.750000e+01
3.750000e+01
3.750000e+01
3.750000e+01
3.750000e+01
3.750000e+01
3.750000e+01
3.750000e+01
3.750000e+01
3.750000e+01
5.000000e+01
5.000000e+01
5.000000e+01
5.000000e+01
5.000000e+01
5.000000e+01
5.000000e+01
5.000000e+01
5.000000e+01
5.000000e+01
5.000000e+01
5.000000e+01
5.000000e+01
5.000000e+01
5.000000e+01
5.000000e+01
5.000000e+01
6.250000e+01
6.250000e+01
6.250000e+01
6.250000e+01
6.250000e+01
6.250000e+01
6.250000e+01
6.250000e+01
6.250000e+01
6.250000e+01
6.250000e+01
6.250000e+01
6.250000e+01
6.250000e+01
6.250000e+01
6.250000e+01
6.250000e+01
7.500000e+01
7.500000e+01
7.500000e+01
7.500000e+01
7.500000e+01
7.500000e+01
7.500000e+01
7.500000e+01
7.500000e+01
7.500000e+01
7.500000e+01
7.500000e+01
7.500000e+01
7.500000e+01
7.500000e+01
7.500000e+01
7.500000e+01
8.750000e+01
8.750000e+01
8.750000e+01
8.750000e+01
8.750000e+01
8.750000e+01
8.750000e+01
8.750000e+01
8.750000e+01
8.750000e+01
8.750000e+01
8.750000e+01
8.750000e+01
8.750000e+01
8.750000e+01
8.750000e+01
8.750000e+01
1.000000e+02
1.000000e+02
1.000000e+02
1.000000e+02
1.000000e+02
1.000000e+02
1.000000e+02
1.000000e+02
1.000000e+02
1.000000e+02
1.000000e+02
1.000000e+02
1.000000e+02
1.000000e+02
1.000000e+02
1.000000e+02
1.000000e+02
0.000000e+00
-7.255326e-02
-1.335935e-01
-1.897585e-01
-2.420639e-01
-2.903994e-01
-3.346611e-01
-3.748149e-01
-4.109190e-01
-4.431398e-01
-4.717966e-01
-4.974496e-01
-5.210622e-01
-5.442991e-01
-5.700308e-01
-6.016327e-01
-6.253464e-01
0.000000e+00
-4.332748e-02
-9.000441e-02
-1.331076e-01
-1.728190e-01
-2.092895e-01
-2.425947e-01
-2.727794e-01
-2.998978e-01
-3.240335e-01
-3.453089e-01
-3.638775e-01
-3.798578e-01
-3.930851e-01
-4.024150e-01
-4.044600e-01
-4.117917e-01
0.000000e+00
-2.709574e-02
-5.571563e-02
-8.426825e-02
-1.109213e-01
-1.353925e-01
-1.576621e-01
-1.777553e-01
-1.956769e-01
-2.113972e-01
-2.248314e-01
-2.357919e-01
-2.438880e-01
-2.484074e-01
-2.485329e-01
-2.467274e-01
-2.542052e-01
0.000000e+00
-1.307807e-02
-2.692297e-02
-4.085533e-02
-5.417720e-02
-6.644750e-02
-7.756934e-02
-8.751032e-02
-9.621352e-02
-1.035657e-01
-1.093790e-01
-1.133789e-01
-1.152381e-01
-1.148038e-01
-1.130192e-01
-1.135072e-01
-1.190752e-01
0.000000e+00
-1.204780e-05
-2.738840e-05
-4.267866e-05
-5.079369e-05
-3.584525e-05
3.370277e-05
2.144382e-04
5.992007e-04
1.326281e-03
2.576097e-03
4.529897e-03
7.236654e-03
1.029543e-02
1.240833e-02
1.182884e-02
8.142352e-03
0.000000e+00
1.305953e-02
2.687993e-02
4.078649e-02
5.409158e-02
6.637786e-02
7.759635e-02
8.780192e-02
9.708306e-02
1.055474e-01
1.133056e-01
1.204149e-01
1.267521e-01
1.318337e-01
1.348230e-01
1.350601e-01
1.331890e-01
0.000000e+00
2.709270e-02
5.570636e-02
8.424980e-02
1.108925e-01
1.353567e-01
1.576324e-01
1.777649e-01
1.957960e-01
2.117577e-01
2.256638e-01
2.374804e-01
2.470715e-01
2.541626e-01
2.584188e-01
2.598008e-01
2.593645e-01
0.000000e+00
4.334525e-02
9.004305e-02
1.331692e-01
1.729016e-01
2.093780e-01
2.426444e-01
2.726886e-01
2.994649e-01
3.228959e-01
3.428703e-01
3.592502e-01
3.719045e-01
3.807912e-01
3.860924e-01
3.883530e-01
3.887682e-01
0.000000e+00
7.258298e-02
1.336719e-01
1.899054e-01
2.422985e-01
2.907294e-01
3.350548e-01
3.751459e-01
4.108686e-01
4.420372e-01
4.683815e-01
4.895502e-01
5.051957e-01
5.151948e-01
5.200305e-01
5.212241e-01
5.212011e-01
0.000000e+00
-4.391850e-02
-8.621718e-02
-1.410264e-01
-2.082935e-01
-2.878924e-01
-3.789516e-01
-4.804519e-01
-5.913141e-01
-7.104732e-01
-8.369454e-01
-9.699477e-01
-1.109160e+00
-1.255324e+00
-1.412233e+00
-1.591766e+00
-1.849723e+00
0.000000e+00
-2.703704e-02
-7.116151e-02
-1.266504e-01
-1.950168e-01
-2.757020e-01
-3.678643e-01
-4.704597e-01
-5.823964e-01
-7.025902e-01
-8.300300e-01
-9.638971e-01
-1.103821e+00
-1.250526e+00
-1.407373e+00
-1.585817e+00
-1.804429e+00
0.000000e+00
-2.040187e-02
-6.072417e-02
-1.164179e-01
-1.854306e-01
-2.669463e-01
-3.599557e-01
-4.634048e-01
-5.762091e-01
-6.972999e-01
-8.256858e-01
-9.605759e-01
-1.101635e+00
-1.249468e+00
-1.406450e+00
-1.575532e+00
-1.739167e+00
0.000000e+00
-1.758090e-02
-5.553478e-02
-1.104116e-01
-1.796738e-01
-2.616913e-01
-3.552806e-01
-4.593476e-01
-5.728283e-01
-6.946829e-01
-8.239413e-01
-9.597976e-01
-1.101757e+00
-1.249753e+00
-1.403596e+00
-1.558958e+00
-1.702082e+00
0.000000e+00
-1.676825e-02
-5.396424e-02
-1.084956e-01
-1.777767e-01
-2.599982e-01
-3.538566e-01
-4.582586e-01
-5.721605e-01
-6.945395e-01
-8.244039e-01
-9.608200e-01
-1.102906e+00
-1.249614e+00
-1.398748e+00
-1.545208e+00
-1.680134e+00
0.000000e+00
-1.757047e-02
-5.552736e-02
-1.104248e-01
-1.797388e-01
-2.618623e-01
-3.556464e-01
-4.600404e-01
-5.740228e-01
-6.965657e-01
-8.266133e-01
-9.630358e-01
-1.104514e+00
-1.249246e+00
-1.394453e+00
-1.535891e+00
-1.667937e+00
0.000000e+00
-2.038484e-02
-6.071186e-02
-1.164399e-01
-1.855400e-01
-2.672356e-01
-3.605760e-01
-4.645813e-01
-5.782402e-01
-7.005072e-01
-8.302554e-01
-9.661814e-01
-1.106647e+00
-1.249484e+00
-1.391876e+00
-1.530599e+00
-1.662557e+00
0.000000e+00
-2.702108e-02
-7.115079e-02
-1.266797e-01
-1.951481e-01
-2.760422e-01
-3.685863e-01
-4.718195e-01
-5.847296e-01
-7.062518e-01
-8.352130e-01
-9.702167e-01
-1.109486e+00
-1.250732e+00
-1.391230e+00
-1.528411e+00
-1.661295e+00
0.000000e+00
-4.391191e-02
-8.621810e-02
-1.410718e-01
-2.084457e-01
-2.882560e-01
-3.796904e-01
-4.817999e-01
-5.935614e-01
-7.138917e-01
-8.415892e-01
-9.752268e-01
-1.113015e+00
-1.252716e+00
-1.391779e+00
-1.528011e+00
-1.661314e+00


0.000000e+00
8.476316e-08
1.698526e-07
2.488671e-07
3.229503e-07
3.916841e-07
4.547835e-07
5.122346e-07
5.641573e-07
6.107732e-07
6.523946e-07
6.893687e-07
7.218995e-07
7.497343e-07
7.725181e-07
7.919923e-07
8.093247e-07
0.000000e+00
4.769435e-08
1.160477e-07
1.774947e-07
2.338182e-07
2.857214e-07
3.331611e-07
3.761416e-07
4.147007e-07
4.488693e-07
4.786399e-07
5.039270e-07
5.246040e-07
5.410979e-07
5.561639e-07
5.740528e-07
5.924707e-07
0.000000e+00
3.006744e-08
7.335787e-08
1.139633e-07
1.518043e-07
1.865965e-07
2.182065e-07
2.465995e-07
2.717351e-07
2.935310e-07
3.118643e-07
3.266479e-07
3.381146e-07
3.474429e-07
3.572837e-07
3.705856e-07
3.859588e-07
0.000000e+00
1.469290e-08
3.517143e-08
5.505887e-08
7.398177e-08
9.135970e-08
1.070067e-07
1.208532e-07
1.328195e-07
1.428027e-07
1.507173e-07
1.566110e-07
1.608830e-07
1.645413e-07
1.692559e-07
1.770092e-07
1.876809e-07
0.000000e+00
1.525703e-11
1.882285e-11
-8.353615e-12
-9.230942e-11
-2.745813e-10
-6.160668e-10
-1.197803e-09
-2.113807e-09
-3.447684e-09
-5.221336e-09
-7.309270e-09
-9.338299e-09
-1.062464e-08
-1.011579e-08
-6.466350e-09
5.428555e-10
0.000000e+00
-1.466438e-08
-3.513324e-08
-5.506080e-08
-7.411632e-08
-9.178892e-08
-1.079965e-07
-1.228099e-07
-1.363163e-07
-1.485699e-07
-1.595474e-07
-1.690999e-07
-1.769225e-07
-1.825595e-07
-1.854478e-07
-1.848964e-07
-1.810576e-07
0.000000e+00
-3.004946e-08
-7.333138e-08
-1.139477e-07
-1.518363e-07
-1.867455e-07
-2.185934e-07
-2.474186e-07
-2.732738e-07
-2.961772e-07
-3.160748e-07
-3.328110e-07
-3.461218e-07
-3.556969e-07
-3.613788e-07
-3.632709e-07
-3.621375e-07
0.000000e+00
-4.771246e-08
-1.160838e-07
-1.775275e-07
-2.338125e-07
-2.856172e-07
-3.328596e-07
-3.754901e-07
-4.134786e-07
-4.467799e-07
-4.753210e-07
-4.989916e-07
-5.176469e-07
-5.311647e-07
-5.396654e-07
-5.438447e-07
-5.448542e-07
0.000000e+00
-8.486318e-08
-1.700298e-07
-2.490862e-07
-3.231376e-07
-3.916858e-07
-4.543082e-07
-5.107788e-07
-5.609174e-07
-6.045594e-07
-6.415757e-07
-6.719105e-07
-6.956183e-07
-7.128960e-07
-7.241490e-07
-7.299655e-07
-7.318336e-07
0.000000e+00
7.673538e-08
1.496751e-07
2.315133e-07
3.291213e-07
4.435062e-07
5.739156e-07
7.191412e-07
8.777919e-07
1.048518e-06
1.230162e-06
1.422012e-06
1.624454e-06
1.840396e-06
2.075170e-06
2.324554e-06
2.571985e-06
0.000000e+00
4.640844e-08
1.173004e-07
1.997871e-07
2.993030e-07
4.159937e-07
5.488768e-07
6.965868e-07
8.576968e-07
1.030838e-06
1.214833e-06
1.408916e-06
1.613103e-06
1.828674e-06
2.057735e-06
2.300794e-06
2.544967e-06
0.000000e+00
2.955033e-08
9.134792e-08
1.737505e-07
2.747067e-07
3.933957e-07
5.284308e-07
6.783401e-07
8.416723e-07
1.017053e-06
1.203264e-06
1.399350e-06
1.604655e-06
1.818575e-06
2.040758e-06
2.274942e-06
2.511247e-06
0.000000e+00
2.167585e-08
7.769772e-08
1.585711e-07
2.601921e-07
3.801187e-07
5.165539e-07
6.679327e-07
8.327841e-07
1.009709e-06
1.197389e-06
1.394572e-06
1.599935e-06
1.811826e-06
2.028921e-06
2.254078e-06
2.478618e-06
0.000000e+00
1.941342e-08
7.355966e-08
1.536886e-07
2.554891e-07
3.759110e-07
5.129500e-07
6.649992e-07
8.305691e-07
1.008208e-06
1.196462e-06
1.393801e-06
1.598459e-06
1.808250e-06
2.021022e-06
2.238104e-06
2.451073e-06
0.000000e+00
2.169337e-08
7.776337e-08
1.587334e-07
2.605146e-07
3.806880e-07
5.174779e-07
6.693253e-07
8.347248e-07
1.012159e-06
1.200043e-06
1.396642e-06
1.599936e-06
1.807435e-06
2.016452e-06
2.226792e-06
2.431321e-06
0.000000e+00
2.957860e-08
9.146229e-08
1.740350e-07
2.752724e-07
3.943954e-07
5.300552e-07
6.807906e-07
8.450905e-07
1.021373e-06
1.207943e-06
1.402925e-06
1.604158e-06
1.809045e-06
2.014717e-06
2.220015e-06
2.419290e-06
0.000000e+00
4.644434e-08
1.174456e-07
2.001374e-07
2.999933e-07
4.172075e-07
5.508410e-07
6.995359e-07
8.617833e-07
1.035949e-06
1.220252e-06
1.412714e-06
1.611100e-06
1.812857e-06
2.015340e-06
2.216968e-06
2.413547e-06
0.000000e+00
7.679485e-08
1.498449e-07
2.318913e-07
3.298402e-07
4.447412e-07
5.758739e-07
7.220187e-07
8.816719e-07
1.053173e-06
1.234695e-06
1.424210e-06
1.619462e-06
1.818000e-06
2.017495e-06
2.216472e-06
2.411872e-06


2.119937e-01
2.119937e-01
2.119940e-01
2.119945e-01
2.119951e-01
2.119955e-01
2.119960e-01
2.119964e-01
2.119967e-01
2.119970e-01
2.119972e-01
2.119974e-01
2.119975e-01
2.119974e-01
2.119972e-01
2.119970e-01
2.119946e-01
2.119945e-01
2.119947e-01
2.119952e-01
2.119956e-01
2.119960e-01
2.119963e-01
2.119966e-01
2.119969e-01
2.119971e-01
2.119973e-01
2.119975e-01
2.119975e-01
2.119974e-01
2.119972e-01
2.119970e-01
2.119961e-01
2.119960e-01
2.119960e-01
2.119962e-01
2.119965e-01
2.119967e-01
2.119969e-01
2.119970e-01
2.119972e-01
2.119973e-01
2.119975e-01
2.119975e-01
2.119976e-01
2.119974e-01
2.119972e-01
2.119971e-01
2.119971e-01
2.119970e-01
2.119969e-01
2.119970e-01
2.119971e-01
2.119972e-01
2.119973e-01
2.119973e-01
2.119974e-01
2.119975e-01
2.119975e-01
2.119976e-01
2.119976e-01
2.119975e-01
2.119974e-01
2.119973e-01
2.119971e-01
2.119970e-01
2.119969e-01
2.119970e-01
2.119971e-01
2.119972e-01
2.119972e-01
2.119973e-01
2.119974e-01
2.119974e-01
2.119975e-01
2.119975e-01
2.119975e-01
2.119975e-01
2.119975e-01
2.119976e-01
2.119961e-01
2.119960e-01
2.119960e-01
2.119962e-01
2.119964e-01
2.119967e-01
2.119968e-01
2.119970e-01
2.119972e-01
2.119973e-01
2.119974e-01
2.119975e-01
2.119976e-01
2.119976e-01
2.119977e-01
2.119978e-01
2.119946e-01
2.119945e-01
2.119947e-01
2.119952e-01
2.119956e-01
2.119959e-01
2.119963e-01
2.119966e-01
2.119969e-01
2.119971e-01
2.119973e-01
2.119975e-01
2.119976e-01
2.119977e-01
2.119978e-01
2.119979e-01
2.119937e-01
2.119937e-01
2.119939e-01
2.119945e-01
2.119951e-01
2.119955e-01
2.119960e-01
2.119964e-01
2.119967e-01
2.119970e-01
2.119973e-01
2.119975e-01
2.119977e-01
2.119978e-01
2.119979e-01
2.119980e-01


9.881570e-01
9.898364e-01
9.913900e-01
9.925859e-01
9.936960e-01
9.947196e-01
9.956522e-01
9.964828e-01
9.972027e-01
9.978048e-01
9.982836e-01
9.986343e-01
9.988523e-01
9.989301e-01
9.989862e-01
9.955251e-01
9.955195e-01
9.947499e-01
9.952451e-01
9.958913e-01
9.964938e-01
9.970414e-01
9.975372e-01
9.979862e-01
9.983927e-01
9.987609e-01
9.990951e-01
9.993976e-01
9.996616e-01
9.998345e-01
9.993973e-01
9.934725e-01
9.984432e-01
9.980012e-01
9.978819e-01
9.980497e-01
9.982705e-01
9.984844e-01
9.986830e-01
9.988706e-01
9.990524e-01
9.992296e-01
9.993951e-01
9.995233e-01
9.995500e-01
9.993192e-01
9.984821e-01
9.969764e-01
9.996832e-01
9.993608e-01
9.991616e-01
9.991111e-01
9.991313e-01
9.991651e-01
9.991989e-01
9.992320e-01
9.992644e-01
9.992915e-01
9.992991e-01
9.992587e-01
9.991307e-01
9.989010e-01
9.987061e-01
9.986568e-01
9.996844e-01
9.993625e-01
9.991631e-01
9.991108e-01
9.991263e-01
9.991507e-01
9.991676e-01
9.991733e-01
9.991655e-01
9.991406e-01
9.990941e-01
9.990271e-01
9.989633e-01
9.989760e-01
9.991563e-01
9.994684e-01
9.984455e-01
9.980046e-01
9.978851e-01
9.980498e-01
9.982620e-01
9.984580e-01
9.986238e-01
9.987571e-01
9.988569e-01
9.989241e-01
9.989666e-01
9.990082e-01
9.990954e-01
9.992784e-01
9.995533e-01
9.998376e-01
9.955191e-01
9.947496e-01
9.952444e-01
9.958895e-01
9.964891e-01
9.970307e-01
9.975148e-01
9.979435e-01
9.983171e-01
9.986364e-01
9.989067e-01
9.991428e-01
9.993702e-01
9.996085e-01
9.998314e-01
9.999718e-01
9.881489e-01
9.898237e-01
9.913745e-01
9.925685e-01
9.936804e-01
9.947139e-01
9.956714e-01
9.965507e-01
9.973518e-01
9.980732e-01
9.987064e-01
9.992317e-01
9.996225e-01
9.998636e-01
9.999733e-01
9.999994e-01
1 2 19 18
2 3 20 19
3 4 21 20
4 5 22 21
5 6 23 22
6 7 24 23
7 8 25 24
8 9 26 25
9 10 27 26
10 11 28 27
11 12 29 28
12 13 30 29
13 14 31 30
14 15 32 31
15 16 33 32
16 17 34 33
18 19 36 35
19 20 37 36
20 21 38 37
21 22 39 38
22 23 40 39
23 24 41 40
24 25 42 41
25 26 43 42
26 27 44 43
27 28 45 44
28 29 46 45
29 30 47 46
30 31 48 47
31 32 49 48
32 33 50 49
33 34 51 50
35 36 53 52
36 37 54 53
37 38 55 54
38 39 56 55
39 40 57 56
40 41 58 57
41 42 59 58
42 43 60 59
43 44 61 60
44 45 62 61
45 46 63 62
46 47 64 63
47 48 65 64
48 49 66 65
49 50 67 66
50 51 68 67
52 53 70 69
53 54 71 70
54 55 72 71
55 56 73 72
56 57 74 73
57 58 75 74
58 59 76 75
59 60 77 76
60 61 78 77
61 62 79 78
62 63 80 79
63 64 81 80
64 65 82 81
65 66 83 82
66 67 84 83
67 68 85 84
69 70 87 86
70 71 88 87
71 72 89 88
72 73 90 89
73 74 91 90
74 75 92 91
75 76 93 92
76 77 94 93
77 78 95 94
78 79 96 95
79 80 97 96
80 81 98 97
81 82 99 98
82 83 100 99
83 84 101 100
84 85 102 101
86 87 104 103
87 88 105 104
88 89 106 105
89 90 107 106
90 91 108 107
91 92 109 108
92 93 110 109
93 94 111 110
94 95 112 111
95 96 113 112
96 97 114 113
97 98 115 114
98 99 116 115
99 100 117 116
100 101 118 117
101 102 119 118
103 104 121 120
104 105 122 121
105 106 123 122
106 107 124 123
107 108 125 124
108 109 126 125
109 110 127 126
110 111 128 127
111 112 129 128
112 113 130 129
113 114 131 130
114 115 132 131
115 116 133 132
116 117 134 133
117 118 135 134
118 119 136 135
120 121 138 137
121 122 139 138
122 123 140 139
123 124 141 140
124 125 142 141
125 126 143 142
126 127 144 143
127 128 145 144
128 129 146 145
129 130 147 146
130 131 148 147
131 132 149 148
132 133 150 149
133 134 151 150
134 135 152 151
135 136 153 152
