TITLE = "Solution"
VARIABLES = x, y, u, v, psiu, psiv, t, stress
ZONE T="structure" N=153 E=128 F=FEBLOCK ET=QUADRILATERAL VARLOCATION=([7,8]=cellcentered)
0.000000e+00
1.250000e+01
2.500000e+01
3.750000e+01
5.000000e+01
6.250000e+01
7.500000e+01
8.750000e+01
1.000000e+02
1.125000e+02
1.250000e+02
1.375000e+02
1.500000e+02
1.625000e+02
1.750000e+02
1.875000e+02
2.000000e+02
0.000000e+00
1.250000e+01
2.500000e+01
3.750000e+01
5.000000e+01
6.250000e+01
7.500000e+01
8.750000e+01
1.000000e+02
1.125000e+02
1.250000e+02
1.375000e+02
1.500000e+02
1.625000e+02
1.750000e+02
1.875000e+02
2.000000e+02
0.000000e+00
1.250000e+01
2.500000e+01
3.750000e+01
5.000000e+01
6.250000e+01
7.500000e+01
8.750000e+01
1.000000e+02
1.125000e+02
1.250000e+02
1.375000e+02
1.500000e+02
1.625000e+02
1.750000e+02
1.875000e+02
2.000000e+02
0.000000e+00
1.250000e+01
2.500000e+01
3.750000e+01
5.000000e+01
6.250000e+01
7.500000e+01
8.750000e+01
1.000000e+02
1.125000e+02
1.250000e+02
1.375000e+02
1.500000e+02
1.625000e+02
1.750000e+02
1.875000e+02
2.000000e+02
0.000000e+00
1.250000e+01
2.500000e+01
3.750000e+01
5.000000e+01
6.250000e+01
7.500000e+01
8.750000e+01
1.000000e+02
1.125000e+02
1.250000e+02
1.375000e+02
1.500000e+02
1.625000e+02
1.750000e+02
1.875000e+02
2.000000e+02
0.000000e+00
1.250000e+01
2.500000e+01
3.750000e+01
5.000000e+01
6.250000e+01
7.500000e+01
8.750000e+01
1.000000e+02
1.125000e+02
1.250000e+02
1.375000e+02
1.500000e+02
1.625000e+02
1.750000e+02
1.875000e+02
2.000000e+02
0.000000e+00
1.250000e+01
2.500000e+01
3.750000e+01
5.000000e+01
6.250000e+01
7.500000e+01
8.750000e+01
1.000000e+02
1.125000e+02
1.250000e+02
1.375000e+02
1.500000e+02
1.625000e+02
1.750000e+02
1.875000e+02
2.000000e+02
0.000000e+00
1.250000e+01
2.500000e+01
3.750000e+01
5.000000e+01
6.250000e+01
7.500000e+01
8.750000e+01
1.000000e+02
1.125000e+02
1.250000e+02
1.375000e+02
1.500000e+02
1.625000e+02
1.750000e+02
1.875000e+02
2.000000e+02
0.000000e+00
1.250000e+01
2.500000e+01
3.750000e+01
5.000000e+01
6.250000e+01
7.500000e+01
8.750000e+01
1.000000e+02
1.125000e+02
1.250000e+02
1.375000e+02
1.500000e+02
1.625000e+02
1.750000e+02
1.875000e+02
2.000000e+02
0.000000e+00
0.000000e+00
0.000000e+00
0.000000e+00
0.000000e+00
0.000000e+00
0.000000e+00
0.000000e+00
0.000000e+00
0.000000e+00
0.000000e+00
0.000000e+00
0.000000e+00
0.000000e+00
0.000000e+00
0.000000e+00
0.000000e+00
1.250000e+01
1.250000e+01
1.250000e+01
1.250000e+01
1.250000e+01
1.250000e+01
1.250000e+01
1.250000e+01
1.250000e+01
1.250000e+01
1.250000e+01
1.250000e+01
1.250000e+01
1.250000e+01
1.250000e+01
1.250000e+01
1.250000e+01
2.500000e+01
2.500000e+01
2.500000e+01
2.500000e+01
2.500000e+01
2.500000e+01
2.500000e+01
2.500000e+01
2.500000e+01
2.500000e+01
2.500000e+01
2.500000e+01
2.500000e+01
2.500000e+01
2.500000e+01
2.500000e+01
2.500000e+01
3.750000e+01
3.750000e+01
3.750000e+01
3.750000e+01
3.750000e+01
3.750000e+01
3.750000e+01
3.750000e+01
3.750000e+01
3.750000e+01
3.750000e+01
3.750000e+01
3.750000e+01
3.750000e+01
3.750000e+01
3.750000e+01
3.750000e+01
5.000000e+01
5.000000e+01
5.000000e+01
5.000000e+01
5.000000e+01
5.000000e+01
5.000000e+01
5.000000e+01
5.000000e+01
5.000000e+01
5.000000e+01
5.000000e+01
5.000000e+01
5.000000e+01
5.000000e+01
5.000000e+01
5.000000e+01
6.250000e+01
6.250000e+01
6.250000e+01
6.250000e+01
6.250000e+01
6.250000e+01
6.250000e+01
6.250000e+01
6.250000e+01
6.250000e+01
6.250000e+01
6.250000e+01
6.250000e+01
6.250000e+01
6.250000e+01
6.250000e+01
6.250000e+01
7.500000e+01
7.500000e+01
7.500000e+01
7.500000e+01
7.500000e+01
7.500000e+01
7.500000e+01
7.500000e+01
7.500000e+01
7.500000e+01
7.500000e+01
7.500000e+01
7.500000e+01
7.500000e+01
7.500000e+01
7.500000e+01
7.500000e+01
8.750000e+01
8.750000e+01
8.750000e+01
8.750000e+01
8.750000e+01
8.750000e+01
8.750000e+01
8.750000e+01
8.750000e+01
8.750000e+01
8.750000e+01
8.750000e+01
8.750000e+01
8.750000e+01
8.750000e+01
8.750000e+01
8.750000e+01
1.000000e+02
1.000000e+02
1.000000e+02
1.000000e+02
1.000000e+02
1.000000e+02
1.000000e+02
1.000000e+02
1.000000e+02
1.000000e+02
1.000000e+02
1.000000e+02
1.000000e+02
1.000000e+02
1.000000e+02
1.000000e+02
1.000000e+02
0.000000e+00
-7.223438e-02
-1.330064e-01
-1.889245e-01
-2.410000e-01
-2.891230e-01
-3.331902e-01
-3.731674e-01
-4.091128e-01
-4.411919e-01
-4.697228e-01
-4.952630e-01
-5.187718e-01
-5.419065e-01
-5.675251e-01
-5.989880e-01
-6.225975e-01
0.000000e+00
-4.313706e-02
-8.960884e-02
-1.325226e-01
-1.720594e-01
-2.083696e-01
-2.415285e-01
-2.715804e-01
-2.985796e-01
-3.226092e-01
-3.437911e-01
-3.622781e-01
-3.781880e-01
-3.913572e-01
-4.006461e-01
-4.026821e-01
-4.099815e-01
0.000000e+00
-2.697666e-02
-5.547077e-02
-8.389790e-02
-1.104338e-01
-1.347975e-01
-1.569692e-01
-1.769740e-01
-1.948169e-01
-2.104680e-01
-2.238431e-01
-2.347555e-01
-2.428160e-01
-2.473155e-01
-2.474404e-01
-2.456429e-01
-2.530878e-01
0.000000e+00
-1.302060e-02
-2.680465e-02
-4.067577e-02
-5.393910e-02
-6.615546e-02
-7.722841e-02
-8.712568e-02
-9.579063e-02
-1.031105e-01
-1.088982e-01
-1.128806e-01
-1.147316e-01
-1.142991e-01
-1.125224e-01
-1.130083e-01
-1.185518e-01
0.000000e+00
-1.199481e-05
-2.726794e-05
-4.249094e-05
-5.057025e-05
-3.568749e-05
3.355481e-05
2.134956e-04
5.965666e-04
1.320450e-03
2.564772e-03
4.509981e-03
7.204837e-03
1.025016e-02
1.235378e-02
1.177683e-02
8.106551e-03
0.000000e+00
1.300214e-02
2.676180e-02
4.060724e-02
5.385385e-02
6.608612e-02
7.725530e-02
8.741601e-02
9.665635e-02
1.050835e-01
1.128075e-01
1.198857e-01
1.261949e-01
1.312542e-01
1.342304e-01
1.344664e-01
1.326035e-01
0.000000e+00
2.697363e-02
5.546154e-02
8.387953e-02
1.104051e-01
1.347617e-01
1.569396e-01
1.769836e-01
1.949354e-01
2.108269e-01
2.246719e-01
2.364365e-01
2.459855e-01
2.530454e-01
2.572829e-01
2.586588e-01
2.582244e-01
0.000000e+00
4.315475e-02
8.964732e-02
1.325840e-01
1.721417e-01
2.084577e-01
2.415779e-01
2.714901e-01
2.981486e-01
3.214766e-01
3.413632e-01
3.576711e-01
3.702697e-01
3.791174e-01
3.843952e-01
3.866459e-01
3.870593e-01
0.000000e+00
7.226398e-02
1.330844e-01
1.890707e-01
2.412336e-01
2.894516e-01
3.335821e-01
3.734970e-01
4.090627e-01
4.400943e-01
4.663227e-01
4.873984e-01
5.029750e-01
5.129302e-01
5.177446e-01
5.189330e-01
5.189100e-01
0.000000e+00
-4.372547e-02
-8.583824e-02
-1.404066e-01
-2.073780e-01
-2.866270e-01
-3.772860e-01
-4.783402e-01
-5.887150e-01
-7.073504e-01
-8.332666e-01
-9.656843e-01
-1.104284e+00
-1.249806e+00
-1.406025e+00
-1.584769e+00
-1.841592e+00
0.000000e+00
-2.691821e-02
-7.084874e-02
-1.260937e-01
-1.941596e-01
-2.744902e-01
-3.662474e-01
-4.683919e-01
-5.798365e-01
-6.995020e-01
-8.263816e-01
-9.596602e-01
-1.098969e+00
-1.245029e+00
-1.401187e+00
-1.578846e+00
-1.796497e+00
0.000000e+00
-2.031219e-02
-6.045727e-02
-1.159062e-01
-1.846156e-01
-2.657730e-01
-3.583736e-01
-4.613679e-01
-5.736764e-01
-6.942350e-01
-8.220565e-01
-9.563537e-01
-1.096793e+00
-1.243976e+00
-1.400268e+00
-1.568607e+00
-1.731522e+00
0.000000e+00
-1.750363e-02
-5.529069e-02
-1.099263e-01
-1.788841e-01
-2.605411e-01
-3.537190e-01
-4.573286e-01
-5.703105e-01
-6.916294e-01
-8.203197e-01
-9.555788e-01
-1.096914e+00
-1.244260e+00
-1.397426e+00
-1.552105e+00
-1.694600e+00
0.000000e+00
-1.669454e-02
-5.372705e-02
-1.080187e-01
-1.769953e-01
-2.588555e-01
-3.523013e-01
-4.562444e-01
-5.696456e-01
-6.914867e-01
-8.207802e-01
-9.565967e-01
-1.098058e+00
-1.244121e+00
-1.392600e+00
-1.538416e+00
-1.672749e+00
0.000000e+00
-1.749324e-02
-5.528330e-02
-1.099395e-01
-1.789488e-01
-2.607114e-01
-3.540832e-01
-4.580184e-01
-5.714998e-01
-6.935040e-01
-8.229799e-01
-9.588028e-01
-1.099659e+00
-1.243755e+00
-1.388324e+00
-1.529140e+00
-1.660606e+00
0.000000e+00
-2.029525e-02
-6.044502e-02
-1.159281e-01
-1.847245e-01
-2.660611e-01
-3.589911e-01
-4.625393e-01
-5.756986e-01
-6.974282e-01
-8.266060e-01
-9.619345e-01
-1.101783e+00
-1.243991e+00
-1.385758e+00
-1.523871e+00
-1.655249e+00
0.000000e+00
-2.690232e-02
-7.083807e-02
-1.261229e-01
-1.942904e-01
-2.748289e-01
-3.669663e-01
-4.697457e-01
-5.821595e-01
-7.031475e-01
-8.315418e-01
-9.659522e-01
-1.104609e+00
-1.245234e+00
-1.385115e+00
-1.521693e+00
-1.653992e+00
0.000000e+00
-4.371891e-02
-8.583916e-02
-1.404517e-01
-2.075295e-01
-2.869890e-01
-3.780215e-01
-4.796822e-01
-5.909525e-01
-7.107538e-01
-8.378900e-01
-9.709402e-01
-1.108123e+00
-1.247209e+00
-1.385661e+00
-1.521294e+00
-1.654012e+00


0.000000e+00
8.873403e-08
1.778056e-07
2.605207e-07
3.380792e-07
4.100433e-07
4.761133e-07
5.362739e-07
5.906491e-07
6.394701e-07
6.830628e-07
7.217898e-07
7.558640e-07
7.850198e-07
8.088844e-07
8.292811e-07
8.474332e-07
0.000000e+00
4.992125e-08
1.214694e-07
1.857933e-07
2.447592e-07
2.991025e-07
3.487768e-07
3.937852e-07
4.341666e-07
4.699522e-07
5.011333e-07
5.276198e-07
5.492785e-07
5.665562e-07
5.823380e-07
6.010747e-07
6.203639e-07
0.000000e+00
3.146640e-08
7.677878e-08
1.192847e-07
1.589009e-07
1.953290e-07
2.284284e-07
2.581617e-07
2.844857e-07
3.073135e-07
3.265160e-07
3.420012e-07
3.540127e-07
3.637847e-07
3.740930e-07
3.880252e-07
4.041258e-07
0.000000e+00
1.537503e-08
3.681022e-08
5.762812e-08
7.743849e-08
9.563345e-08
1.120177e-07
1.265179e-07
1.390500e-07
1.495059e-07
1.577958e-07
1.639694e-07
1.684444e-07
1.722765e-07
1.772147e-07
1.853354e-07
1.965123e-07
0.000000e+00
1.600170e-11
1.976226e-11
-8.672627e-12
-9.657365e-11
-2.874467e-10
-6.450778e-10
-1.254350e-09
-2.213743e-09
-3.610842e-09
-5.468614e-09
-7.655662e-09
-9.781155e-09
-1.112889e-08
-1.059628e-08
-6.773963e-09
5.674483e-10
0.000000e+00
-1.534512e-08
-3.677015e-08
-5.763001e-08
-7.757923e-08
-9.608277e-08
-1.130542e-07
-1.285670e-07
-1.427122e-07
-1.555462e-07
-1.670443e-07
-1.770503e-07
-1.852446e-07
-1.911496e-07
-1.941754e-07
-1.935980e-07
-1.895771e-07
0.000000e+00
-3.144756e-08
-7.675099e-08
-1.192682e-07
-1.589342e-07
-1.954849e-07
-2.288335e-07
-2.590194e-07
-2.860972e-07
-3.100851e-07
-3.309261e-07
-3.484565e-07
-3.623996e-07
-3.724297e-07
-3.783816e-07
-3.803637e-07
-3.791764e-07
0.000000e+00
-4.994021e-08
-1.215072e-07
-1.858276e-07
-2.447532e-07
-2.989932e-07
-3.484608e-07
-3.931027e-07
-4.328864e-07
-4.677635e-07
-4.976569e-07
-5.224501e-07
-5.419908e-07
-5.561505e-07
-5.650550e-07
-5.694329e-07
-5.704904e-07
0.000000e+00
-8.883879e-08
-1.779912e-07
-2.607503e-07
-3.382754e-07
-4.100450e-07
-4.756155e-07
-5.347490e-07
-5.872555e-07
-6.329613e-07
-6.717301e-07
-7.035025e-07
-7.283347e-07
-7.464324e-07
-7.582196e-07
-7.643126e-07
-7.662695e-07
0.000000e+00
8.032996e-08
1.566953e-07
2.423803e-07
3.445760e-07
4.643368e-07
6.008760e-07
7.529295e-07
9.190416e-07
1.097799e-06
1.287993e-06
1.488875e-06
1.700852e-06
1.926969e-06
2.172810e-06
2.433949e-06
2.693041e-06
0.000000e+00
4.858624e-08
1.228074e-07
2.091685e-07
3.133585e-07
4.355307e-07
5.746576e-07
7.293106e-07
8.979966e-07
1.079283e-06
1.271938e-06
1.475158e-06
1.688963e-06
1.914691e-06
2.154549e-06
2.409064e-06
2.664745e-06
0.000000e+00
3.094147e-08
9.564141e-08
1.819118e-07
2.876072e-07
4.118692e-07
5.532475e-07
7.102021e-07
8.812142e-07
1.064845e-06
1.259820e-06
1.465138e-06
1.680113e-06
1.904112e-06
2.136767e-06
2.381989e-06
2.629431e-06
0.000000e+00
2.269877e-08
8.135179e-08
1.660200e-07
2.724098e-07
3.979665e-07
5.408100e-07
6.993028e-07
8.719053e-07
1.057153e-06
1.253666e-06
1.460133e-06
1.675169e-06
1.897043e-06
2.124369e-06
2.360137e-06
2.595258e-06
0.000000e+00
2.033033e-08
7.701957e-08
1.609082e-07
2.674855e-07
3.935604e-07
5.370360e-07
6.962306e-07
8.695855e-07
1.055581e-06
1.252696e-06
1.459325e-06
1.673623e-06
1.893298e-06
2.116095e-06
2.343406e-06
2.566408e-06
0.000000e+00
2.271712e-08
8.142054e-08
1.661900e-07
2.727477e-07
3.985628e-07
5.417779e-07
7.007614e-07
8.739381e-07
1.059720e-06
1.256446e-06
1.462302e-06
1.675170e-06
1.892444e-06
2.111307e-06
2.331558e-06
2.545720e-06
0.000000e+00
3.097106e-08
9.576120e-08
1.822098e-07
2.881997e-07
4.129164e-07
5.549491e-07
7.127690e-07
8.847946e-07
1.069370e-06
1.264721e-06
1.468882e-06
1.679593e-06
1.894130e-06
2.109491e-06
2.324458e-06
2.533117e-06
0.000000e+00
4.862382e-08
1.229594e-07
2.095354e-07
3.140817e-07
4.368022e-07
5.767151e-07
7.323997e-07
9.022771e-07
1.084637e-06
1.277614e-06
1.479137e-06
1.686864e-06
1.898123e-06
2.110143e-06
2.321267e-06
2.527102e-06
0.000000e+00
8.039222e-08
1.568731e-07
2.427762e-07
3.453290e-07
4.656305e-07
6.029272e-07
7.559435e-07
9.231057e-07
1.102676e-06
1.292741e-06
1.491178e-06
1.695623e-06
1.903510e-06
2.112400e-06
2.320747e-06
2.525348e-06


2.110621e-01
2.110620e-01
2.110623e-01
2.110628e-01
2.110633e-01
2.110637e-01
2.110641e-01
2.110644e-01
2.110647e-01
2.110650e-01
2.110652e-01
2.110653e-01
2.110654e-01
2.110654e-01
2.110651e-01
2.110649e-01
2.110629e-01
2.110628e-01
2.110629e-01
2.110633e-01
2.110637e-01
2.110640e-01
2.110643e-01
2.110646e-01
2.110649e-01
2.110651e-01
2.110653e-01
2.110654e-01
2.110655e-01
2.110653e-01
2.110651e-01
2.110649e-01
2.110642e-01
2.110641e-01
2.110641e-01
2.110643e-01
2.110645e-01
2.110647e-01
2.110649e-01
2.110650e-01
2.110652e-01
2.110653e-01
2.110654e-01
2.110655e-01
2.110655e-01
2.110654e-01
2.110651e-01
2.110650e-01
2.110651e-01
2.110650e-01
2.110649e-01
2.110650e-01
2.110650e-01
2.110651e-01
2.110652e-01
2.110653e-01
2.110653e-01
2.110654e-01
2.110654e-01
2.110655e-01
2.110655e-01
2.110654e-01
2.110653e-01
2.110652e-01
2.110651e-01
2.110650e-01
2.110649e-01
2.110650e-01
2.110650e-01
2.110651e-01
2.110652e-01
2.110653e-01
2.110653e-01
2.110654e-01
2.110654e-01
2.110654e-01
2.110654e-01
2.110654e-01
2.110654e-01
2.110655e-01
2.110642e-01
2.110641e-01
2.110641e-01
2.110643e-01
2.110645e-01
2.110647e-01
2.110648e-01
2.110650e-01
2.110651e-01
2.110652e-01
2.110653e-01
2.110654e-01
2.110655e-01
2.110655e-01
2.110656e-01
2.110656e-01
2.110629e-01
2.110628e-01
2.110629e-01
2.110633e-01
2.110637e-01
2.110640e-01
2.110643e-01
2.110646e-01
2.110648e-01
2.110651e-01
2.110652e-01
2.110654e-01
2.110655e-01
2.110656e-01
2.110657e-01
2.110658e-01
2.110621e-01
2.110620e-01
2.110623e-01
2.110628e-01
2.110633e-01
2.110637e-01
2.110641e-01
2.110644e-01
2.110647e-01
2.110650e-01
2.110652e-01
2.110654e-01
2.110656e-01
2.110657e-01
2.110658e-01
2.110658e-01


9.882608e-01
9.899255e-01
9.914655e-01
9.926509e-01
9.937513e-01
9.947659e-01
9.956903e-01
9.965136e-01
9.972272e-01
9.978241e-01
9.982986e-01
9.986463e-01
9.988624e-01
9.989395e-01
9.989951e-01
9.955643e-01
9.955588e-01
9.947960e-01
9.952868e-01
9.959274e-01
9.965246e-01
9.970674e-01
9.975588e-01
9.980038e-01
9.984068e-01
9.987718e-01
9.991030e-01
9.994029e-01
9.996646e-01
9.998359e-01
9.994026e-01
9.935298e-01
9.984569e-01
9.980187e-01
9.979005e-01
9.980668e-01
9.982857e-01
9.984977e-01
9.986946e-01
9.988805e-01
9.990607e-01
9.992364e-01
9.994004e-01
9.995274e-01
9.995540e-01
9.993252e-01
9.984954e-01
9.970029e-01
9.996859e-01
9.993664e-01
9.991690e-01
9.991189e-01
9.991389e-01
9.991725e-01
9.992060e-01
9.992387e-01
9.992708e-01
9.992977e-01
9.993052e-01
9.992652e-01
9.991383e-01
9.989106e-01
9.987175e-01
9.986686e-01
9.996871e-01
9.993681e-01
9.991705e-01
9.991186e-01
9.991339e-01
9.991581e-01
9.991749e-01
9.991806e-01
9.991729e-01
9.991481e-01
9.991020e-01
9.990356e-01
9.989724e-01
9.989850e-01
9.991637e-01
9.994731e-01
9.984591e-01
9.980221e-01
9.979037e-01
9.980669e-01
9.982772e-01
9.984715e-01
9.986358e-01
9.987680e-01
9.988669e-01
9.989335e-01
9.989757e-01
9.990169e-01
9.991034e-01
9.992848e-01
9.995573e-01
9.998390e-01
9.955584e-01
9.947957e-01
9.952861e-01
9.959255e-01
9.965199e-01
9.970567e-01
9.975366e-01
9.979616e-01
9.983319e-01
9.986484e-01
9.989163e-01
9.991503e-01
9.993757e-01
9.996119e-01
9.998329e-01
9.999720e-01
9.882528e-01
9.899130e-01
9.914501e-01
9.926337e-01
9.937358e-01
9.947603e-01
9.957094e-01
9.965809e-01
9.973750e-01
9.980901e-01
9.987178e-01
9.992385e-01
9.996258e-01
9.998648e-01
9.999735e-01
9.999994e-01
1 2 19 18
2 3 20 19
3 4 21 20
4 5 22 21
5 6 23 22
6 7 24 23
7 8 25 24
8 9 26 25
9 10 27 26
10 11 28 27
11 12 29 28
12 13 30 29
13 14 31 30
14 15 32 31
15 16 33 32
16 17 34 33
18 19 36 35
19 20 37 36
20 21 38 37
21 22 39 38
22 23 40 39
23 24 41 40
24 25 42 41
25 26 43 42
26 27 44 43
27 28 45 44
28 29 46 45
29 30 47 46
30 31 48 47
31 32 49 48
32 33 50 49
33 34 51 50
35 36 53 52
36 37 54 53
37 38 55 54
38 39 56 55
39 40 57 56
40 41 58 57
41 42 59 58
42 43 60 59
43 44 61 60
44 45 62 61
45 46 63 62
46 47 64 63
47 48 65 64
48 49 66 65
49 50 67 66
50 51 68 67
52 53 70 69
53 54 71 70
54 55 72 71
55 56 73 72
56 57 74 73
57 58 75 74
58 59 76 75
59 60 77 76
60 61 78 77
61 62 79 78
62 63 80 79
63 64 81 80
64 65 82 81
65 66 83 82
66 67 84 83
67 68 85 84
69 70 87 86
70 71 88 87
71 72 89 88
72 73 90 89
73 74 91 90
74 75 92 91
75 76 93 92
76 77 94 93
77 78 95 94
78 79 96 95
79 80 97 96
80 81 98 97
81 82 99 98
82 83 100 99
83 84 101 100
84 85 102 101
86 87 104 103
87 88 105 104
88 89 106 105
89 90 107 106
90 91 108 107
91 92 109 108
92 93 110 109
93 94 111 110
94 95 112 111
95 96 113 112
96 97 114 113
97 98 115 114
98 99 116 115
99 100 117 116
100 101 118 117
101 102 119 118
103 104 121 120
104 105 122 121
105 106 123 122
106 107 124 123
107 108 125 124
108 109 126 125
109 110 127 126
110 111 128 127
111 112 129 128
112 113 130 129
113 114 131 130
114 115 132 131
115 116 133 132
116 117 134 133
117 118 135 134
118 119 136 135
120 121 138 137
121 122 139 138
122 123 140 139
123 124 141 140
124 125 142 141
125 126 143 142
126 127 144 143
127 128 145 144
128 129 146 145
129 130 147 146
130 131 148 147
131 132 149 148
132 133 150 149
133 134 151 150
134 135 152 151
135 136 153 152
