TITLE = "Solution"
VARIABLES = x, y, u, v, psiu, psiv, t, stress
ZONE T="structure" N=153 E=128 F=FEBLOCK ET=QUADRILATERAL VARLOCATION=([7,8]=cellcentered)
0.000000e+00
1.250000e+01
2.500000e+01
3.750000e+01
5.000000e+01
6.250000e+01
7.500000e+01
8.750000e+01
1.000000e+02
1.125000e+02
1.250000e+02
1.375000e+02
1.500000e+02
1.625000e+02
1.750000e+02
1.875000e+02
2.000000e+02
0.000000e+00
1.250000e+01
2.500000e+01
3.750000e+01
5.000000e+01
6.250000e+01
7.500000e+01
8.750000e+01
1.000000e+02
1.125000e+02
1.250000e+02
1.375000e+02
1.500000e+02
1.625000e+02
1.750000e+02
1.875000e+02
2.000000e+02
0.000000e+00
1.250000e+01
2.500000e+01
3.750000e+01
5.000000e+01
6.250000e+01
7.500000e+01
8.750000e+01
1.000000e+02
1.125000e+02
1.250000e+02
1.375000e+02
1.500000e+02
1.625000e+02
1.750000e+02
1.875000e+02
2.000000e+02
0.000000e+00
1.250000e+01
2.500000e+01
3.750000e+01
5.000000e+01
6.250000e+01
7.500000e+01
8.750000e+01
1.000000e+02
1.125000e+02
1.250000e+02
1.375000e+02
1.500000e+02
1.625000e+02
1.750000e+02
1.875000e+02
2.000000e+02
0.000000e+00
1.250000e+01
2.500000e+01
3.750000e+01
5.000000e+01
6.250000e+01
7.500000e+01
8.750000e+01
1.000000e+02
1.125000e+02
1.250000e+02
1.375000e+02
1.500000e+02
1.625000e+02
1.750000e+02
1.875000e+02
2.000000e+02
0.000000e+00
1.250000e+01
2.500000e+01
3.750000e+01
5.000000e+01
6.250000e+01
7.500000e+01
8.750000e+01
1.000000e+02
1.125000e+02
1.250000e+02
1.375000e+02
1.500000e+02
1.625000e+02
1.750000e+02
1.875000e+02
2.000000e+02
0.000000e+00
1.250000e+01
2.500000e+01
3.750000e+01
5.000000e+01
6.250000e+01
7.500000e+01
8.750000e+01
1.000000e+02
1.125000e+02
1.250000e+02
1.375000e+02
1.500000e+02
1.625000e+02
1.750000e+02
1.875000e+02
2.000000e+02
0.000000e+00
1.250000e+01
2.500000e+01
3.750000e+01
5.000000e+01
6.250000e+01
7.500000e+01
8.750000e+01
1.000000e+02
1.125000e+02
1.250000e+02
1.375000e+02
1.500000e+02
1.625000e+02
1.750000e+02
1.875000e+02
2.000000e+02
0.000000e+00
1.250000e+01
2.500000e+01
3.750000e+01
5.000000e+01
6.250000e+01
7.500000e+01
8.750000e+01
1.000000e+02
1.125000e+02
1.250000e+02
1.375000e+02
1.500000e+02
1.625000e+02
1.750000e+02
1.875000e+02
2.000000e+02
0.000000e+00
0.000000e+00
0.000000e+00
0.000000e+00
0.000000e+00
0.000000e+00
0.000000e+00
0.000000e+00
0.000000e+00
0.000000e+00
0.000000e+00
0.000000e+00
0.000000e+00
0.000000e+00
0.000000e+00
0.000000e+00
0.000000e+00
1.250000e+01
1.250000e+01
1.250000e+01
1.250000e+01
1.250000e+01
1.250000e+01
1.250000e+01
1.250000e+01
1.250000e+01
1.250000e+01
1.250000e+01
1.250000e+01
1.250000e+01
1.250000e+01
1.250000e+01
1.250000e+01
1.250000e+01
2.500000e+01
2.500000e+01
2.500000e+01
2.500000e+01
2.500000e+01
2.500000e+01
2.500000e+01
2.500000e+01
2.500000e+01
2.500000e+01
2.500000e+01
2.500000e+01
2.500000e+01
2.500000e+01
2.500000e+01
2.500000e+01
2.500000e+01
3.750000e+01
3.750000e+01
3.750000e+01
3.750000e+01
3.750000e+01
3.750000e+01
3.750000e+01
3.750000e+01
3.750000e+01
3.750000e+01
3.750000e+01
3.750000e+01
3.750000e+01
3.750000e+01
3.750000e+01
3.750000e+01
3.750000e+01
5.000000e+01
5.000000e+01
5.000000e+01
5.000000e+01
5.000000e+01
5.000000e+01
5.000000e+01
5.000000e+01
5.000000e+01
5.000000e+01
5.000000e+01
5.000000e+01
5.000000e+01
5.000000e+01
5.000000e+01
5.000000e+01
5.000000e+01
6.250000e+01
6.250000e+01
6.250000e+01
6.250000e+01
6.250000e+01
6.250000e+01
6.250000e+01
6.250000e+01
6.250000e+01
6.250000e+01
6.250000e+01
6.250000e+01
6.250000e+01
6.250000e+01
6.250000e+01
6.250000e+01
6.250000e+01
7.500000e+01
7.500000e+01
7.500000e+01
7.500000e+01
7.500000e+01
7.500000e+01
7.500000e+01
7.500000e+01
7.500000e+01
7.500000e+01
7.500000e+01
7.500000e+01
7.500000e+01
7.500000e+01
7.500000e+01
7.500000e+01
7.500000e+01
8.750000e+01
8.750000e+01
8.750000e+01
8.750000e+01
8.750000e+01
8.750000e+01
8.750000e+01
8.750000e+01
8.750000e+01
8.750000e+01
8.750000e+01
8.750000e+01
8.750000e+01
8.750000e+01
8.750000e+01
8.750000e+01
8.750000e+01
1.000000e+02
1.000000e+02
1.000000e+02
1.000000e+02
1.000000e+02
1.000000e+02
1.000000e+02
1.000000e+02
1.000000e+02
1.000000e+02
1.000000e+02
1.000000e+02
1.000000e+02
1.000000e+02
1.000000e+02
1.000000e+02
1.000000e+02
0.000000e+00
-7.144051e-02
-1.315446e-01
-1.868482e-01
-2.383513e-01
-2.859454e-01
-3.295282e-01
-3.690659e-01
-4.046162e-01
-4.363426e-01
-4.645598e-01
-4.898192e-01
-5.130696e-01
-5.359499e-01
-5.612869e-01
-5.924039e-01
-6.157538e-01
0.000000e+00
-4.266299e-02
-8.862405e-02
-1.310662e-01
-1.701684e-01
-2.060795e-01
-2.388739e-01
-2.685955e-01
-2.952979e-01
-3.190633e-01
-3.400124e-01
-3.582961e-01
-3.740311e-01
-3.870555e-01
-3.962423e-01
-3.982558e-01
-4.054751e-01
0.000000e+00
-2.668020e-02
-5.486117e-02
-8.297587e-02
-1.092201e-01
-1.333160e-01
-1.552440e-01
-1.750289e-01
-1.926756e-01
-2.081547e-01
-2.213828e-01
-2.321751e-01
-2.401470e-01
-2.445971e-01
-2.447206e-01
-2.429429e-01
-2.503059e-01
0.000000e+00
-1.287751e-02
-2.651008e-02
-4.022876e-02
-5.334631e-02
-6.542839e-02
-7.637963e-02
-8.616811e-02
-9.473780e-02
-1.019772e-01
-1.077013e-01
-1.116398e-01
-1.134705e-01
-1.130428e-01
-1.112857e-01
-1.117662e-01
-1.172487e-01
0.000000e+00
-1.186286e-05
-2.696799e-05
-4.202354e-05
-5.001392e-05
-3.529465e-05
3.318654e-05
2.111492e-04
5.900087e-04
1.305934e-03
2.536575e-03
4.460397e-03
7.125625e-03
1.013747e-02
1.221795e-02
1.164735e-02
8.017421e-03
0.000000e+00
1.285926e-02
2.646771e-02
4.016098e-02
5.326200e-02
6.535982e-02
7.640623e-02
8.645524e-02
9.559400e-02
1.039285e-01
1.115676e-01
1.185679e-01
1.248078e-01
1.298115e-01
1.327549e-01
1.329884e-01
1.311460e-01
0.000000e+00
2.667720e-02
5.485204e-02
8.295770e-02
1.091917e-01
1.332807e-01
1.552147e-01
1.750384e-01
1.927929e-01
2.085097e-01
2.222024e-01
2.338377e-01
2.432817e-01
2.502640e-01
2.544549e-01
2.558157e-01
2.553861e-01
0.000000e+00
4.268049e-02
8.866210e-02
1.311269e-01
1.702498e-01
2.061667e-01
2.389228e-01
2.685062e-01
2.948717e-01
3.179431e-01
3.376112e-01
3.537398e-01
3.661999e-01
3.749503e-01
3.801701e-01
3.823960e-01
3.828049e-01
0.000000e+00
7.146978e-02
1.316218e-01
1.869928e-01
2.385823e-01
2.862703e-01
3.299158e-01
3.693919e-01
4.045666e-01
4.352570e-01
4.611971e-01
4.820411e-01
4.974465e-01
5.072922e-01
5.120537e-01
5.132290e-01
5.132063e-01
0.000000e+00
-4.324492e-02
-8.489483e-02
-1.388634e-01
-2.050987e-01
-2.834768e-01
-3.731392e-01
-4.730827e-01
-5.822444e-01
-6.995757e-01
-8.241080e-01
-9.550701e-01
-1.092147e+00
-1.236069e+00
-1.390571e+00
-1.567350e+00
-1.821349e+00
0.000000e+00
-2.662237e-02
-7.007006e-02
-1.247079e-01
-1.920257e-01
-2.714733e-01
-3.622220e-01
-4.632438e-01
-5.734635e-01
-6.918136e-01
-8.172986e-01
-9.491123e-01
-1.086890e+00
-1.231344e+00
-1.385786e+00
-1.561492e+00
-1.776751e+00
0.000000e+00
-2.008895e-02
-5.979279e-02
-1.146323e-01
-1.825865e-01
-2.628519e-01
-3.544348e-01
-4.562971e-01
-5.673711e-01
-6.866045e-01
-8.130211e-01
-9.458421e-01
-1.084737e+00
-1.230302e+00
-1.384877e+00
-1.551365e+00
-1.712490e+00
0.000000e+00
-1.731124e-02
-5.468300e-02
-1.087182e-01
-1.769181e-01
-2.576775e-01
-3.498313e-01
-4.523021e-01
-5.640421e-01
-6.840276e-01
-8.113034e-01
-9.450758e-01
-1.084858e+00
-1.230584e+00
-1.382066e+00
-1.535045e+00
-1.675973e+00
0.000000e+00
-1.651104e-02
-5.313653e-02
-1.068315e-01
-1.750500e-01
-2.560104e-01
-3.484292e-01
-4.512298e-01
-5.633846e-01
-6.838864e-01
-8.117588e-01
-9.460824e-01
-1.085989e+00
-1.230447e+00
-1.377293e+00
-1.521507e+00
-1.654363e+00
0.000000e+00
-1.730096e-02
-5.467568e-02
-1.087312e-01
-1.769820e-01
-2.578459e-01
-3.501916e-01
-4.529843e-01
-5.652184e-01
-6.858816e-01
-8.139344e-01
-9.482643e-01
-1.087572e+00
-1.230084e+00
-1.373064e+00
-1.512332e+00
-1.642353e+00
0.000000e+00
-2.007219e-02
-5.978068e-02
-1.146540e-01
-1.826942e-01
-2.631368e-01
-3.550455e-01
-4.574555e-01
-5.693711e-01
-6.897627e-01
-8.175206e-01
-9.513616e-01
-1.089673e+00
-1.230318e+00
-1.370526e+00
-1.507122e+00
-1.637056e+00
0.000000e+00
-2.660665e-02
-7.005951e-02
-1.247367e-01
-1.921550e-01
-2.718083e-01
-3.629330e-01
-4.645827e-01
-5.757609e-01
-6.954191e-01
-8.224021e-01
-9.553350e-01
-1.092468e+00
-1.231547e+00
-1.369890e+00
-1.504967e+00
-1.635812e+00
0.000000e+00
-4.323842e-02
-8.489574e-02
-1.389080e-01
-2.052486e-01
-2.838348e-01
-3.738667e-01
-4.744100e-01
-5.844572e-01
-7.029417e-01
-8.286805e-01
-9.602682e-01
-1.095943e+00
-1.233501e+00
-1.370430e+00
-1.504573e+00
-1.635832e+00


0.000000e+00
9.649087e-08
1.933404e-07
2.832844e-07
3.676325e-07
4.459085e-07
5.177845e-07
5.832414e-07
6.424115e-07
6.955440e-07
7.429916e-07
7.851469e-07
8.222399e-07
8.539795e-07
8.799582e-07
9.021589e-07
9.219139e-07
0.000000e+00
5.426985e-08
1.320573e-07
2.020007e-07
2.661293e-07
3.252408e-07
3.792824e-07
4.282552e-07
4.721994e-07
5.111469e-07
5.450866e-07
5.739188e-07
5.974977e-07
6.163088e-07
6.334908e-07
6.538858e-07
6.748784e-07
0.000000e+00
3.419728e-08
8.345816e-08
1.296761e-07
1.727605e-07
2.123856e-07
2.483961e-07
2.807496e-07
3.093972e-07
3.342430e-07
3.551452e-07
3.720028e-07
3.850802e-07
3.957200e-07
4.069428e-07
4.221078e-07
4.396305e-07
0.000000e+00
1.670630e-08
4.000972e-08
6.264496e-08
8.418915e-08
1.039807e-07
1.218060e-07
1.375841e-07
1.512225e-07
1.626029e-07
1.716268e-07
1.783477e-07
1.832200e-07
1.873921e-07
1.927677e-07
2.016067e-07
2.137716e-07
0.000000e+00
1.746225e-11
2.160868e-11
-9.281551e-12
-1.048917e-10
-3.125787e-10
-7.017782e-10
-1.364894e-09
-2.409140e-09
-3.929884e-09
-5.952182e-09
-8.333095e-09
-1.064731e-08
-1.211520e-08
-1.153619e-08
-7.375785e-09
6.153254e-10
0.000000e+00
-1.667366e-08
-3.996593e-08
-6.264675e-08
-8.434195e-08
-1.044693e-07
-1.229336e-07
-1.398139e-07
-1.552081e-07
-1.691772e-07
-1.816935e-07
-1.925865e-07
-2.015079e-07
-2.079374e-07
-2.112322e-07
-2.106038e-07
-2.062267e-07
0.000000e+00
-3.417672e-08
-8.342781e-08
-1.296581e-07
-1.727966e-07
-2.125550e-07
-2.488367e-07
-2.816828e-07
-3.111510e-07
-3.372597e-07
-3.599457e-07
-3.790298e-07
-3.942095e-07
-4.051298e-07
-4.116100e-07
-4.137680e-07
-4.124755e-07
0.000000e+00
-5.429049e-08
-1.320984e-07
-2.020380e-07
-2.661226e-07
-3.251216e-07
-3.789381e-07
-4.275120e-07
-4.708055e-07
-5.087641e-07
-5.413019e-07
-5.682907e-07
-5.895634e-07
-6.049788e-07
-6.146732e-07
-6.194394e-07
-6.205909e-07
0.000000e+00
-9.660488e-08
-1.935424e-07
-2.835342e-07
-3.678461e-07
-4.459104e-07
-5.172426e-07
-5.815814e-07
-6.387172e-07
-6.884583e-07
-7.306542e-07
-7.652380e-07
-7.922693e-07
-8.119708e-07
-8.248032e-07
-8.314368e-07
-8.335675e-07
0.000000e+00
8.735167e-08
1.704104e-07
2.636124e-07
3.747728e-07
5.050387e-07
6.535559e-07
8.189520e-07
9.996453e-07
1.194100e-06
1.401001e-06
1.619537e-06
1.850151e-06
2.096156e-06
2.363626e-06
2.647742e-06
2.929626e-06
0.000000e+00
5.284117e-08
1.335672e-07
2.274988e-07
3.408219e-07
4.737046e-07
6.250320e-07
7.932523e-07
9.767431e-07
1.173947e-06
1.383526e-06
1.604605e-06
1.837207e-06
2.082789e-06
2.343750e-06
2.620659e-06
2.898833e-06
0.000000e+00
3.366031e-08
1.040313e-07
1.978587e-07
3.128134e-07
4.479647e-07
6.017375e-07
7.724590e-07
9.584788e-07
1.158233e-06
1.370335e-06
1.593697e-06
1.827572e-06
2.071272e-06
2.324394e-06
2.591192e-06
2.860400e-06
0.000000e+00
2.469848e-08
8.849257e-08
1.805748e-07
2.962820e-07
4.328390e-07
5.882040e-07
7.605977e-07
9.483471e-07
1.149860e-06
1.363636e-06
1.588248e-06
1.822189e-06
2.063576e-06
2.310899e-06
2.567408e-06
2.823208e-06
0.000000e+00
2.212295e-08
8.378103e-08
1.750149e-07
2.909251e-07
4.280452e-07
5.840973e-07
7.572544e-07
9.458224e-07
1.148149e-06
1.362580e-06
1.587369e-06
1.820506e-06
2.059499e-06
2.301891e-06
2.549196e-06
2.791807e-06
0.000000e+00
2.471843e-08
8.856740e-08
1.807599e-07
2.966498e-07
4.334882e-07
5.892577e-07
7.621857e-07
9.505602e-07
1.152654e-06
1.366663e-06
1.590609e-06
1.822190e-06
2.058569e-06
2.296679e-06
2.536298e-06
2.769288e-06
0.000000e+00
3.369249e-08
1.041616e-07
1.981830e-07
3.134585e-07
4.491047e-07
6.035899e-07
7.752535e-07
9.623765e-07
1.163159e-06
1.375670e-06
1.597773e-06
1.827005e-06
2.060405e-06
2.294700e-06
2.528568e-06
2.755569e-06
0.000000e+00
5.288203e-08
1.337326e-07
2.278982e-07
3.416090e-07
4.750888e-07
6.272718e-07
7.966152e-07
9.814029e-07
1.179775e-06
1.389704e-06
1.608936e-06
1.834921e-06
2.064751e-06
2.295410e-06
2.525094e-06
2.749019e-06
0.000000e+00
8.741939e-08
1.706038e-07
2.640433e-07
3.755925e-07
5.064469e-07
6.557889e-07
8.222331e-07
1.004070e-06
1.199408e-06
1.406170e-06
1.622043e-06
1.844457e-06
2.070616e-06
2.297868e-06
2.524528e-06
2.747109e-06


2.087427e-01
2.087426e-01
2.087428e-01
2.087431e-01
2.087434e-01
2.087437e-01
2.087440e-01
2.087442e-01
2.087444e-01
2.087446e-01
2.087447e-01
2.087448e-01
2.087449e-01
2.087448e-01
2.087447e-01
2.087445e-01
2.087432e-01
2.087431e-01
2.087432e-01
2.087435e-01
2.087437e-01
2.087440e-01
2.087442e-01
2.087443e-01
2.087445e-01
2.087446e-01
2.087448e-01
2.087449e-01
2.087449e-01
2.087448e-01
2.087446e-01
2.087445e-01
2.087441e-01
2.087440e-01
2.087440e-01
2.087441e-01
2.087443e-01
2.087444e-01
2.087445e-01
2.087446e-01
2.087447e-01
2.087448e-01
2.087449e-01
2.087449e-01
2.087449e-01
2.087448e-01
2.087447e-01
2.087446e-01
2.087447e-01
2.087446e-01
2.087446e-01
2.087446e-01
2.087446e-01
2.087447e-01
2.087447e-01
2.087448e-01
2.087448e-01
2.087449e-01
2.087449e-01
2.087449e-01
2.087449e-01
2.087449e-01
2.087448e-01
2.087447e-01
2.087447e-01
2.087446e-01
2.087446e-01
2.087446e-01
2.087446e-01
2.087447e-01
2.087447e-01
2.087448e-01
2.087448e-01
2.087448e-01
2.087449e-01
2.087449e-01
2.087449e-01
2.087449e-01
2.087449e-01
2.087449e-01
2.087441e-01
2.087440e-01
2.087440e-01
2.087441e-01
2.087443e-01
2.087444e-01
2.087445e-01
2.087446e-01
2.087447e-01
2.087447e-01
2.087448e-01
2.087449e-01
2.087449e-01
2.087450e-01
2.087450e-01
2.087450e-01
2.087432e-01
2.087431e-01
2.087432e-01
2.087435e-01
2.087437e-01
2.087440e-01
2.087442e-01
2.087443e-01
2.087445e-01
2.087446e-01
2.087448e-01
2.087449e-01
2.087449e-01
2.087450e-01
2.087451e-01
2.087451e-01
2.087427e-01
2.087426e-01
2.087428e-01
2.087431e-01
2.087434e-01
2.087437e-01
2.087440e-01
2.087442e-01
2.087444e-01
2.087446e-01
2.087447e-01
2.087449e-01
2.087450e-01
2.087451e-01
2.087451e-01
2.087452e-01


9.885174e-01
9.901457e-01
9.916520e-01
9.928116e-01
9.938879e-01
9.948804e-01
9.957845e-01
9.965899e-01
9.972879e-01
9.978716e-01
9.983358e-01
9.986759e-01
9.988873e-01
9.989627e-01
9.990171e-01
9.956613e-01
9.956559e-01
9.949097e-01
9.953898e-01
9.960164e-01
9.966006e-01
9.971315e-01
9.976121e-01
9.980475e-01
9.984416e-01
9.987987e-01
9.991226e-01
9.994160e-01
9.996719e-01
9.998395e-01
9.994157e-01
9.936713e-01
9.984906e-01
9.980621e-01
9.979464e-01
9.981091e-01
9.983232e-01
9.985306e-01
9.987231e-01
9.989050e-01
9.990812e-01
9.992531e-01
9.994135e-01
9.995378e-01
9.995637e-01
9.993400e-01
9.985283e-01
9.970685e-01
9.996928e-01
9.993802e-01
9.991871e-01
9.991382e-01
9.991577e-01
9.991905e-01
9.992233e-01
9.992553e-01
9.992868e-01
9.993131e-01
9.993204e-01
9.992813e-01
9.991572e-01
9.989344e-01
9.987455e-01
9.986977e-01
9.996940e-01
9.993819e-01
9.991886e-01
9.991379e-01
9.991529e-01
9.991765e-01
9.991930e-01
9.991985e-01
9.991909e-01
9.991667e-01
9.991217e-01
9.990567e-01
9.989949e-01
9.990072e-01
9.991820e-01
9.994846e-01
9.984928e-01
9.980653e-01
9.979495e-01
9.981091e-01
9.983149e-01
9.985049e-01
9.986657e-01
9.987949e-01
9.988917e-01
9.989569e-01
9.989981e-01
9.990384e-01
9.991230e-01
9.993004e-01
9.995669e-01
9.998425e-01
9.956555e-01
9.949094e-01
9.953892e-01
9.960146e-01
9.965960e-01
9.971211e-01
9.975905e-01
9.980061e-01
9.983683e-01
9.986779e-01
9.989400e-01
9.991689e-01
9.993893e-01
9.996204e-01
9.998365e-01
9.999726e-01
9.885096e-01
9.901335e-01
9.916370e-01
9.927947e-01
9.938727e-01
9.948749e-01
9.958032e-01
9.966557e-01
9.974324e-01
9.981319e-01
9.987458e-01
9.992551e-01
9.996340e-01
9.998677e-01
9.999741e-01
9.999995e-01
1 2 19 18
2 3 20 19
3 4 21 20
4 5 22 21
5 6 23 22
6 7 24 23
7 8 25 24
8 9 26 25
9 10 27 26
10 11 28 27
11 12 29 28
12 13 30 29
13 14 31 30
14 15 32 31
15 16 33 32
16 17 34 33
18 19 36 35
19 20 37 36
20 21 38 37
21 22 39 38
22 23 40 39
23 24 41 40
24 25 42 41
25 26 43 42
26 27 44 43
27 28 45 44
28 29 46 45
29 30 47 46
30 31 48 47
31 32 49 48
32 33 50 49
33 34 51 50
35 36 53 52
36 37 54 53
37 38 55 54
38 39 56 55
39 40 57 56
40 41 58 57
41 42 59 58
42 43 60 59
43 44 61 60
44 45 62 61
45 46 63 62
46 47 64 63
47 48 65 64
48 49 66 65
49 50 67 66
50 51 68 67
52 53 70 69
53 54 71 70
54 55 72 71
55 56 73 72
56 57 74 73
57 58 75 74
58 59 76 75
59 60 77 76
60 61 78 77
61 62 79 78
62 63 80 79
63 64 81 80
64 65 82 81
65 66 83 82
66 67 84 83
67 68 85 84
69 70 87 86
70 71 88 87
71 72 89 88
72 73 90 89
73 74 91 90
74 75 92 91
75 76 93 92
76 77 94 93
77 78 95 94
78 79 96 95
79 80 97 96
80 81 98 97
81 82 99 98
82 83 100 99
83 84 101 100
84 85 102 101
86 87 104 103
87 88 105 104
88 89 106 105
89 90 107 106
90 91 108 107
91 92 109 108
92 93 110 109
93 94 111 110
94 95 112 111
95 96 113 112
96 97 114 113
97 98 115 114
98 99 116 115
99 100 117 116
100 101 118 117
101 102 119 118
103 104 121 120
104 105 122 121
105 106 123 122
106 107 124 123
107 108 125 124
108 109 126 125
109 110 127 126
110 111 128 127
111 112 129 128
112 113 130 129
113 114 131 130
114 115 132 131
115 116 133 132
116 117 134 133
117 118 135 134
118 119 136 135
120 121 138 137
121 122 139 138
122 123 140 139
123 124 141 140
124 125 142 141
125 126 143 142
126 127 144 143
127 128 145 144
128 129 146 145
129 130 147 146
130 131 148 147
131 132 149 148
132 133 150 149
133 134 151 150
134 135 152 151
135 136 153 152
