TITLE = "Solution"
VARIABLES = x, y, u, v, psiu, psiv, t, stress
ZONE T="structure" N=153 E=128 F=FEBLOCK ET=QUADRILATERAL VARLOCATION=([7,8]=cellcentered)
0.000000e+00
1.250000e+01
2.500000e+01
3.750000e+01
5.000000e+01
6.250000e+01
7.500000e+01
8.750000e+01
1.000000e+02
1.125000e+02
1.250000e+02
1.375000e+02
1.500000e+02
1.625000e+02
1.750000e+02
1.875000e+02
2.000000e+02
0.000000e+00
1.250000e+01
2.500000e+01
3.750000e+01
5.000000e+01
6.250000e+01
7.500000e+01
8.750000e+01
1.000000e+02
1.125000e+02
1.250000e+02
1.375000e+02
1.500000e+02
1.625000e+02
1.750000e+02
1.875000e+02
2.000000e+02
0.000000e+00
1.250000e+01
2.500000e+01
3.750000e+01
5.000000e+01
6.250000e+01
7.500000e+01
8.750000e+01
1.000000e+02
1.125000e+02
1.250000e+02
1.375000e+02
1.500000e+02
1.625000e+02
1.750000e+02
1.875000e+02
2.000000e+02
0.000000e+00
1.250000e+01
2.500000e+01
3.750000e+01
5.000000e+01
6.250000e+01
7.500000e+01
8.750000e+01
1.000000e+02
1.125000e+02
1.250000e+02
1.375000e+02
1.500000e+02
1.625000e+02
1.750000e+02
1.875000e+02
2.000000e+02
0.000000e+00
1.250000e+01
2.500000e+01
3.750000e+01
5.000000e+01
6.250000e+01
7.500000e+01
8.750000e+01
1.000000e+02
1.125000e+02
1.250000e+02
1.375000e+02
1.500000e+02
1.625000e+02
1.750000e+02
1.875000e+02
2.000000e+02
0.000000e+00
1.250000e+01
2.500000e+01
3.750000e+01
5.000000e+01
6.250000e+01
7.500000e+01
8.750000e+01
1.000000e+02
1.125000e+02
1.250000e+02
1.375000e+02
1.500000e+02
1.625000e+02
1.750000e+02
1.875000e+02
2.000000e+02
0.000000e+00
1.250000e+01
2.500000e+01
3.750000e+01
5.000000e+01
6.250000e+01
7.500000e+01
8.750000e+01
1.000000e+02
1.125000e+02
1.250000e+02
1.375000e+02
1.500000e+02
1.625000e+02
1.750000e+02
1.875000e+02
2.000000e+02
0.000000e+00
1.250000e+01
2.500000e+01
3.750000e+01
5.000000e+01
6.250000e+01
7.500000e+01
8.750000e+01
1.000000e+02
1.125000e+02
1.250000e+02
1.375000e+02
1.500000e+02
1.625000e+02
1.750000e+02
1.875000e+02
2.000000e+02
0.000000e+00
1.250000e+01
2.500000e+01
3.750000e+01
5.000000e+01
6.250000e+01
7.500000e+01
8.750000e+01
1.000000e+02
1.125000e+02
1.250000e+02
1.375000e+02
1.500000e+02
1.625000e+02
1.750000e+02
1.875000e+02
2.000000e+02
0.000000e+00
0.000000e+00
0.000000e+00
0.000000e+00
0.000000e+00
0.000000e+00
0.000000e+00
0.000000e+00
0.000000e+00
0.000000e+00
0.000000e+00
0.000000e+00
0.000000e+00
0.000000e+00
0.000000e+00
0.000000e+00
0.000000e+00
1.250000e+01
1.250000e+01
1.250000e+01
1.250000e+01
1.250000e+01
1.250000e+01
1.250000e+01
1.250000e+01
1.250000e+01
1.250000e+01
1.250000e+01
1.250000e+01
1.250000e+01
1.250000e+01
1.250000e+01
1.250000e+01
1.250000e+01
2.500000e+01
2.500000e+01
2.500000e+01
2.500000e+01
2.500000e+01
2.500000e+01
2.500000e+01
2.500000e+01
2.500000e+01
2.500000e+01
2.500000e+01
2.500000e+01
2.500000e+01
2.500000e+01
2.500000e+01
2.500000e+01
2.500000e+01
3.750000e+01
3.750000e+01
3.750000e+01
3.750000e+01
3.750000e+01
3.750000e+01
3.750000e+01
3.750000e+01
3.750000e+01
3.750000e+01
3.750000e+01
3.750000e+01
3.750000e+01
3.750000e+01
3.750000e+01
3.750000e+01
3.750000e+01
5.000000e+01
5.000000e+01
5.000000e+01
5.000000e+01
5.000000e+01
5.000000e+01
5.000000e+01
5.000000e+01
5.000000e+01
5.000000e+01
5.000000e+01
5.000000e+01
5.000000e+01
5.000000e+01
5.000000e+01
5.000000e+01
5.000000e+01
6.250000e+01
6.250000e+01
6.250000e+01
6.250000e+01
6.250000e+01
6.250000e+01
6.250000e+01
6.250000e+01
6.250000e+01
6.250000e+01
6.250000e+01
6.250000e+01
6.250000e+01
6.250000e+01
6.250000e+01
6.250000e+01
6.250000e+01
7.500000e+01
7.500000e+01
7.500000e+01
7.500000e+01
7.500000e+01
7.500000e+01
7.500000e+01
7.500000e+01
7.500000e+01
7.500000e+01
7.500000e+01
7.500000e+01
7.500000e+01
7.500000e+01
7.500000e+01
7.500000e+01
7.500000e+01
8.750000e+01
8.750000e+01
8.750000e+01
8.750000e+01
8.750000e+01
8.750000e+01
8.750000e+01
8.750000e+01
8.750000e+01
8.750000e+01
8.750000e+01
8.750000e+01
8.750000e+01
8.750000e+01
8.750000e+01
8.750000e+01
8.750000e+01
1.000000e+02
1.000000e+02
1.000000e+02
1.000000e+02
1.000000e+02
1.000000e+02
1.000000e+02
1.000000e+02
1.000000e+02
1.000000e+02
1.000000e+02
1.000000e+02
1.000000e+02
1.000000e+02
1.000000e+02
1.000000e+02
1.000000e+02
0.000000e+00
-7.506907e-02
-1.382259e-01
-1.963385e-01
-2.504578e-01
-3.004695e-01
-3.462664e-01
-3.878127e-01
-4.251691e-01
-4.585075e-01
-4.881583e-01
-5.147012e-01
-5.391329e-01
-5.631758e-01
-5.898001e-01
-6.224982e-01
-6.470344e-01
0.000000e+00
-4.482983e-02
-9.312526e-02
-1.377231e-01
-1.788116e-01
-2.165469e-01
-2.510073e-01
-2.822388e-01
-3.102978e-01
-3.352706e-01
-3.572841e-01
-3.764967e-01
-3.930313e-01
-4.067174e-01
-4.163710e-01
-4.184869e-01
-4.260729e-01
0.000000e+00
-2.803524e-02
-5.764750e-02
-8.719021e-02
-1.147675e-01
-1.400874e-01
-1.631294e-01
-1.839194e-01
-2.024627e-01
-2.187281e-01
-2.326283e-01
-2.439691e-01
-2.523460e-01
-2.570222e-01
-2.571520e-01
-2.552839e-01
-2.630211e-01
0.000000e+00
-1.353153e-02
-2.785648e-02
-4.227195e-02
-5.605580e-02
-6.875163e-02
-8.025919e-02
-9.054495e-02
-9.955003e-02
-1.071572e-01
-1.131721e-01
-1.173108e-01
-1.192345e-01
-1.187851e-01
-1.169386e-01
-1.174436e-01
-1.232047e-01
0.000000e+00
-1.246581e-05
-2.833866e-05
-4.415947e-05
-5.255619e-05
-3.708951e-05
3.487064e-05
2.218749e-04
6.199836e-04
1.372284e-03
2.665454e-03
4.687028e-03
7.487678e-03
1.065256e-02
1.283876e-02
1.223916e-02
8.424799e-03
0.000000e+00
1.351235e-02
2.781195e-02
4.220072e-02
5.596721e-02
6.867957e-02
8.028714e-02
9.084667e-02
1.004497e-01
1.092076e-01
1.172349e-01
1.245909e-01
1.311479e-01
1.364058e-01
1.394988e-01
1.397441e-01
1.378081e-01
0.000000e+00
2.803210e-02
5.763791e-02
8.717112e-02
1.147377e-01
1.400503e-01
1.630986e-01
1.839294e-01
2.025859e-01
2.191012e-01
2.334896e-01
2.457161e-01
2.556400e-01
2.629770e-01
2.673809e-01
2.688108e-01
2.683593e-01
0.000000e+00
4.484822e-02
9.316525e-02
1.377869e-01
1.788971e-01
2.166384e-01
2.510586e-01
2.821449e-01
3.098499e-01
3.340935e-01
3.547609e-01
3.717089e-01
3.848021e-01
3.939971e-01
3.994822e-01
4.018212e-01
4.022508e-01
0.000000e+00
7.509982e-02
1.383071e-01
1.964905e-01
2.507005e-01
3.008110e-01
3.466737e-01
3.881553e-01
4.251170e-01
4.573667e-01
4.846248e-01
5.065278e-01
5.227159e-01
5.330619e-01
5.380654e-01
5.393004e-01
5.392765e-01
0.000000e+00
-4.544141e-02
-8.920689e-02
-1.459168e-01
-2.155165e-01
-2.978758e-01
-3.920928e-01
-4.971131e-01
-6.118199e-01
-7.351114e-01
-8.659697e-01
-1.003585e+00
-1.147624e+00
-1.298858e+00
-1.461209e+00
-1.646968e+00
-1.913872e+00
0.000000e+00
-2.797458e-02
-7.362915e-02
-1.310422e-01
-2.017794e-01
-2.852626e-01
-3.806210e-01
-4.867743e-01
-6.025928e-01
-7.269549e-01
-8.588144e-01
-9.973240e-01
-1.142101e+00
-1.293893e+00
-1.456181e+00
-1.640813e+00
-1.867007e+00
0.000000e+00
-2.110934e-02
-6.282990e-02
-1.204549e-01
-1.918608e-01
-2.762033e-01
-3.724381e-01
-4.794747e-01
-5.961909e-01
-7.214812e-01
-8.543195e-01
-9.938877e-01
-1.139839e+00
-1.292799e+00
-1.455226e+00
-1.630171e+00
-1.799482e+00
0.000000e+00
-1.819058e-02
-5.746058e-02
-1.142404e-01
-1.859044e-01
-2.707660e-01
-3.676008e-01
-4.752767e-01
-5.926929e-01
-7.187734e-01
-8.525146e-01
-9.930824e-01
-1.139965e+00
-1.293094e+00
-1.452272e+00
-1.613022e+00
-1.761110e+00
0.000000e+00
-1.734976e-02
-5.583558e-02
-1.122579e-01
-1.839414e-01
-2.690143e-01
-3.661275e-01
-4.741500e-01
-5.920019e-01
-7.186250e-01
-8.529931e-01
-9.941402e-01
-1.141154e+00
-1.292950e+00
-1.447256e+00
-1.598796e+00
-1.738401e+00
0.000000e+00
-1.817978e-02
-5.745290e-02
-1.142541e-01
-1.859716e-01
-2.709430e-01
-3.679794e-01
-4.759936e-01
-5.939289e-01
-7.207215e-01
-8.552792e-01
-9.964330e-01
-1.142817e+00
-1.292570e+00
-1.442813e+00
-1.589156e+00
-1.725781e+00
0.000000e+00
-2.109172e-02
-6.281717e-02
-1.204777e-01
-1.919740e-01
-2.765026e-01
-3.730799e-01
-4.806920e-01
-5.982925e-01
-7.247998e-01
-8.590476e-01
-9.996876e-01
-1.145025e+00
-1.292815e+00
-1.440145e+00
-1.583680e+00
-1.720215e+00
0.000000e+00
-2.795806e-02
-7.361807e-02
-1.310726e-01
-2.019153e-01
-2.856147e-01
-3.813680e-01
-4.881813e-01
-6.050070e-01
-7.307436e-01
-8.641772e-01
-1.003863e+00
-1.147962e+00
-1.294107e+00
-1.439477e+00
-1.581416e+00
-1.718908e+00
0.000000e+00
-4.543458e-02
-8.920784e-02
-1.459637e-01
-2.156740e-01
-2.982520e-01
-3.928572e-01
-4.985078e-01
-6.141451e-01
-7.386484e-01
-8.707746e-01
-1.009047e+00
-1.151614e+00
-1.296159e+00
-1.440045e+00
-1.581002e+00
-1.718928e+00


0.000000e+00
5.181701e-08
1.038637e-07
1.521730e-07
1.974259e-07
2.393680e-07
2.778320e-07
3.128185e-07
3.444095e-07
3.727486e-07
3.980332e-07
4.204812e-07
4.402232e-07
4.571125e-07
4.709402e-07
4.827689e-07
4.933067e-07
0.000000e+00
2.921155e-08
7.105163e-08
1.086277e-07
1.430301e-07
1.746955e-07
2.036059e-07
2.297725e-07
2.532262e-07
2.739927e-07
2.920735e-07
3.074221e-07
3.199655e-07
3.299659e-07
3.391013e-07
3.499640e-07
3.611605e-07
0.000000e+00
1.845200e-08
4.496128e-08
6.979716e-08
9.291161e-08
1.141356e-07
1.333953e-07
1.506768e-07
1.659615e-07
1.792047e-07
1.903360e-07
1.993060e-07
2.062586e-07
2.119119e-07
2.178795e-07
2.259579e-07
2.353025e-07
0.000000e+00
9.027939e-09
2.156679e-08
3.373323e-08
4.529368e-08
5.589527e-08
6.542883e-08
7.385619e-08
8.113229e-08
8.719752e-08
9.200220e-08
9.557736e-08
9.816719e-08
1.003855e-07
1.032470e-07
1.079561e-07
1.144404e-07
0.000000e+00
9.110277e-12
1.108562e-11
-5.632283e-12
-5.686236e-11
-1.678233e-10
-3.754684e-10
-7.289893e-10
-1.285394e-09
-2.095339e-09
-3.171942e-09
-4.438653e-09
-5.668547e-09
-6.446493e-09
-6.134870e-09
-3.918144e-09
3.380953e-10
0.000000e+00
-9.010899e-09
-2.154420e-08
-3.373536e-08
-4.537675e-08
-5.615769e-08
-6.603207e-08
-7.504681e-08
-8.325818e-08
-9.070170e-08
-9.736534e-08
-1.031604e-07
-1.079035e-07
-1.113197e-07
-1.130693e-07
-1.127337e-07
-1.104040e-07
0.000000e+00
-1.844122e-08
-4.494555e-08
-6.978831e-08
-9.293194e-08
-1.142273e-07
-1.336316e-07
-1.511755e-07
-1.668970e-07
-1.808120e-07
-1.928923e-07
-2.030471e-07
-2.111199e-07
-2.169253e-07
-2.203700e-07
-2.215171e-07
-2.208292e-07
0.000000e+00
-2.922256e-08
-7.107370e-08
-1.086479e-07
-1.430272e-07
-1.746329e-07
-2.034237e-07
-2.293781e-07
-2.524854e-07
-2.727255e-07
-2.900602e-07
-3.044284e-07
-3.157471e-07
-3.239462e-07
-3.291013e-07
-3.316356e-07
-3.322476e-07
0.000000e+00
-5.187779e-08
-1.039713e-07
-1.523061e-07
-1.975397e-07
-2.393690e-07
-2.775434e-07
-3.119349e-07
-3.424435e-07
-3.689786e-07
-3.914701e-07
-4.098917e-07
-4.242822e-07
-4.347659e-07
-4.415918e-07
-4.451188e-07
-4.462511e-07
0.000000e+00
4.691113e-08
9.143639e-08
1.413689e-07
2.009258e-07
2.707217e-07
3.502905e-07
4.388869e-07
5.356554e-07
6.397675e-07
7.505147e-07
8.674597e-07
9.908341e-07
1.122404e-06
1.265421e-06
1.417337e-06
1.568081e-06
0.000000e+00
2.834251e-08
7.161952e-08
1.219689e-07
1.827142e-07
2.539382e-07
3.350330e-07
4.251572e-07
5.234339e-07
6.290237e-07
7.412061e-07
8.595117e-07
9.839485e-07
1.115294e-06
1.254834e-06
1.402894e-06
1.551651e-06
0.000000e+00
1.801399e-08
5.573718e-08
1.060552e-07
1.676996e-07
2.401599e-07
3.225803e-07
4.140546e-07
5.136917e-07
6.206493e-07
7.341827e-07
8.537080e-07
9.788254e-07
1.109168e-06
1.244524e-06
1.387181e-06
1.531149e-06
0.000000e+00
1.319509e-08
4.739231e-08
9.678582e-08
1.588468e-07
2.320710e-07
3.153515e-07
4.077255e-07
5.082904e-07
6.161894e-07
7.306171e-07
8.508099e-07
9.759636e-07
1.105074e-06
1.237338e-06
1.374504e-06
1.511317e-06
0.000000e+00
1.181221e-08
4.486487e-08
9.380571e-08
1.559793e-07
2.295081e-07
3.131582e-07
4.059413e-07
5.069440e-07
6.152776e-07
7.300548e-07
8.503424e-07
9.750685e-07
1.102904e-06
1.232545e-06
1.364806e-06
1.494583e-06
0.000000e+00
1.320580e-08
4.743219e-08
9.688429e-08
1.590424e-07
2.324163e-07
3.159118e-07
4.085701e-07
5.094677e-07
6.176761e-07
7.322279e-07
8.520665e-07
9.759644e-07
1.102411e-06
1.229775e-06
1.357944e-06
1.482591e-06
0.000000e+00
1.803125e-08
5.580668e-08
1.062278e-07
1.680427e-07
2.407663e-07
3.235656e-07
4.155412e-07
5.157656e-07
6.232709e-07
7.370226e-07
8.558786e-07
9.785260e-07
1.103388e-06
1.228725e-06
1.353834e-06
1.475290e-06
0.000000e+00
2.836445e-08
7.170779e-08
1.221816e-07
1.831331e-07
2.546746e-07
3.362247e-07
4.269465e-07
5.259135e-07
6.321257e-07
7.444958e-07
8.618195e-07
9.827373e-07
1.105700e-06
1.229103e-06
1.351986e-06
1.471807e-06
0.000000e+00
4.694745e-08
9.153973e-08
1.415986e-07
2.013623e-07
2.714712e-07
3.514787e-07
4.406328e-07
5.380097e-07
6.425927e-07
7.532669e-07
8.687971e-07
9.878108e-07
1.108820e-06
1.230410e-06
1.351686e-06
1.470792e-06


2.193441e-01
2.193440e-01
2.193447e-01
2.193458e-01
2.193468e-01
2.193477e-01
2.193485e-01
2.193492e-01
2.193498e-01
2.193504e-01
2.193508e-01
2.193511e-01
2.193514e-01
2.193513e-01
2.193509e-01
2.193507e-01
2.193458e-01
2.193456e-01
2.193461e-01
2.193469e-01
2.193477e-01
2.193484e-01
2.193491e-01
2.193496e-01
2.193501e-01
2.193506e-01
2.193509e-01
2.193512e-01
2.193514e-01
2.193512e-01
2.193509e-01
2.193506e-01
2.193485e-01
2.193483e-01
2.193485e-01
2.193489e-01
2.193493e-01
2.193497e-01
2.193501e-01
2.193504e-01
2.193507e-01
2.193510e-01
2.193512e-01
2.193513e-01
2.193514e-01
2.193512e-01
2.193509e-01
2.193508e-01
2.193504e-01
2.193502e-01
2.193501e-01
2.193502e-01
2.193504e-01
2.193506e-01
2.193508e-01
2.193509e-01
2.193511e-01
2.193512e-01
2.193513e-01
2.193513e-01
2.193514e-01
2.193513e-01
2.193512e-01
2.193511e-01
2.193504e-01
2.193502e-01
2.193501e-01
2.193502e-01
2.193504e-01
2.193506e-01
2.193507e-01
2.193509e-01
2.193510e-01
2.193511e-01
2.193512e-01
2.193513e-01
2.193513e-01
2.193514e-01
2.193514e-01
2.193515e-01
2.193485e-01
2.193483e-01
2.193485e-01
2.193489e-01
2.193493e-01
2.193497e-01
2.193500e-01
2.193503e-01
2.193506e-01
2.193508e-01
2.193510e-01
2.193512e-01
2.193514e-01
2.193515e-01
2.193517e-01
2.193518e-01
2.193458e-01
2.193456e-01
2.193461e-01
2.193469e-01
2.193477e-01
2.193484e-01
2.193491e-01
2.193496e-01
2.193501e-01
2.193505e-01
2.193509e-01
2.193512e-01
2.193515e-01
2.193517e-01
2.193519e-01
2.193519e-01
2.193441e-01
2.193440e-01
2.193447e-01
2.193458e-01
2.193468e-01
2.193477e-01
2.193485e-01
2.193492e-01
2.193499e-01
2.193504e-01
2.193509e-01
2.193512e-01
2.193516e-01
2.193518e-01
2.193520e-01
2.193520e-01


9.873214e-01
9.891193e-01
9.907825e-01
9.920628e-01
9.932512e-01
9.943470e-01
9.953453e-01
9.962346e-01
9.970053e-01
9.976499e-01
9.981624e-01
9.985379e-01
9.987713e-01
9.988546e-01
9.989147e-01
9.952093e-01
9.952034e-01
9.943795e-01
9.949096e-01
9.956014e-01
9.962464e-01
9.968327e-01
9.973634e-01
9.978440e-01
9.982793e-01
9.986735e-01
9.990312e-01
9.993551e-01
9.996377e-01
9.998228e-01
9.993548e-01
9.930118e-01
9.983334e-01
9.978602e-01
9.977324e-01
9.979121e-01
9.981485e-01
9.983775e-01
9.985901e-01
9.987909e-01
9.989855e-01
9.991752e-01
9.993524e-01
9.994896e-01
9.995182e-01
9.992712e-01
9.983750e-01
9.967630e-01
9.996608e-01
9.993157e-01
9.991025e-01
9.990484e-01
9.990700e-01
9.991062e-01
9.991424e-01
9.991778e-01
9.992125e-01
9.992415e-01
9.992496e-01
9.992064e-01
9.990694e-01
9.988234e-01
9.986148e-01
9.985620e-01
9.996621e-01
9.993175e-01
9.991041e-01
9.990480e-01
9.990646e-01
9.990907e-01
9.991089e-01
9.991150e-01
9.991066e-01
9.990799e-01
9.990302e-01
9.989584e-01
9.988902e-01
9.989037e-01
9.990968e-01
9.994309e-01
9.983358e-01
9.978638e-01
9.977359e-01
9.979122e-01
9.981393e-01
9.983491e-01
9.985267e-01
9.986693e-01
9.987762e-01
9.988482e-01
9.988937e-01
9.989382e-01
9.990316e-01
9.992275e-01
9.995218e-01
9.998261e-01
9.952030e-01
9.943792e-01
9.949089e-01
9.955994e-01
9.962414e-01
9.968211e-01
9.973394e-01
9.977984e-01
9.981983e-01
9.985402e-01
9.988296e-01
9.990823e-01
9.993257e-01
9.995809e-01
9.998195e-01
9.999698e-01
9.873127e-01
9.891058e-01
9.907659e-01
9.920441e-01
9.932344e-01
9.943409e-01
9.953660e-01
9.963072e-01
9.971649e-01
9.979372e-01
9.986151e-01
9.991775e-01
9.995958e-01
9.998540e-01
9.999714e-01
9.999994e-01
1 2 19 18
2 3 20 19
3 4 21 20
4 5 22 21
5 6 23 22
6 7 24 23
7 8 25 24
8 9 26 25
9 10 27 26
10 11 28 27
11 12 29 28
12 13 30 29
13 14 31 30
14 15 32 31
15 16 33 32
16 17 34 33
18 19 36 35
19 20 37 36
20 21 38 37
21 22 39 38
22 23 40 39
23 24 41 40
24 25 42 41
25 26 43 42
26 27 44 43
27 28 45 44
28 29 46 45
29 30 47 46
30 31 48 47
31 32 49 48
32 33 50 49
33 34 51 50
35 36 53 52
36 37 54 53
37 38 55 54
38 39 56 55
39 40 57 56
40 41 58 57
41 42 59 58
42 43 60 59
43 44 61 60
44 45 62 61
45 46 63 62
46 47 64 63
47 48 65 64
48 49 66 65
49 50 67 66
50 51 68 67
52 53 70 69
53 54 71 70
54 55 72 71
55 56 73 72
56 57 74 73
57 58 75 74
58 59 76 75
59 60 77 76
60 61 78 77
61 62 79 78
62 63 80 79
63 64 81 80
64 65 82 81
65 66 83 82
66 67 84 83
67 68 85 84
69 70 87 86
70 71 88 87
71 72 89 88
72 73 90 89
73 74 91 90
74 75 92 91
75 76 93 92
76 77 94 93
77 78 95 94
78 79 96 95
79 80 97 96
80 81 98 97
81 82 99 98
82 83 100 99
83 84 101 100
84 85 102 101
86 87 104 103
87 88 105 104
88 89 106 105
89 90 107 106
90 91 108 107
91 92 109 108
92 93 110 109
93 94 111 110
94 95 112 111
95 96 113 112
96 97 114 113
97 98 115 114
98 99 116 115
99 100 117 116
100 101 118 117
101 102 119 118
103 104 121 120
104 105 122 121
105 106 123 122
106 107 124 123
107 108 125 124
108 109 126 125
109 110 127 126
110 111 128 127
111 112 129 128
112 113 130 129
113 114 131 130
114 115 132 131
115 116 133 132
116 117 134 133
117 118 135 134
118 119 136 135
120 121 138 137
121 122 139 138
122 123 140 139
123 124 141 140
124 125 142 141
125 126 143 142
126 127 144 143
127 128 145 144
128 129 146 145
129 130 147 146
130 131 148 147
131 132 149 148
132 133 150 149
133 134 151 150
134 135 152 151
135 136 153 152
