TITLE = "Solution"
VARIABLES = x, y, u, v, psiu, psiv, t, stress
ZONE T="structure" N=153 E=128 F=FEBLOCK ET=QUADRILATERAL VARLOCATION=([7,8]=cellcentered)
0.000000e+00
1.250000e+01
2.500000e+01
3.750000e+01
5.000000e+01
6.250000e+01
7.500000e+01
8.750000e+01
1.000000e+02
1.125000e+02
1.250000e+02
1.375000e+02
1.500000e+02
1.625000e+02
1.750000e+02
1.875000e+02
2.000000e+02
0.000000e+00
1.250000e+01
2.500000e+01
3.750000e+01
5.000000e+01
6.250000e+01
7.500000e+01
8.750000e+01
1.000000e+02
1.125000e+02
1.250000e+02
1.375000e+02
1.500000e+02
1.625000e+02
1.750000e+02
1.875000e+02
2.000000e+02
0.000000e+00
1.250000e+01
2.500000e+01
3.750000e+01
5.000000e+01
6.250000e+01
7.500000e+01
8.750000e+01
1.000000e+02
1.125000e+02
1.250000e+02
1.375000e+02
1.500000e+02
1.625000e+02
1.750000e+02
1.875000e+02
2.000000e+02
0.000000e+00
1.250000e+01
2.500000e+01
3.750000e+01
5.000000e+01
6.250000e+01
7.500000e+01
8.750000e+01
1.000000e+02
1.125000e+02
1.250000e+02
1.375000e+02
1.500000e+02
1.625000e+02
1.750000e+02
1.875000e+02
2.000000e+02
0.000000e+00
1.250000e+01
2.500000e+01
3.750000e+01
5.000000e+01
6.250000e+01
7.500000e+01
8.750000e+01
1.000000e+02
1.125000e+02
1.250000e+02
1.375000e+02
1.500000e+02
1.625000e+02
1.750000e+02
1.875000e+02
2.000000e+02
0.000000e+00
1.250000e+01
2.500000e+01
3.750000e+01
5.000000e+01
6.250000e+01
7.500000e+01
8.750000e+01
1.000000e+02
1.125000e+02
1.250000e+02
1.375000e+02
1.500000e+02
1.625000e+02
1.750000e+02
1.875000e+02
2.000000e+02
0.000000e+00
1.250000e+01
2.500000e+01
3.750000e+01
5.000000e+01
6.250000e+01
7.500000e+01
8.750000e+01
1.000000e+02
1.125000e+02
1.250000e+02
1.375000e+02
1.500000e+02
1.625000e+02
1.750000e+02
1.875000e+02
2.000000e+02
0.000000e+00
1.250000e+01
2.500000e+01
3.750000e+01
5.000000e+01
6.250000e+01
7.500000e+01
8.750000e+01
1.000000e+02
1.125000e+02
1.250000e+02
1.375000e+02
1.500000e+02
1.625000e+02
1.750000e+02
1.875000e+02
2.000000e+02
0.000000e+00
1.250000e+01
2.500000e+01
3.750000e+01
5.000000e+01
6.250000e+01
7.500000e+01
8.750000e+01
1.000000e+02
1.125000e+02
1.250000e+02
1.375000e+02
1.500000e+02
1.625000e+02
1.750000e+02
1.875000e+02
2.000000e+02
0.000000e+00
0.000000e+00
0.000000e+00
0.000000e+00
0.000000e+00
0.000000e+00
0.000000e+00
0.000000e+00
0.000000e+00
0.000000e+00
0.000000e+00
0.000000e+00
0.000000e+00
0.000000e+00
0.000000e+00
0.000000e+00
0.000000e+00
1.250000e+01
1.250000e+01
1.250000e+01
1.250000e+01
1.250000e+01
1.250000e+01
1.250000e+01
1.250000e+01
1.250000e+01
1.250000e+01
1.250000e+01
1.250000e+01
1.250000e+01
1.250000e+01
1.250000e+01
1.250000e+01
1.250000e+01
2.500000e+01
2.500000e+01
2.500000e+01
2.500000e+01
2.500000e+01
2.500000e+01
2.500000e+01
2.500000e+01
2.500000e+01
2.500000e+01
2.500000e+01
2.500000e+01
2.500000e+01
2.500000e+01
2.500000e+01
2.500000e+01
2.500000e+01
3.750000e+01
3.750000e+01
3.750000e+01
3.750000e+01
3.750000e+01
3.750000e+01
3.750000e+01
3.750000e+01
3.750000e+01
3.750000e+01
3.750000e+01
3.750000e+01
3.750000e+01
3.750000e+01
3.750000e+01
3.750000e+01
3.750000e+01
5.000000e+01
5.000000e+01
5.000000e+01
5.000000e+01
5.000000e+01
5.000000e+01
5.000000e+01
5.000000e+01
5.000000e+01
5.000000e+01
5.000000e+01
5.000000e+01
5.000000e+01
5.000000e+01
5.000000e+01
5.000000e+01
5.000000e+01
6.250000e+01
6.250000e+01
6.250000e+01
6.250000e+01
6.250000e+01
6.250000e+01
6.250000e+01
6.250000e+01
6.250000e+01
6.250000e+01
6.250000e+01
6.250000e+01
6.250000e+01
6.250000e+01
6.250000e+01
6.250000e+01
6.250000e+01
7.500000e+01
7.500000e+01
7.500000e+01
7.500000e+01
7.500000e+01
7.500000e+01
7.500000e+01
7.500000e+01
7.500000e+01
7.500000e+01
7.500000e+01
7.500000e+01
7.500000e+01
7.500000e+01
7.500000e+01
7.500000e+01
7.500000e+01
8.750000e+01
8.750000e+01
8.750000e+01
8.750000e+01
8.750000e+01
8.750000e+01
8.750000e+01
8.750000e+01
8.750000e+01
8.750000e+01
8.750000e+01
8.750000e+01
8.750000e+01
8.750000e+01
8.750000e+01
8.750000e+01
8.750000e+01
1.000000e+02
1.000000e+02
1.000000e+02
1.000000e+02
1.000000e+02
1.000000e+02
1.000000e+02
1.000000e+02
1.000000e+02
1.000000e+02
1.000000e+02
1.000000e+02
1.000000e+02
1.000000e+02
1.000000e+02
1.000000e+02
1.000000e+02
0.000000e+00
-7.160685e-02
-1.318509e-01
-1.872832e-01
-2.389063e-01
-2.866112e-01
-3.302955e-01
-3.699253e-01
-4.055584e-01
-4.373587e-01
-4.656416e-01
-4.909599e-01
-5.142644e-01
-5.371980e-01
-5.625940e-01
-5.937835e-01
-6.171878e-01
0.000000e+00
-4.276232e-02
-8.883039e-02
-1.313713e-01
-1.705647e-01
-2.065594e-01
-2.394301e-01
-2.692210e-01
-2.959855e-01
-3.198063e-01
-3.408041e-01
-3.591304e-01
-3.749021e-01
-3.879568e-01
-3.971650e-01
-3.991833e-01
-4.064193e-01
0.000000e+00
-2.674232e-02
-5.498890e-02
-8.316906e-02
-1.094744e-01
-1.336264e-01
-1.556055e-01
-1.754364e-01
-1.931243e-01
-2.086394e-01
-2.218983e-01
-2.327158e-01
-2.407062e-01
-2.451667e-01
-2.452905e-01
-2.435086e-01
-2.508888e-01
0.000000e+00
-1.290749e-02
-2.657180e-02
-4.032242e-02
-5.347051e-02
-6.558074e-02
-7.655747e-02
-8.636875e-02
-9.495840e-02
-1.022147e-01
-1.079521e-01
-1.118998e-01
-1.137347e-01
-1.133061e-01
-1.115448e-01
-1.120264e-01
-1.175218e-01
0.000000e+00
-1.189051e-05
-2.703084e-05
-4.212148e-05
-5.013049e-05
-3.537697e-05
3.326369e-05
2.116408e-04
5.913828e-04
1.308975e-03
2.542483e-03
4.470787e-03
7.142222e-03
1.016108e-02
1.224641e-02
1.167448e-02
8.036097e-03
0.000000e+00
1.288920e-02
2.652933e-02
4.025448e-02
5.338601e-02
6.551200e-02
7.658413e-02
8.665655e-02
9.581659e-02
1.041705e-01
1.118274e-01
1.188440e-01
1.250985e-01
1.301138e-01
1.330641e-01
1.332981e-01
1.314514e-01
0.000000e+00
2.673932e-02
5.497975e-02
8.315086e-02
1.094460e-01
1.335910e-01
1.555761e-01
1.754460e-01
1.932418e-01
2.089952e-01
2.227198e-01
2.343822e-01
2.438482e-01
2.508468e-01
2.550475e-01
2.564114e-01
2.559808e-01
0.000000e+00
4.277986e-02
8.886854e-02
1.314322e-01
1.706462e-01
2.066467e-01
2.394791e-01
2.691314e-01
2.955583e-01
3.186835e-01
3.383974e-01
3.545635e-01
3.670526e-01
3.758234e-01
3.810554e-01
3.832865e-01
3.836963e-01
0.000000e+00
7.163619e-02
1.319283e-01
1.874282e-01
2.391379e-01
2.869369e-01
3.306840e-01
3.702520e-01
4.055086e-01
4.362706e-01
4.622711e-01
4.831636e-01
4.986049e-01
5.084735e-01
5.132461e-01
5.144241e-01
5.144014e-01
0.000000e+00
-4.334561e-02
-8.509250e-02
-1.391868e-01
-2.055763e-01
-2.841368e-01
-3.740081e-01
-4.741843e-01
-5.836002e-01
-7.012048e-01
-8.260270e-01
-9.572941e-01
-1.094690e+00
-1.238947e+00
-1.393809e+00
-1.571000e+00
-1.825591e+00
0.000000e+00
-2.668436e-02
-7.023322e-02
-1.249983e-01
-1.924728e-01
-2.721054e-01
-3.630655e-01
-4.643225e-01
-5.747988e-01
-6.934246e-01
-8.192018e-01
-9.513224e-01
-1.089421e+00
-1.234211e+00
-1.389013e+00
-1.565128e+00
-1.780888e+00
0.000000e+00
-2.013573e-02
-5.993202e-02
-1.148992e-01
-1.830116e-01
-2.634640e-01
-3.552601e-01
-4.573596e-01
-5.686923e-01
-6.882034e-01
-8.149143e-01
-9.480446e-01
-1.087263e+00
-1.233167e+00
-1.388102e+00
-1.554978e+00
-1.716478e+00
0.000000e+00
-1.735155e-02
-5.481033e-02
-1.089713e-01
-1.773300e-01
-2.582775e-01
-3.506459e-01
-4.533553e-01
-5.653556e-01
-6.856205e-01
-8.131926e-01
-9.472765e-01
-1.087384e+00
-1.233449e+00
-1.385284e+00
-1.538619e+00
-1.679876e+00
0.000000e+00
-1.654949e-02
-5.326026e-02
-1.070803e-01
-1.754576e-01
-2.566066e-01
-3.492405e-01
-4.522805e-01
-5.646965e-01
-6.854789e-01
-8.136491e-01
-9.482855e-01
-1.088518e+00
-1.233312e+00
-1.380500e+00
-1.525050e+00
-1.658215e+00
0.000000e+00
-1.734125e-02
-5.480300e-02
-1.089844e-01
-1.773941e-01
-2.584463e-01
-3.510070e-01
-4.540391e-01
-5.665345e-01
-6.874787e-01
-8.158297e-01
-9.504724e-01
-1.090104e+00
-1.232949e+00
-1.376262e+00
-1.515854e+00
-1.646177e+00
0.000000e+00
-2.011892e-02
-5.991988e-02
-1.149210e-01
-1.831196e-01
-2.637495e-01
-3.558722e-01
-4.585207e-01
-5.706969e-01
-6.913688e-01
-8.194243e-01
-9.535769e-01
-1.092210e+00
-1.233183e+00
-1.373717e+00
-1.510631e+00
-1.640868e+00
0.000000e+00
-2.666861e-02
-7.022264e-02
-1.250272e-01
-1.926024e-01
-2.724413e-01
-3.637781e-01
-4.656646e-01
-5.771016e-01
-6.970384e-01
-8.243172e-01
-9.575597e-01
-1.095012e+00
-1.234415e+00
-1.373080e+00
-1.508472e+00
-1.639621e+00
0.000000e+00
-4.333910e-02
-8.509341e-02
-1.392315e-01
-2.057265e-01
-2.844957e-01
-3.747373e-01
-4.755147e-01
-5.858182e-01
-7.045786e-01
-8.306102e-01
-9.625043e-01
-1.098495e+00
-1.236373e+00
-1.373622e+00
-1.508076e+00
-1.639641e+00


0.000000e+00
9.520353e-08
1.907623e-07
2.795066e-07
3.627278e-07
4.399559e-07
5.108679e-07
5.754452e-07
6.338189e-07
6.862351e-07
7.330423e-07
7.746280e-07
8.112193e-07
8.425296e-07
8.681570e-07
8.900580e-07
9.095467e-07
0.000000e+00
5.354838e-08
1.303006e-07
1.993114e-07
2.625831e-07
3.209029e-07
3.742193e-07
4.225338e-07
4.658861e-07
5.043084e-07
5.377897e-07
5.662322e-07
5.894920e-07
6.080482e-07
6.249975e-07
6.451170e-07
6.658267e-07
0.000000e+00
3.374437e-08
8.235014e-08
1.279521e-07
1.704608e-07
2.095551e-07
2.450823e-07
2.770005e-07
3.052622e-07
3.297727e-07
3.503925e-07
3.670220e-07
3.799223e-07
3.904179e-07
4.014887e-07
4.164488e-07
4.337353e-07
0.000000e+00
1.648556e-08
3.947901e-08
6.181268e-08
8.306909e-08
1.025956e-07
1.201816e-07
1.357474e-07
1.492021e-07
1.604289e-07
1.693308e-07
1.759608e-07
1.807670e-07
1.848826e-07
1.901856e-07
1.989052e-07
2.109060e-07
0.000000e+00
1.721890e-11
2.130040e-11
-9.182811e-12
-1.035131e-10
-3.084077e-10
-6.923632e-10
-1.346534e-09
-2.376683e-09
-3.876883e-09
-5.871842e-09
-8.220540e-09
-1.050338e-08
-1.195130e-08
-1.137999e-08
-7.275755e-09
6.074061e-10
0.000000e+00
-1.645338e-08
-3.943584e-08
-6.181449e-08
-8.321990e-08
-1.030776e-07
-1.212940e-07
-1.379472e-07
-1.531340e-07
-1.669144e-07
-1.792615e-07
-1.900072e-07
-1.988077e-07
-2.051501e-07
-2.084001e-07
-2.077802e-07
-2.034623e-07
0.000000e+00
-3.372410e-08
-8.232022e-08
-1.279343e-07
-1.704964e-07
-2.097223e-07
-2.455169e-07
-2.779212e-07
-3.069923e-07
-3.327487e-07
-3.551282e-07
-3.739540e-07
-3.889282e-07
-3.997006e-07
-4.060930e-07
-4.082217e-07
-4.069467e-07
0.000000e+00
-5.356875e-08
-1.303411e-07
-1.993482e-07
-2.625765e-07
-3.207854e-07
-3.738798e-07
-4.218007e-07
-4.645111e-07
-5.019578e-07
-5.340563e-07
-5.606803e-07
-5.816651e-07
-5.968719e-07
-6.064350e-07
-6.111367e-07
-6.122725e-07
0.000000e+00
-9.531600e-08
-1.909616e-07
-2.797531e-07
-3.629385e-07
-4.399577e-07
-5.103333e-07
-5.738077e-07
-6.301745e-07
-6.792454e-07
-7.208718e-07
-7.549886e-07
-7.816545e-07
-8.010894e-07
-8.137482e-07
-8.202918e-07
-8.223937e-07
0.000000e+00
8.618634e-08
1.681339e-07
2.600880e-07
3.697601e-07
4.982820e-07
6.448106e-07
8.079916e-07
9.862640e-07
1.178113e-06
1.382240e-06
1.597845e-06
1.825363e-06
2.068066e-06
2.331944e-06
2.612244e-06
2.890343e-06
0.000000e+00
5.213489e-08
1.317811e-07
2.244559e-07
3.362629e-07
4.673676e-07
6.166696e-07
7.826375e-07
9.636703e-07
1.158232e-06
1.365000e-06
1.583114e-06
1.812595e-06
2.054880e-06
2.312336e-06
2.585527e-06
2.859965e-06
0.000000e+00
3.320886e-08
1.026384e-07
1.952114e-07
3.086291e-07
4.419728e-07
5.936880e-07
7.621240e-07
9.456522e-07
1.142729e-06
1.351988e-06
1.572354e-06
1.803090e-06
2.043519e-06
2.293242e-06
2.556457e-06
2.822051e-06
0.000000e+00
2.436636e-08
8.730701e-08
1.781586e-07
2.923192e-07
4.270502e-07
5.803365e-07
7.504225e-07
9.356572e-07
1.134470e-06
1.345379e-06
1.566978e-06
1.797780e-06
2.035927e-06
2.279929e-06
2.532994e-06
2.785360e-06
0.000000e+00
2.182520e-08
8.265843e-08
1.726730e-07
2.870341e-07
4.223208e-07
5.762851e-07
7.471242e-07
9.331665e-07
1.132782e-06
1.344337e-06
1.566111e-06
1.796120e-06
2.031905e-06
2.271044e-06
2.515028e-06
2.754383e-06
0.000000e+00
2.438605e-08
8.738083e-08
1.783412e-07
2.926820e-07
4.276906e-07
5.813760e-07
7.519890e-07
9.378403e-07
1.137226e-06
1.348365e-06
1.569307e-06
1.797781e-06
2.030988e-06
2.265902e-06
2.502304e-06
2.732168e-06
0.000000e+00
3.324062e-08
1.027670e-07
1.955313e-07
3.092655e-07
4.430974e-07
5.955154e-07
7.648807e-07
9.494971e-07
1.147588e-06
1.357250e-06
1.576374e-06
1.802531e-06
2.032799e-06
2.263950e-06
2.494680e-06
2.718634e-06
0.000000e+00
5.217521e-08
1.319443e-07
2.248500e-07
3.370394e-07
4.687331e-07
6.188791e-07
7.859549e-07
9.682671e-07
1.163981e-06
1.371095e-06
1.587386e-06
1.810340e-06
2.037086e-06
2.264650e-06
2.491252e-06
2.712174e-06
0.000000e+00
8.625315e-08
1.683247e-07
2.605130e-07
3.705687e-07
4.996711e-07
6.470135e-07
8.112283e-07
9.906284e-07
1.183349e-06
1.387338e-06
1.600317e-06
1.819746e-06
2.042872e-06
2.267075e-06
2.490694e-06
2.710290e-06


2.092287e-01
2.092286e-01
2.092288e-01
2.092292e-01
2.092295e-01
2.092298e-01
2.092301e-01
2.092303e-01
2.092306e-01
2.092308e-01
2.092309e-01
2.092310e-01
2.092311e-01
2.092311e-01
2.092309e-01
2.092307e-01
2.092293e-01
2.092292e-01
2.092293e-01
2.092296e-01
2.092298e-01
2.092301e-01
2.092303e-01
2.092305e-01
2.092307e-01
2.092309e-01
2.092310e-01
2.092311e-01
2.092311e-01
2.092310e-01
2.092308e-01
2.092307e-01
2.092302e-01
2.092301e-01
2.092301e-01
2.092303e-01
2.092304e-01
2.092306e-01
2.092307e-01
2.092308e-01
2.092309e-01
2.092310e-01
2.092311e-01
2.092311e-01
2.092311e-01
2.092311e-01
2.092309e-01
2.092308e-01
2.092309e-01
2.092308e-01
2.092307e-01
2.092308e-01
2.092308e-01
2.092309e-01
2.092310e-01
2.092310e-01
2.092311e-01
2.092311e-01
2.092311e-01
2.092311e-01
2.092311e-01
2.092311e-01
2.092310e-01
2.092310e-01
2.092309e-01
2.092308e-01
2.092307e-01
2.092308e-01
2.092308e-01
2.092309e-01
2.092309e-01
2.092310e-01
2.092310e-01
2.092311e-01
2.092311e-01
2.092311e-01
2.092311e-01
2.092311e-01
2.092311e-01
2.092311e-01
2.092302e-01
2.092301e-01
2.092301e-01
2.092303e-01
2.092304e-01
2.092306e-01
2.092307e-01
2.092308e-01
2.092309e-01
2.092310e-01
2.092310e-01
2.092311e-01
2.092311e-01
2.092312e-01
2.092312e-01
2.092313e-01
2.092293e-01
2.092292e-01
2.092293e-01
2.092296e-01
2.092298e-01
2.092301e-01
2.092303e-01
2.092305e-01
2.092307e-01
2.092308e-01
2.092310e-01
2.092311e-01
2.092312e-01
2.092313e-01
2.092313e-01
2.092314e-01
2.092287e-01
2.092286e-01
2.092288e-01
2.092292e-01
2.092295e-01
2.092298e-01
2.092301e-01
2.092304e-01
2.092306e-01
2.092308e-01
2.092310e-01
2.092311e-01
2.092312e-01
2.092313e-01
2.092314e-01
2.092314e-01


9.884639e-01
9.900998e-01
9.916131e-01
9.927781e-01
9.938594e-01
9.948565e-01
9.957649e-01
9.965740e-01
9.972752e-01
9.978617e-01
9.983281e-01
9.986697e-01
9.988821e-01
9.989578e-01
9.990125e-01
9.956411e-01
9.956357e-01
9.948860e-01
9.953683e-01
9.959978e-01
9.965847e-01
9.971181e-01
9.976010e-01
9.980384e-01
9.984344e-01
9.987931e-01
9.991185e-01
9.994133e-01
9.996704e-01
9.998387e-01
9.994130e-01
9.936418e-01
9.984836e-01
9.980530e-01
9.979368e-01
9.981003e-01
9.983154e-01
9.985237e-01
9.987171e-01
9.988999e-01
9.990770e-01
9.992496e-01
9.994108e-01
9.995356e-01
9.995617e-01
9.993369e-01
9.985214e-01
9.970548e-01
9.996914e-01
9.993773e-01
9.991834e-01
9.991341e-01
9.991538e-01
9.991868e-01
9.992197e-01
9.992519e-01
9.992834e-01
9.993099e-01
9.993172e-01
9.992779e-01
9.991533e-01
9.989295e-01
9.987397e-01
9.986916e-01
9.996925e-01
9.993790e-01
9.991848e-01
9.991338e-01
9.991489e-01
9.991727e-01
9.991892e-01
9.991947e-01
9.991872e-01
9.991629e-01
9.991176e-01
9.990523e-01
9.989902e-01
9.990026e-01
9.991782e-01
9.994822e-01
9.984858e-01
9.980563e-01
9.979399e-01
9.981003e-01
9.983070e-01
9.984979e-01
9.986595e-01
9.987893e-01
9.988865e-01
9.989520e-01
9.989934e-01
9.990339e-01
9.991189e-01
9.992972e-01
9.995649e-01
9.998418e-01
9.956353e-01
9.948857e-01
9.953677e-01
9.959960e-01
9.965801e-01
9.971076e-01
9.975793e-01
9.979968e-01
9.983607e-01
9.986718e-01
9.989351e-01
9.991650e-01
9.993865e-01
9.996187e-01
9.998358e-01
9.999725e-01
9.884560e-01
9.900875e-01
9.915980e-01
9.927611e-01
9.938442e-01
9.948510e-01
9.957837e-01
9.966401e-01
9.974204e-01
9.981232e-01
9.987400e-01
9.992516e-01
9.996323e-01
9.998671e-01
9.999740e-01
9.999994e-01
1 2 19 18
2 3 20 19
3 4 21 20
4 5 22 21
5 6 23 22
6 7 24 23
7 8 25 24
8 9 26 25
9 10 27 26
10 11 28 27
11 12 29 28
12 13 30 29
13 14 31 30
14 15 32 31
15 16 33 32
16 17 34 33
18 19 36 35
19 20 37 36
20 21 38 37
21 22 39 38
22 23 40 39
23 24 41 40
24 25 42 41
25 26 43 42
26 27 44 43
27 28 45 44
28 29 46 45
29 30 47 46
30 31 48 47
31 32 49 48
32 33 50 49
33 34 51 50
35 36 53 52
36 37 54 53
37 38 55 54
38 39 56 55
39 40 57 56
40 41 58 57
41 42 59 58
42 43 60 59
43 44 61 60
44 45 62 61
45 46 63 62
46 47 64 63
47 48 65 64
48 49 66 65
49 50 67 66
50 51 68 67
52 53 70 69
53 54 71 70
54 55 72 71
55 56 73 72
56 57 74 73
57 58 75 74
58 59 76 75
59 60 77 76
60 61 78 77
61 62 79 78
62 63 80 79
63 64 81 80
64 65 82 81
65 66 83 82
66 67 84 83
67 68 85 84
69 70 87 86
70 71 88 87
71 72 89 88
72 73 90 89
73 74 91 90
74 75 92 91
75 76 93 92
76 77 94 93
77 78 95 94
78 79 96 95
79 80 97 96
80 81 98 97
81 82 99 98
82 83 100 99
83 84 101 100
84 85 102 101
86 87 104 103
87 88 105 104
88 89 106 105
89 90 107 106
90 91 108 107
91 92 109 108
92 93 110 109
93 94 111 110
94 95 112 111
95 96 113 112
96 97 114 113
97 98 115 114
98 99 116 115
99 100 117 116
100 101 118 117
101 102 119 118
103 104 121 120
104 105 122 121
105 106 123 122
106 107 124 123
107 108 125 124
108 109 126 125
109 110 127 126
110 111 128 127
111 112 129 128
112 113 130 129
113 114 131 130
114 115 132 131
115 116 133 132
116 117 134 133
117 118 135 134
118 119 136 135
120 121 138 137
121 122 139 138
122 123 140 139
123 124 141 140
124 125 142 141
125 126 143 142
126 127 144 143
127 128 145 144
128 129 146 145
129 130 147 146
130 131 148 147
131 132 149 148
132 133 150 149
133 134 151 150
134 135 152 151
135 136 153 152
