TITLE = "Solution"
VARIABLES = x, y, u, v, psiu, psiv, t, stress
ZONE T="structure" N=153 E=128 F=FEBLOCK ET=QUADRILATERAL VARLOCATION=([7,8]=cellcentered)
0.000000e+00
1.250000e+01
2.500000e+01
3.750000e+01
5.000000e+01
6.250000e+01
7.500000e+01
8.750000e+01
1.000000e+02
1.125000e+02
1.250000e+02
1.375000e+02
1.500000e+02
1.625000e+02
1.750000e+02
1.875000e+02
2.000000e+02
0.000000e+00
1.250000e+01
2.500000e+01
3.750000e+01
5.000000e+01
6.250000e+01
7.500000e+01
8.750000e+01
1.000000e+02
1.125000e+02
1.250000e+02
1.375000e+02
1.500000e+02
1.625000e+02
1.750000e+02
1.875000e+02
2.000000e+02
0.000000e+00
1.250000e+01
2.500000e+01
3.750000e+01
5.000000e+01
6.250000e+01
7.500000e+01
8.750000e+01
1.000000e+02
1.125000e+02
1.250000e+02
1.375000e+02
1.500000e+02
1.625000e+02
1.750000e+02
1.875000e+02
2.000000e+02
0.000000e+00
1.250000e+01
2.500000e+01
3.750000e+01
5.000000e+01
6.250000e+01
7.500000e+01
8.750000e+01
1.000000e+02
1.125000e+02
1.250000e+02
1.375000e+02
1.500000e+02
1.625000e+02
1.750000e+02
1.875000e+02
2.000000e+02
0.000000e+00
1.250000e+01
2.500000e+01
3.750000e+01
5.000000e+01
6.250000e+01
7.500000e+01
8.750000e+01
1.000000e+02
1.125000e+02
1.250000e+02
1.375000e+02
1.500000e+02
1.625000e+02
1.750000e+02
1.875000e+02
2.000000e+02
0.000000e+00
1.250000e+01
2.500000e+01
3.750000e+01
5.000000e+01
6.250000e+01
7.500000e+01
8.750000e+01
1.000000e+02
1.125000e+02
1.250000e+02
1.375000e+02
1.500000e+02
1.625000e+02
1.750000e+02
1.875000e+02
2.000000e+02
0.000000e+00
1.250000e+01
2.500000e+01
3.750000e+01
5.000000e+01
6.250000e+01
7.500000e+01
8.750000e+01
1.000000e+02
1.125000e+02
1.250000e+02
1.375000e+02
1.500000e+02
1.625000e+02
1.750000e+02
1.875000e+02
2.000000e+02
0.000000e+00
1.250000e+01
2.500000e+01
3.750000e+01
5.000000e+01
6.250000e+01
7.500000e+01
8.750000e+01
1.000000e+02
1.125000e+02
1.250000e+02
1.375000e+02
1.500000e+02
1.625000e+02
1.750000e+02
1.875000e+02
2.000000e+02
0.000000e+00
1.250000e+01
2.500000e+01
3.750000e+01
5.000000e+01
6.250000e+01
7.500000e+01
8.750000e+01
1.000000e+02
1.125000e+02
1.250000e+02
1.375000e+02
1.500000e+02
1.625000e+02
1.750000e+02
1.875000e+02
2.000000e+02
0.000000e+00
0.000000e+00
0.000000e+00
0.000000e+00
0.000000e+00
0.000000e+00
0.000000e+00
0.000000e+00
0.000000e+00
0.000000e+00
0.000000e+00
0.000000e+00
0.000000e+00
0.000000e+00
0.000000e+00
0.000000e+00
0.000000e+00
1.250000e+01
1.250000e+01
1.250000e+01
1.250000e+01
1.250000e+01
1.250000e+01
1.250000e+01
1.250000e+01
1.250000e+01
1.250000e+01
1.250000e+01
1.250000e+01
1.250000e+01
1.250000e+01
1.250000e+01
1.250000e+01
1.250000e+01
2.500000e+01
2.500000e+01
2.500000e+01
2.500000e+01
2.500000e+01
2.500000e+01
2.500000e+01
2.500000e+01
2.500000e+01
2.500000e+01
2.500000e+01
2.500000e+01
2.500000e+01
2.500000e+01
2.500000e+01
2.500000e+01
2.500000e+01
3.750000e+01
3.750000e+01
3.750000e+01
3.750000e+01
3.750000e+01
3.750000e+01
3.750000e+01
3.750000e+01
3.750000e+01
3.750000e+01
3.750000e+01
3.750000e+01
3.750000e+01
3.750000e+01
3.750000e+01
3.750000e+01
3.750000e+01
5.000000e+01
5.000000e+01
5.000000e+01
5.000000e+01
5.000000e+01
5.000000e+01
5.000000e+01
5.000000e+01
5.000000e+01
5.000000e+01
5.000000e+01
5.000000e+01
5.000000e+01
5.000000e+01
5.000000e+01
5.000000e+01
5.000000e+01
6.250000e+01
6.250000e+01
6.250000e+01
6.250000e+01
6.250000e+01
6.250000e+01
6.250000e+01
6.250000e+01
6.250000e+01
6.250000e+01
6.250000e+01
6.250000e+01
6.250000e+01
6.250000e+01
6.250000e+01
6.250000e+01
6.250000e+01
7.500000e+01
7.500000e+01
7.500000e+01
7.500000e+01
7.500000e+01
7.500000e+01
7.500000e+01
7.500000e+01
7.500000e+01
7.500000e+01
7.500000e+01
7.500000e+01
7.500000e+01
7.500000e+01
7.500000e+01
7.500000e+01
7.500000e+01
8.750000e+01
8.750000e+01
8.750000e+01
8.750000e+01
8.750000e+01
8.750000e+01
8.750000e+01
8.750000e+01
8.750000e+01
8.750000e+01
8.750000e+01
8.750000e+01
8.750000e+01
8.750000e+01
8.750000e+01
8.750000e+01
8.750000e+01
1.000000e+02
1.000000e+02
1.000000e+02
1.000000e+02
1.000000e+02
1.000000e+02
1.000000e+02
1.000000e+02
1.000000e+02
1.000000e+02
1.000000e+02
1.000000e+02
1.000000e+02
1.000000e+02
1.000000e+02
1.000000e+02
1.000000e+02
0.000000e+00
-7.300894e-02
-1.344326e-01
-1.909503e-01
-2.435842e-01
-2.922233e-01
-3.367631e-01
-3.771691e-01
-4.135000e-01
-4.459232e-01
-4.747601e-01
-5.005743e-01
-5.243353e-01
-5.477181e-01
-5.736115e-01
-6.054119e-01
-6.292746e-01
0.000000e+00
-4.359959e-02
-9.056967e-02
-1.339436e-01
-1.739044e-01
-2.106040e-01
-2.441185e-01
-2.744927e-01
-3.017815e-01
-3.260688e-01
-3.474779e-01
-3.661632e-01
-3.822438e-01
-3.955542e-01
-4.049428e-01
-4.070006e-01
-4.143783e-01
0.000000e+00
-2.726591e-02
-5.606554e-02
-8.479748e-02
-1.116179e-01
-1.362429e-01
-1.586524e-01
-1.788717e-01
-1.969060e-01
-2.127250e-01
-2.262436e-01
-2.372730e-01
-2.454199e-01
-2.499677e-01
-2.500940e-01
-2.482772e-01
-2.558020e-01
0.000000e+00
-1.316020e-02
-2.709205e-02
-4.111191e-02
-5.451746e-02
-6.686484e-02
-7.805654e-02
-8.805996e-02
-9.681784e-02
-1.042162e-01
-1.100660e-01
-1.140911e-01
-1.159620e-01
-1.155249e-01
-1.137291e-01
-1.142202e-01
-1.198231e-01
0.000000e+00
-1.212352e-05
-2.756054e-05
-4.294690e-05
-5.111296e-05
-3.607067e-05
3.391424e-05
2.157851e-04
6.029650e-04
1.334613e-03
2.592282e-03
4.558357e-03
7.282121e-03
1.036011e-02
1.248630e-02
1.190316e-02
8.193511e-03
0.000000e+00
1.314155e-02
2.704874e-02
4.104264e-02
5.443130e-02
6.679475e-02
7.808372e-02
8.835340e-02
9.769284e-02
1.062104e-01
1.140173e-01
1.211713e-01
1.275483e-01
1.326619e-01
1.356699e-01
1.359085e-01
1.340256e-01
0.000000e+00
2.726285e-02
5.605621e-02
8.477892e-02
1.115889e-01
1.362068e-01
1.586225e-01
1.788815e-01
1.970258e-01
2.130878e-01
2.270812e-01
2.389720e-01
2.486235e-01
2.557591e-01
2.600421e-01
2.614328e-01
2.609937e-01
0.000000e+00
4.361748e-02
9.060856e-02
1.340056e-01
1.739875e-01
2.106930e-01
2.441684e-01
2.744014e-01
3.013459e-01
3.249240e-01
3.450240e-01
3.615068e-01
3.742405e-01
3.831831e-01
3.885176e-01
3.907924e-01
3.912102e-01
0.000000e+00
7.303885e-02
1.345115e-01
1.910981e-01
2.438203e-01
2.925554e-01
3.371593e-01
3.775022e-01
4.134493e-01
4.448138e-01
4.713236e-01
4.926253e-01
5.083690e-01
5.184310e-01
5.232970e-01
5.244981e-01
5.244750e-01
0.000000e+00
-4.419434e-02
-8.675869e-02
-1.419122e-01
-2.096017e-01
-2.897007e-01
-3.813318e-01
-4.834697e-01
-5.950282e-01
-7.149358e-01
-8.422024e-01
-9.760402e-01
-1.116126e+00
-1.263209e+00
-1.421104e+00
-1.601764e+00
-1.861342e+00
0.000000e+00
-2.720685e-02
-7.160846e-02
-1.274459e-01
-1.962417e-01
-2.774336e-01
-3.701748e-01
-4.734147e-01
-5.860544e-01
-7.070032e-01
-8.352435e-01
-9.699515e-01
-1.110754e+00
-1.258380e+00
-1.416214e+00
-1.595778e+00
-1.815763e+00
0.000000e+00
-2.053001e-02
-6.110557e-02
-1.171491e-01
-1.865952e-01
-2.686229e-01
-3.622166e-01
-4.663154e-01
-5.798283e-01
-7.016797e-01
-8.308720e-01
-9.666094e-01
-1.108555e+00
-1.257316e+00
-1.415285e+00
-1.585428e+00
-1.750091e+00
0.000000e+00
-1.769133e-02
-5.588359e-02
-1.111051e-01
-1.808024e-01
-2.633349e-01
-3.575121e-01
-4.622327e-01
-5.764262e-01
-6.990462e-01
-8.291166e-01
-9.658263e-01
-1.108678e+00
-1.257603e+00
-1.412412e+00
-1.568750e+00
-1.712773e+00
0.000000e+00
-1.687357e-02
-5.430319e-02
-1.091771e-01
-1.788933e-01
-2.616313e-01
-3.560792e-01
-4.611369e-01
-5.757543e-01
-6.989019e-01
-8.295821e-01
-9.668551e-01
-1.109834e+00
-1.257463e+00
-1.407534e+00
-1.554915e+00
-1.690688e+00
0.000000e+00
-1.768083e-02
-5.587612e-02
-1.111184e-01
-1.808677e-01
-2.635070e-01
-3.578802e-01
-4.629299e-01
-5.776283e-01
-7.009409e-01
-8.318054e-01
-9.690849e-01
-1.111451e+00
-1.257093e+00
-1.403212e+00
-1.545539e+00
-1.678414e+00
0.000000e+00
-2.051288e-02
-6.109318e-02
-1.171712e-01
-1.867053e-01
-2.689141e-01
-3.628407e-01
-4.674993e-01
-5.818722e-01
-7.049072e-01
-8.354704e-01
-9.722502e-01
-1.113599e+00
-1.257332e+00
-1.400619e+00
-1.540213e+00
-1.673001e+00
0.000000e+00
-2.719079e-02
-7.159767e-02
-1.274754e-01
-1.963738e-01
-2.777760e-01
-3.709014e-01
-4.747830e-01
-5.884023e-01
-7.106878e-01
-8.404591e-01
-9.763109e-01
-1.116455e+00
-1.258588e+00
-1.399969e+00
-1.538011e+00
-1.671730e+00
0.000000e+00
-4.418770e-02
-8.675962e-02
-1.419578e-01
-2.097549e-01
-2.900665e-01
-3.820752e-01
-4.848261e-01
-5.972896e-01
-7.183757e-01
-8.468754e-01
-9.813524e-01
-1.120006e+00
-1.260584e+00
-1.400521e+00
-1.537609e+00
-1.671750e+00


0.000000e+00
7.870227e-08
1.577134e-07
2.310793e-07
2.998584e-07
3.636626e-07
4.222286e-07
4.755454e-07
5.237259e-07
5.669775e-07
6.055916e-07
6.398915e-07
6.700678e-07
6.958875e-07
7.170224e-07
7.350891e-07
7.511708e-07
0.000000e+00
4.429489e-08
1.077714e-07
1.648273e-07
2.171177e-07
2.652971e-07
3.093270e-07
3.492129e-07
3.849917e-07
4.166934e-07
4.443119e-07
4.677693e-07
4.869488e-07
5.022471e-07
5.162212e-07
5.328166e-07
5.499052e-07
0.000000e+00
2.793152e-08
6.813541e-08
1.058400e-07
1.409716e-07
1.732672e-07
2.026044e-07
2.289524e-07
2.522747e-07
2.724962e-07
2.895037e-07
3.032169e-07
3.138525e-07
3.225041e-07
3.316318e-07
3.439721e-07
3.582356e-07
0.000000e+00
1.365134e-08
3.266951e-08
5.113668e-08
6.870507e-08
8.483613e-08
9.935809e-08
1.122072e-07
1.233102e-07
1.325721e-07
1.399142e-07
1.453810e-07
1.493433e-07
1.527364e-07
1.571099e-07
1.643028e-07
1.742036e-07
0.000000e+00
1.412233e-11
1.739270e-11
-7.862038e-12
-8.579688e-11
-2.549445e-10
-5.717960e-10
-1.111523e-09
-1.961330e-09
-3.198755e-09
-4.844078e-09
-6.780817e-09
-8.662698e-09
-9.855405e-09
-9.382827e-09
-5.997133e-09
5.052650e-10
0.000000e+00
-1.362493e-08
-3.263420e-08
-5.113866e-08
-6.883017e-08
-8.523467e-08
-1.002768e-07
-1.140229e-07
-1.265546e-07
-1.379228e-07
-1.481061e-07
-1.569668e-07
-1.642224e-07
-1.694504e-07
-1.721291e-07
-1.716174e-07
-1.680564e-07
0.000000e+00
-2.791487e-08
-6.811091e-08
-1.058256e-07
-1.410015e-07
-1.734057e-07
-2.029636e-07
-2.297125e-07
-2.537024e-07
-2.749512e-07
-2.934097e-07
-3.089341e-07
-3.212805e-07
-3.301616e-07
-3.354315e-07
-3.371865e-07
-3.361350e-07
0.000000e+00
-4.431169e-08
-1.078050e-07
-1.648577e-07
-2.171125e-07
-2.652005e-07
-3.090474e-07
-3.486088e-07
-3.838583e-07
-4.147553e-07
-4.412334e-07
-4.631915e-07
-4.804960e-07
-4.930345e-07
-5.009192e-07
-5.047957e-07
-5.057320e-07
0.000000e+00
-7.879508e-08
-1.578779e-07
-2.312827e-07
-3.000322e-07
-3.636642e-07
-4.217877e-07
-4.741949e-07
-5.207206e-07
-5.612137e-07
-5.955562e-07
-6.236979e-07
-6.456904e-07
-6.617173e-07
-6.721551e-07
-6.775502e-07
-6.792828e-07
0.000000e+00
7.124883e-08
1.389606e-07
2.149281e-07
3.055346e-07
4.117152e-07
5.327698e-07
6.675755e-07
8.148394e-07
9.733074e-07
1.141905e-06
1.319971e-06
1.507863e-06
1.708278e-06
1.926166e-06
2.157613e-06
2.387251e-06
0.000000e+00
4.308463e-08
1.088957e-07
1.854693e-07
2.778517e-07
3.861768e-07
5.095310e-07
6.466452e-07
7.961935e-07
9.569044e-07
1.127685e-06
1.307823e-06
1.497335e-06
1.697405e-06
1.909992e-06
2.135568e-06
2.362182e-06
0.000000e+00
2.742744e-08
8.479553e-08
1.612951e-07
2.550184e-07
3.652018e-07
4.905561e-07
6.297134e-07
7.813254e-07
9.441154e-07
1.116953e-06
1.298950e-06
1.489498e-06
1.688038e-06
1.894242e-06
2.111582e-06
2.330895e-06
0.000000e+00
2.011500e-08
7.212132e-08
1.472030e-07
2.415456e-07
3.528795e-07
4.795347e-07
6.200567e-07
7.730790e-07
9.373024e-07
1.111503e-06
1.294518e-06
1.485121e-06
1.681778e-06
1.883262e-06
2.092225e-06
2.300621e-06
0.000000e+00
1.801438e-08
6.827958e-08
1.426706e-07
2.371804e-07
3.489745e-07
4.761904e-07
6.173347e-07
7.710239e-07
9.359100e-07
1.110643e-06
1.293803e-06
1.483752e-06
1.678461e-06
1.875934e-06
2.077407e-06
2.275066e-06
0.000000e+00
2.013127e-08
7.218222e-08
1.473535e-07
2.418448e-07
3.534076e-07
4.803917e-07
6.213484e-07
7.748792e-07
9.395752e-07
1.113965e-06
1.296438e-06
1.485121e-06
1.677705e-06
1.871695e-06
2.066914e-06
2.256743e-06
0.000000e+00
2.745368e-08
8.490165e-08
1.615589e-07
2.555432e-07
3.661291e-07
4.920628e-07
6.319865e-07
7.844961e-07
9.481227e-07
1.121293e-06
1.302266e-06
1.489038e-06
1.679199e-06
1.870087e-06
2.060628e-06
2.245583e-06
0.000000e+00
4.311796e-08
1.090304e-07
1.857944e-07
2.784921e-07
3.873028e-07
5.113530e-07
6.493808e-07
7.999842e-07
9.616459e-07
1.132712e-06
1.311347e-06
1.495477e-06
1.682734e-06
1.870665e-06
2.057802e-06
2.240256e-06
0.000000e+00
7.130405e-08
1.391181e-07
2.152787e-07
3.062016e-07
4.128608e-07
5.345864e-07
6.702446e-07
8.184385e-07
9.776257e-07
1.146111e-06
1.322012e-06
1.503234e-06
1.687505e-06
1.872664e-06
2.057342e-06
2.238703e-06


2.133251e-01
2.133250e-01
2.133253e-01
2.133260e-01
2.133266e-01
2.133272e-01
2.133277e-01
2.133281e-01
2.133285e-01
2.133289e-01
2.133291e-01
2.133294e-01
2.133295e-01
2.133294e-01
2.133291e-01
2.133289e-01
2.133261e-01
2.133260e-01
2.133262e-01
2.133267e-01
2.133272e-01
2.133277e-01
2.133281e-01
2.133284e-01
2.133287e-01
2.133290e-01
2.133292e-01
2.133294e-01
2.133295e-01
2.133294e-01
2.133291e-01
2.133289e-01
2.133278e-01
2.133277e-01
2.133277e-01
2.133280e-01
2.133282e-01
2.133285e-01
2.133287e-01
2.133289e-01
2.133291e-01
2.133293e-01
2.133294e-01
2.133295e-01
2.133295e-01
2.133294e-01
2.133291e-01
2.133290e-01
2.133290e-01
2.133289e-01
2.133288e-01
2.133289e-01
2.133290e-01
2.133291e-01
2.133292e-01
2.133293e-01
2.133293e-01
2.133294e-01
2.133295e-01
2.133295e-01
2.133295e-01
2.133294e-01
2.133293e-01
2.133293e-01
2.133290e-01
2.133289e-01
2.133288e-01
2.133288e-01
2.133289e-01
2.133291e-01
2.133292e-01
2.133292e-01
2.133293e-01
2.133294e-01
2.133294e-01
2.133295e-01
2.133295e-01
2.133295e-01
2.133295e-01
2.133295e-01
2.133278e-01
2.133277e-01
2.133277e-01
2.133280e-01
2.133282e-01
2.133285e-01
2.133287e-01
2.133289e-01
2.133290e-01
2.133292e-01
2.133293e-01
2.133294e-01
2.133295e-01
2.133296e-01
2.133297e-01
2.133298e-01
2.133261e-01
2.133260e-01
2.133262e-01
2.133267e-01
2.133272e-01
2.133277e-01
2.133280e-01
2.133284e-01
2.133287e-01
2.133290e-01
2.133292e-01
2.133294e-01
2.133296e-01
2.133297e-01
2.133298e-01
2.133299e-01
2.133251e-01
2.133250e-01
2.133253e-01
2.133260e-01
2.133266e-01
2.133272e-01
2.133277e-01
2.133281e-01
2.133285e-01
2.133289e-01
2.133292e-01
2.133294e-01
2.133297e-01
2.133298e-01
2.133299e-01
2.133300e-01


9.880077e-01
9.897083e-01
9.912815e-01
9.924925e-01
9.936165e-01
9.946531e-01
9.955974e-01
9.964384e-01
9.971674e-01
9.977771e-01
9.982620e-01
9.986171e-01
9.988379e-01
9.989166e-01
9.989735e-01
9.954687e-01
9.954631e-01
9.946838e-01
9.951852e-01
9.958395e-01
9.964496e-01
9.970041e-01
9.975061e-01
9.979608e-01
9.983724e-01
9.987453e-01
9.990837e-01
9.993900e-01
9.996573e-01
9.998324e-01
9.993897e-01
9.933903e-01
9.984236e-01
9.979760e-01
9.978552e-01
9.980252e-01
9.982487e-01
9.984653e-01
9.986664e-01
9.988564e-01
9.990404e-01
9.992199e-01
9.993875e-01
9.995173e-01
9.995443e-01
9.993107e-01
9.984630e-01
9.969383e-01
9.996792e-01
9.993527e-01
9.991511e-01
9.990999e-01
9.991203e-01
9.991546e-01
9.991888e-01
9.992223e-01
9.992551e-01
9.992826e-01
9.992902e-01
9.992494e-01
9.991198e-01
9.988871e-01
9.986898e-01
9.986399e-01
9.996804e-01
9.993544e-01
9.991526e-01
9.990996e-01
9.991152e-01
9.991400e-01
9.991571e-01
9.991629e-01
9.991550e-01
9.991297e-01
9.990827e-01
9.990148e-01
9.989503e-01
9.989631e-01
9.991457e-01
9.994617e-01
9.984259e-01
9.979794e-01
9.978585e-01
9.980252e-01
9.982401e-01
9.984385e-01
9.986064e-01
9.987414e-01
9.988425e-01
9.989105e-01
9.989536e-01
9.989957e-01
9.990840e-01
9.992694e-01
9.995477e-01
9.998355e-01
9.954627e-01
9.946835e-01
9.951845e-01
9.958377e-01
9.964449e-01
9.969932e-01
9.974835e-01
9.979176e-01
9.982959e-01
9.986192e-01
9.988929e-01
9.991320e-01
9.993622e-01
9.996036e-01
9.998293e-01
9.999714e-01
9.879995e-01
9.896955e-01
9.912658e-01
9.924749e-01
9.936007e-01
9.946473e-01
9.956169e-01
9.965072e-01
9.973184e-01
9.980489e-01
9.986901e-01
9.992220e-01
9.996177e-01
9.998619e-01
9.999729e-01
9.999994e-01
1 2 19 18
2 3 20 19
3 4 21 20
4 5 22 21
5 6 23 22
6 7 24 23
7 8 25 24
8 9 26 25
9 10 27 26
10 11 28 27
11 12 29 28
12 13 30 29
13 14 31 30
14 15 32 31
15 16 33 32
16 17 34 33
18 19 36 35
19 20 37 36
20 21 38 37
21 22 39 38
22 23 40 39
23 24 41 40
24 25 42 41
25 26 43 42
26 27 44 43
27 28 45 44
28 29 46 45
29 30 47 46
30 31 48 47
31 32 49 48
32 33 50 49
33 34 51 50
35 36 53 52
36 37 54 53
37 38 55 54
38 39 56 55
39 40 57 56
40 41 58 57
41 42 59 58
42 43 60 59
43 44 61 60
44 45 62 61
45 46 63 62
46 47 64 63
47 48 65 64
48 49 66 65
49 50 67 66
50 51 68 67
52 53 70 69
53 54 71 70
54 55 72 71
55 56 73 72
56 57 74 73
57 58 75 74
58 59 76 75
59 60 77 76
60 61 78 77
61 62 79 78
62 63 80 79
63 64 81 80
64 65 82 81
65 66 83 82
66 67 84 83
67 68 85 84
69 70 87 86
70 71 88 87
71 72 89 88
72 73 90 89
73 74 91 90
74 75 92 91
75 76 93 92
76 77 94 93
77 78 95 94
78 79 96 95
79 80 97 96
80 81 98 97
81 82 99 98
82 83 100 99
83 84 101 100
84 85 102 101
86 87 104 103
87 88 105 104
88 89 106 105
89 90 107 106
90 91 108 107
91 92 109 108
92 93 110 109
93 94 111 110
94 95 112 111
95 96 113 112
96 97 114 113
97 98 115 114
98 99 116 115
99 100 117 116
100 101 118 117
101 102 119 118
103 104 121 120
104 105 122 121
105 106 123 122
106 107 124 123
107 108 125 124
108 109 126 125
109 110 127 126
110 111 128 127
111 112 129 128
112 113 130 129
113 114 131 130
114 115 132 131
115 116 133 132
116 117 134 133
117 118 135 134
118 119 136 135
120 121 138 137
121 122 139 138
122 123 140 139
123 124 141 140
124 125 142 141
125 126 143 142
126 127 144 143
127 128 145 144
128 129 146 145
129 130 147 146
130 131 148 147
131 132 149 148
132 133 150 149
133 134 151 150
134 135 152 151
135 136 153 152
