TITLE = "Solution"
VARIABLES = x, y, u, v, psiu, psiv, t, stress
ZONE T="structure" N=153 E=128 F=FEBLOCK ET=QUADRILATERAL VARLOCATION=([7,8]=cellcentered)
0.000000e+00
1.250000e+01
2.500000e+01
3.750000e+01
5.000000e+01
6.250000e+01
7.500000e+01
8.750000e+01
1.000000e+02
1.125000e+02
1.250000e+02
1.375000e+02
1.500000e+02
1.625000e+02
1.750000e+02
1.875000e+02
2.000000e+02
0.000000e+00
1.250000e+01
2.500000e+01
3.750000e+01
5.000000e+01
6.250000e+01
7.500000e+01
8.750000e+01
1.000000e+02
1.125000e+02
1.250000e+02
1.375000e+02
1.500000e+02
1.625000e+02
1.750000e+02
1.875000e+02
2.000000e+02
0.000000e+00
1.250000e+01
2.500000e+01
3.750000e+01
5.000000e+01
6.250000e+01
7.500000e+01
8.750000e+01
1.000000e+02
1.125000e+02
1.250000e+02
1.375000e+02
1.500000e+02
1.625000e+02
1.750000e+02
1.875000e+02
2.000000e+02
0.000000e+00
1.250000e+01
2.500000e+01
3.750000e+01
5.000000e+01
6.250000e+01
7.500000e+01
8.750000e+01
1.000000e+02
1.125000e+02
1.250000e+02
1.375000e+02
1.500000e+02
1.625000e+02
1.750000e+02
1.875000e+02
2.000000e+02
0.000000e+00
1.250000e+01
2.500000e+01
3.750000e+01
5.000000e+01
6.250000e+01
7.500000e+01
8.750000e+01
1.000000e+02
1.125000e+02
1.250000e+02
1.375000e+02
1.500000e+02
1.625000e+02
1.750000e+02
1.875000e+02
2.000000e+02
0.000000e+00
1.250000e+01
2.500000e+01
3.750000e+01
5.000000e+01
6.250000e+01
7.500000e+01
8.750000e+01
1.000000e+02
1.125000e+02
1.250000e+02
1.375000e+02
1.500000e+02
1.625000e+02
1.750000e+02
1.875000e+02
2.000000e+02
0.000000e+00
1.250000e+01
2.500000e+01
3.750000e+01
5.000000e+01
6.250000e+01
7.500000e+01
8.750000e+01
1.000000e+02
1.125000e+02
1.250000e+02
1.375000e+02
1.500000e+02
1.625000e+02
1.750000e+02
1.875000e+02
2.000000e+02
0.000000e+00
1.250000e+01
2.500000e+01
3.750000e+01
5.000000e+01
6.250000e+01
7.500000e+01
8.750000e+01
1.000000e+02
1.125000e+02
1.250000e+02
1.375000e+02
1.500000e+02
1.625000e+02
1.750000e+02
1.875000e+02
2.000000e+02
0.000000e+00
1.250000e+01
2.500000e+01
3.750000e+01
5.000000e+01
6.250000e+01
7.500000e+01
8.750000e+01
1.000000e+02
1.125000e+02
1.250000e+02
1.375000e+02
1.500000e+02
1.625000e+02
1.750000e+02
1.875000e+02
2.000000e+02
0.000000e+00
0.000000e+00
0.000000e+00
0.000000e+00
0.000000e+00
0.000000e+00
0.000000e+00
0.000000e+00
0.000000e+00
0.000000e+00
0.000000e+00
0.000000e+00
0.000000e+00
0.000000e+00
0.000000e+00
0.000000e+00
0.000000e+00
1.250000e+01
1.250000e+01
1.250000e+01
1.250000e+01
1.250000e+01
1.250000e+01
1.250000e+01
1.250000e+01
1.250000e+01
1.250000e+01
1.250000e+01
1.250000e+01
1.250000e+01
1.250000e+01
1.250000e+01
1.250000e+01
1.250000e+01
2.500000e+01
2.500000e+01
2.500000e+01
2.500000e+01
2.500000e+01
2.500000e+01
2.500000e+01
2.500000e+01
2.500000e+01
2.500000e+01
2.500000e+01
2.500000e+01
2.500000e+01
2.500000e+01
2.500000e+01
2.500000e+01
2.500000e+01
3.750000e+01
3.750000e+01
3.750000e+01
3.750000e+01
3.750000e+01
3.750000e+01
3.750000e+01
3.750000e+01
3.750000e+01
3.750000e+01
3.750000e+01
3.750000e+01
3.750000e+01
3.750000e+01
3.750000e+01
3.750000e+01
3.750000e+01
5.000000e+01
5.000000e+01
5.000000e+01
5.000000e+01
5.000000e+01
5.000000e+01
5.000000e+01
5.000000e+01
5.000000e+01
5.000000e+01
5.000000e+01
5.000000e+01
5.000000e+01
5.000000e+01
5.000000e+01
5.000000e+01
5.000000e+01
6.250000e+01
6.250000e+01
6.250000e+01
6.250000e+01
6.250000e+01
6.250000e+01
6.250000e+01
6.250000e+01
6.250000e+01
6.250000e+01
6.250000e+01
6.250000e+01
6.250000e+01
6.250000e+01
6.250000e+01
6.250000e+01
6.250000e+01
7.500000e+01
7.500000e+01
7.500000e+01
7.500000e+01
7.500000e+01
7.500000e+01
7.500000e+01
7.500000e+01
7.500000e+01
7.500000e+01
7.500000e+01
7.500000e+01
7.500000e+01
7.500000e+01
7.500000e+01
7.500000e+01
7.500000e+01
8.750000e+01
8.750000e+01
8.750000e+01
8.750000e+01
8.750000e+01
8.750000e+01
8.750000e+01
8.750000e+01
8.750000e+01
8.750000e+01
8.750000e+01
8.750000e+01
8.750000e+01
8.750000e+01
8.750000e+01
8.750000e+01
8.750000e+01
1.000000e+02
1.000000e+02
1.000000e+02
1.000000e+02
1.000000e+02
1.000000e+02
1.000000e+02
1.000000e+02
1.000000e+02
1.000000e+02
1.000000e+02
1.000000e+02
1.000000e+02
1.000000e+02
1.000000e+02
1.000000e+02
1.000000e+02
0.000000e+00
-7.178574e-02
-1.321803e-01
-1.877511e-01
-2.395031e-01
-2.873272e-01
-3.311207e-01
-3.708495e-01
-4.065716e-01
-4.384514e-01
-4.668050e-01
-4.921865e-01
-5.155493e-01
-5.385402e-01
-5.639997e-01
-5.952671e-01
-6.187299e-01
0.000000e+00
-4.286914e-02
-8.905230e-02
-1.316995e-01
-1.709908e-01
-2.070754e-01
-2.400283e-01
-2.698936e-01
-2.967250e-01
-3.206053e-01
-3.416556e-01
-3.600277e-01
-3.758388e-01
-3.889261e-01
-3.981573e-01
-4.001807e-01
-4.074348e-01
0.000000e+00
-2.680912e-02
-5.512626e-02
-8.337683e-02
-1.097479e-01
-1.339602e-01
-1.559942e-01
-1.758747e-01
-1.936068e-01
-2.091606e-01
-2.224527e-01
-2.332972e-01
-2.413076e-01
-2.457792e-01
-2.459034e-01
-2.441170e-01
-2.515157e-01
0.000000e+00
-1.293973e-02
-2.663818e-02
-4.042315e-02
-5.360409e-02
-6.574457e-02
-7.674873e-02
-8.658452e-02
-9.519564e-02
-1.024700e-01
-1.082218e-01
-1.121794e-01
-1.140189e-01
-1.135891e-01
-1.118235e-01
-1.123063e-01
-1.178154e-01
0.000000e+00
-1.192024e-05
-2.709843e-05
-4.222680e-05
-5.025585e-05
-3.546550e-05
3.334667e-05
2.121696e-04
5.928605e-04
1.312246e-03
2.548837e-03
4.481960e-03
7.160071e-03
1.018647e-02
1.227702e-02
1.170365e-02
8.056181e-03
0.000000e+00
1.292139e-02
2.659560e-02
4.035504e-02
5.351937e-02
6.567566e-02
7.677546e-02
8.687304e-02
9.605597e-02
1.044307e-01
1.121068e-01
1.191410e-01
1.254110e-01
1.304389e-01
1.333966e-01
1.336312e-01
1.317798e-01
0.000000e+00
2.680611e-02
5.511709e-02
8.335857e-02
1.097194e-01
1.339247e-01
1.559648e-01
1.758843e-01
1.937246e-01
2.095173e-01
2.232763e-01
2.349678e-01
2.444575e-01
2.514735e-01
2.556847e-01
2.570521e-01
2.566204e-01
0.000000e+00
4.288673e-02
8.909054e-02
1.317605e-01
1.710725e-01
2.071630e-01
2.400774e-01
2.698038e-01
2.962967e-01
3.194797e-01
3.392428e-01
3.554494e-01
3.679697e-01
3.767624e-01
3.820074e-01
3.842442e-01
3.846550e-01
0.000000e+00
7.181515e-02
1.322579e-01
1.878964e-01
2.397353e-01
2.876537e-01
3.315102e-01
3.711770e-01
4.065218e-01
4.373606e-01
4.634261e-01
4.843708e-01
4.998506e-01
5.097439e-01
5.145285e-01
5.157094e-01
5.156866e-01
0.000000e+00
-4.345389e-02
-8.530508e-02
-1.395345e-01
-2.060899e-01
-2.848467e-01
-3.749425e-01
-4.753690e-01
-5.850582e-01
-7.029566e-01
-8.280907e-01
-9.596858e-01
-1.097425e+00
-1.242043e+00
-1.397292e+00
-1.574925e+00
-1.830152e+00
0.000000e+00
-2.675102e-02
-7.040868e-02
-1.253105e-01
-1.929536e-01
-2.727852e-01
-3.639725e-01
-4.654825e-01
-5.762349e-01
-6.951570e-01
-8.212485e-01
-9.536992e-01
-1.092143e+00
-1.237295e+00
-1.392483e+00
-1.569039e+00
-1.785338e+00
0.000000e+00
-2.018603e-02
-6.008175e-02
-1.151862e-01
-1.834689e-01
-2.641222e-01
-3.561476e-01
-4.585022e-01
-5.701131e-01
-6.899227e-01
-8.169502e-01
-9.504132e-01
-1.089980e+00
-1.236248e+00
-1.391570e+00
-1.558863e+00
-1.720766e+00
0.000000e+00
-1.739490e-02
-5.494726e-02
-1.092436e-01
-1.777730e-01
-2.589228e-01
-3.515219e-01
-4.544879e-01
-5.667680e-01
-6.873334e-01
-8.152243e-01
-9.496432e-01
-1.090101e+00
-1.236531e+00
-1.388746e+00
-1.542464e+00
-1.684073e+00
0.000000e+00
-1.659084e-02
-5.339333e-02
-1.073478e-01
-1.758959e-01
-2.572476e-01
-3.501130e-01
-4.534105e-01
-5.661073e-01
-6.871915e-01
-8.156819e-01
-9.506547e-01
-1.091237e+00
-1.236393e+00
-1.383950e+00
-1.528860e+00
-1.662358e+00
0.000000e+00
-1.738458e-02
-5.493991e-02
-1.092566e-01
-1.778373e-01
-2.590920e-01
-3.518839e-01
-4.551735e-01
-5.679499e-01
-6.891963e-01
-8.178679e-01
-9.528471e-01
-1.092828e+00
-1.236029e+00
-1.379700e+00
-1.519641e+00
-1.650290e+00
0.000000e+00
-2.016919e-02
-6.006957e-02
-1.152081e-01
-1.835771e-01
-2.644085e-01
-3.567613e-01
-4.596663e-01
-5.721227e-01
-6.930961e-01
-8.214715e-01
-9.559594e-01
-1.094939e+00
-1.236264e+00
-1.377150e+00
-1.514405e+00
-1.644967e+00
0.000000e+00
-2.673523e-02
-7.039808e-02
-1.253395e-01
-1.930836e-01
-2.731219e-01
-3.646869e-01
-4.668279e-01
-5.785434e-01
-6.987799e-01
-8.263766e-01
-9.599520e-01
-1.097748e+00
-1.237499e+00
-1.376511e+00
-1.512240e+00
-1.643718e+00
0.000000e+00
-4.344737e-02
-8.530600e-02
-1.395793e-01
-2.062405e-01
-2.852065e-01
-3.756735e-01
-4.767027e-01
-5.872818e-01
-7.063389e-01
-8.326854e-01
-9.649091e-01
-1.101239e+00
-1.239462e+00
-1.377054e+00
-1.511844e+00
-1.643738e+00


0.000000e+00
9.359724e-08
1.875454e-07
2.747928e-07
3.566079e-07
4.325288e-07
5.022382e-07
5.657185e-07
6.230990e-07
6.746221e-07
7.206306e-07
7.615060e-07
7.974720e-07
8.282469e-07
8.534363e-07
8.749636e-07
8.941203e-07
0.000000e+00
5.264799e-08
1.281083e-07
1.959555e-07
2.581580e-07
3.154903e-07
3.679021e-07
4.153954e-07
4.580097e-07
4.957770e-07
5.286868e-07
5.566433e-07
5.795053e-07
5.977438e-07
6.144030e-07
6.341789e-07
6.545357e-07
0.000000e+00
3.317901e-08
8.096723e-08
1.258005e-07
1.675910e-07
2.060232e-07
2.409474e-07
2.723229e-07
3.001032e-07
3.241957e-07
3.444633e-07
3.608085e-07
3.734879e-07
3.838037e-07
3.946851e-07
4.093898e-07
4.263817e-07
0.000000e+00
1.620998e-08
3.881660e-08
6.077395e-08
8.167131e-08
1.008671e-07
1.181547e-07
1.334558e-07
1.466813e-07
1.577166e-07
1.664664e-07
1.729830e-07
1.777069e-07
1.817521e-07
1.869644e-07
1.955352e-07
2.073313e-07
0.000000e+00
1.691599e-11
2.091715e-11
-9.057834e-12
-1.017916e-10
-3.032034e-10
-6.806195e-10
-1.323636e-09
-2.336206e-09
-3.810790e-09
-5.771664e-09
-8.080196e-09
-1.032394e-08
-1.174695e-08
-1.118525e-08
-7.151058e-09
5.975046e-10
0.000000e+00
-1.617836e-08
-3.877420e-08
-6.077579e-08
-8.181962e-08
-1.013410e-07
-1.192482e-07
-1.356181e-07
-1.505462e-07
-1.640915e-07
-1.762277e-07
-1.867895e-07
-1.954394e-07
-2.016731e-07
-2.048674e-07
-2.042580e-07
-2.000139e-07
0.000000e+00
-3.315909e-08
-8.093783e-08
-1.257831e-07
-1.676261e-07
-2.061876e-07
-2.413747e-07
-2.732279e-07
-3.018039e-07
-3.271209e-07
-3.491181e-07
-3.676221e-07
-3.823401e-07
-3.929280e-07
-3.992109e-07
-4.013032e-07
-4.000500e-07
0.000000e+00
-5.266801e-08
-1.281481e-07
-1.959916e-07
-2.581515e-07
-3.153748e-07
-3.675685e-07
-4.146749e-07
-4.566583e-07
-4.934666e-07
-5.250172e-07
-5.511863e-07
-5.718124e-07
-5.867590e-07
-5.961584e-07
-6.007796e-07
-6.018960e-07
0.000000e+00
-9.370780e-08
-1.877413e-07
-2.750351e-07
-3.568150e-07
-4.325306e-07
-5.017128e-07
-5.641090e-07
-6.195169e-07
-6.677518e-07
-7.086683e-07
-7.422026e-07
-7.684129e-07
-7.875156e-07
-7.999578e-07
-8.063895e-07
-8.084553e-07
0.000000e+00
8.473229e-08
1.652937e-07
2.556909e-07
3.635064e-07
4.898526e-07
6.339005e-07
7.943181e-07
9.695706e-07
1.158168e-06
1.358835e-06
1.570783e-06
1.794442e-06
2.033025e-06
2.292424e-06
2.567964e-06
2.841343e-06
0.000000e+00
5.125373e-08
1.295528e-07
2.206598e-07
3.305753e-07
4.594618e-07
6.062370e-07
7.693950e-07
9.473617e-07
1.138626e-06
1.341889e-06
1.556305e-06
1.781892e-06
2.020065e-06
2.273150e-06
2.541702e-06
2.811482e-06
0.000000e+00
3.264574e-08
1.009008e-07
1.919088e-07
3.034089e-07
4.344975e-07
5.836458e-07
7.492306e-07
9.296505e-07
1.123388e-06
1.329100e-06
1.545728e-06
1.772550e-06
2.008898e-06
2.254382e-06
2.513128e-06
2.774213e-06
0.000000e+00
2.395215e-08
8.582808e-08
1.751443e-07
2.873753e-07
4.198282e-07
5.705213e-07
7.377283e-07
9.198260e-07
1.115270e-06
1.322604e-06
1.540445e-06
1.767331e-06
2.001437e-06
2.241297e-06
2.490066e-06
2.738148e-06
0.000000e+00
2.145387e-08
8.125806e-08
1.697515e-07
2.821798e-07
4.151791e-07
5.665388e-07
7.344862e-07
9.173778e-07
1.113611e-06
1.321580e-06
1.539592e-06
1.765699e-06
1.997483e-06
2.232563e-06
2.472406e-06
2.707699e-06
0.000000e+00
2.397150e-08
8.590064e-08
1.753237e-07
2.877319e-07
4.204576e-07
5.715430e-07
7.392681e-07
9.219717e-07
1.117979e-06
1.325539e-06
1.542734e-06
1.767332e-06
1.996582e-06
2.227509e-06
2.459900e-06
2.685864e-06
0.000000e+00
3.267696e-08
1.010272e-07
1.922233e-07
3.040344e-07
4.356028e-07
5.854419e-07
7.519401e-07
9.334297e-07
1.128164e-06
1.334272e-06
1.549680e-06
1.772000e-06
1.998361e-06
2.225591e-06
2.452406e-06
2.672562e-06
0.000000e+00
5.129336e-08
1.297132e-07
2.210471e-07
3.313385e-07
4.608039e-07
6.084088e-07
7.726557e-07
9.518799e-07
1.144277e-06
1.347880e-06
1.560504e-06
1.779676e-06
2.002576e-06
2.226279e-06
2.449037e-06
2.666212e-06
0.000000e+00
8.479797e-08
1.654812e-07
2.561087e-07
3.643012e-07
4.912181e-07
6.360657e-07
7.974996e-07
9.738604e-07
1.163315e-06
1.363846e-06
1.573213e-06
1.788922e-06
2.008263e-06
2.228662e-06
2.448488e-06
2.664360e-06


2.097513e-01
2.097512e-01
2.097514e-01
2.097519e-01
2.097522e-01
2.097526e-01
2.097529e-01
2.097532e-01
2.097534e-01
2.097536e-01
2.097538e-01
2.097539e-01
2.097540e-01
2.097539e-01
2.097537e-01
2.097536e-01
2.097520e-01
2.097519e-01
2.097520e-01
2.097523e-01
2.097526e-01
2.097529e-01
2.097531e-01
2.097533e-01
2.097535e-01
2.097537e-01
2.097539e-01
2.097540e-01
2.097540e-01
2.097539e-01
2.097537e-01
2.097536e-01
2.097530e-01
2.097529e-01
2.097529e-01
2.097531e-01
2.097532e-01
2.097534e-01
2.097535e-01
2.097537e-01
2.097538e-01
2.097539e-01
2.097540e-01
2.097540e-01
2.097540e-01
2.097539e-01
2.097538e-01
2.097536e-01
2.097537e-01
2.097536e-01
2.097536e-01
2.097536e-01
2.097537e-01
2.097538e-01
2.097538e-01
2.097539e-01
2.097539e-01
2.097540e-01
2.097540e-01
2.097540e-01
2.097540e-01
2.097540e-01
2.097539e-01
2.097538e-01
2.097537e-01
2.097536e-01
2.097536e-01
2.097536e-01
2.097537e-01
2.097538e-01
2.097538e-01
2.097539e-01
2.097539e-01
2.097540e-01
2.097540e-01
2.097540e-01
2.097540e-01
2.097540e-01
2.097540e-01
2.097540e-01
2.097530e-01
2.097529e-01
2.097529e-01
2.097531e-01
2.097532e-01
2.097534e-01
2.097535e-01
2.097536e-01
2.097537e-01
2.097538e-01
2.097539e-01
2.097540e-01
2.097540e-01
2.097541e-01
2.097541e-01
2.097542e-01
2.097520e-01
2.097519e-01
2.097520e-01
2.097523e-01
2.097526e-01
2.097529e-01
2.097531e-01
2.097533e-01
2.097535e-01
2.097537e-01
2.097538e-01
2.097540e-01
2.097541e-01
2.097542e-01
2.097542e-01
2.097543e-01
2.097513e-01
2.097512e-01
2.097514e-01
2.097519e-01
2.097522e-01
2.097526e-01
2.097529e-01
2.097532e-01
2.097534e-01
2.097536e-01
2.097538e-01
2.097540e-01
2.097541e-01
2.097542e-01
2.097543e-01
2.097543e-01


9.884062e-01
9.900503e-01
9.915712e-01
9.927419e-01
9.938287e-01
9.948307e-01
9.957437e-01
9.965568e-01
9.972616e-01
9.978510e-01
9.983197e-01
9.986631e-01
9.988765e-01
9.989526e-01
9.990076e-01
9.956193e-01
9.956138e-01
9.948604e-01
9.953452e-01
9.959778e-01
9.965676e-01
9.971037e-01
9.975890e-01
9.980285e-01
9.984265e-01
9.987870e-01
9.991141e-01
9.994103e-01
9.996687e-01
9.998379e-01
9.994100e-01
9.936100e-01
9.984760e-01
9.980433e-01
9.979265e-01
9.980908e-01
9.983069e-01
9.985163e-01
9.987107e-01
9.988944e-01
9.990723e-01
9.992458e-01
9.994079e-01
9.995333e-01
9.995595e-01
9.993336e-01
9.985140e-01
9.970401e-01
9.996898e-01
9.993742e-01
9.991793e-01
9.991298e-01
9.991496e-01
9.991827e-01
9.992158e-01
9.992481e-01
9.992799e-01
9.993064e-01
9.993138e-01
9.992743e-01
9.991490e-01
9.989241e-01
9.987334e-01
9.986851e-01
9.996910e-01
9.993759e-01
9.991807e-01
9.991295e-01
9.991446e-01
9.991685e-01
9.991851e-01
9.991907e-01
9.991831e-01
9.991587e-01
9.991132e-01
9.990476e-01
9.989852e-01
9.989976e-01
9.991741e-01
9.994796e-01
9.984782e-01
9.980466e-01
9.979296e-01
9.980908e-01
9.982985e-01
9.984904e-01
9.986527e-01
9.987832e-01
9.988809e-01
9.989468e-01
9.989884e-01
9.990290e-01
9.991145e-01
9.992936e-01
9.995627e-01
9.998410e-01
9.956134e-01
9.948601e-01
9.953445e-01
9.959760e-01
9.965630e-01
9.970932e-01
9.975671e-01
9.979868e-01
9.983525e-01
9.986651e-01
9.989297e-01
9.991609e-01
9.993834e-01
9.996167e-01
9.998349e-01
9.999724e-01
9.883983e-01
9.900379e-01
9.915560e-01
9.927249e-01
9.938134e-01
9.948252e-01
9.957626e-01
9.966233e-01
9.974075e-01
9.981138e-01
9.987337e-01
9.992479e-01
9.996304e-01
9.998665e-01
9.999738e-01
9.999994e-01
1 2 19 18
2 3 20 19
3 4 21 20
4 5 22 21
5 6 23 22
6 7 24 23
7 8 25 24
8 9 26 25
9 10 27 26
10 11 28 27
11 12 29 28
12 13 30 29
13 14 31 30
14 15 32 31
15 16 33 32
16 17 34 33
18 19 36 35
19 20 37 36
20 21 38 37
21 22 39 38
22 23 40 39
23 24 41 40
24 25 42 41
25 26 43 42
26 27 44 43
27 28 45 44
28 29 46 45
29 30 47 46
30 31 48 47
31 32 49 48
32 33 50 49
33 34 51 50
35 36 53 52
36 37 54 53
37 38 55 54
38 39 56 55
39 40 57 56
40 41 58 57
41 42 59 58
42 43 60 59
43 44 61 60
44 45 62 61
45 46 63 62
46 47 64 63
47 48 65 64
48 49 66 65
49 50 67 66
50 51 68 67
52 53 70 69
53 54 71 70
54 55 72 71
55 56 73 72
56 57 74 73
57 58 75 74
58 59 76 75
59 60 77 76
60 61 78 77
61 62 79 78
62 63 80 79
63 64 81 80
64 65 82 81
65 66 83 82
66 67 84 83
67 68 85 84
69 70 87 86
70 71 88 87
71 72 89 88
72 73 90 89
73 74 91 90
74 75 92 91
75 76 93 92
76 77 94 93
77 78 95 94
78 79 96 95
79 80 97 96
80 81 98 97
81 82 99 98
82 83 100 99
83 84 101 100
84 85 102 101
86 87 104 103
87 88 105 104
88 89 106 105
89 90 107 106
90 91 108 107
91 92 109 108
92 93 110 109
93 94 111 110
94 95 112 111
95 96 113 112
96 97 114 113
97 98 115 114
98 99 116 115
99 100 117 116
100 101 118 117
101 102 119 118
103 104 121 120
104 105 122 121
105 106 123 122
106 107 124 123
107 108 125 124
108 109 126 125
109 110 127 126
110 111 128 127
111 112 129 128
112 113 130 129
113 114 131 130
114 115 132 131
115 116 133 132
116 117 134 133
117 118 135 134
118 119 136 135
120 121 138 137
121 122 139 138
122 123 140 139
123 124 141 140
124 125 142 141
125 126 143 142
126 127 144 143
127 128 145 144
128 129 146 145
129 130 147 146
130 131 148 147
131 132 149 148
132 133 150 149
133 134 151 150
134 135 152 151
135 136 153 152
