TITLE = "Solution"
VARIABLES = x, y, u, v, psiu, psiv, t, stress
ZONE T="structure" N=153 E=128 F=FEBLOCK ET=QUADRILATERAL VARLOCATION=([7,8]=cellcentered)
0.000000e+00
1.250000e+01
2.500000e+01
3.750000e+01
5.000000e+01
6.250000e+01
7.500000e+01
8.750000e+01
1.000000e+02
1.125000e+02
1.250000e+02
1.375000e+02
1.500000e+02
1.625000e+02
1.750000e+02
1.875000e+02
2.000000e+02
0.000000e+00
1.250000e+01
2.500000e+01
3.750000e+01
5.000000e+01
6.250000e+01
7.500000e+01
8.750000e+01
1.000000e+02
1.125000e+02
1.250000e+02
1.375000e+02
1.500000e+02
1.625000e+02
1.750000e+02
1.875000e+02
2.000000e+02
0.000000e+00
1.250000e+01
2.500000e+01
3.750000e+01
5.000000e+01
6.250000e+01
7.500000e+01
8.750000e+01
1.000000e+02
1.125000e+02
1.250000e+02
1.375000e+02
1.500000e+02
1.625000e+02
1.750000e+02
1.875000e+02
2.000000e+02
0.000000e+00
1.250000e+01
2.500000e+01
3.750000e+01
5.000000e+01
6.250000e+01
7.500000e+01
8.750000e+01
1.000000e+02
1.125000e+02
1.250000e+02
1.375000e+02
1.500000e+02
1.625000e+02
1.750000e+02
1.875000e+02
2.000000e+02
0.000000e+00
1.250000e+01
2.500000e+01
3.750000e+01
5.000000e+01
6.250000e+01
7.500000e+01
8.750000e+01
1.000000e+02
1.125000e+02
1.250000e+02
1.375000e+02
1.500000e+02
1.625000e+02
1.750000e+02
1.875000e+02
2.000000e+02
0.000000e+00
1.250000e+01
2.500000e+01
3.750000e+01
5.000000e+01
6.250000e+01
7.500000e+01
8.750000e+01
1.000000e+02
1.125000e+02
1.250000e+02
1.375000e+02
1.500000e+02
1.625000e+02
1.750000e+02
1.875000e+02
2.000000e+02
0.000000e+00
1.250000e+01
2.500000e+01
3.750000e+01
5.000000e+01
6.250000e+01
7.500000e+01
8.750000e+01
1.000000e+02
1.125000e+02
1.250000e+02
1.375000e+02
1.500000e+02
1.625000e+02
1.750000e+02
1.875000e+02
2.000000e+02
0.000000e+00
1.250000e+01
2.500000e+01
3.750000e+01
5.000000e+01
6.250000e+01
7.500000e+01
8.750000e+01
1.000000e+02
1.125000e+02
1.250000e+02
1.375000e+02
1.500000e+02
1.625000e+02
1.750000e+02
1.875000e+02
2.000000e+02
0.000000e+00
1.250000e+01
2.500000e+01
3.750000e+01
5.000000e+01
6.250000e+01
7.500000e+01
8.750000e+01
1.000000e+02
1.125000e+02
1.250000e+02
1.375000e+02
1.500000e+02
1.625000e+02
1.750000e+02
1.875000e+02
2.000000e+02
0.000000e+00
0.000000e+00
0.000000e+00
0.000000e+00
0.000000e+00
0.000000e+00
0.000000e+00
0.000000e+00
0.000000e+00
0.000000e+00
0.000000e+00
0.000000e+00
0.000000e+00
0.000000e+00
0.000000e+00
0.000000e+00
0.000000e+00
1.250000e+01
1.250000e+01
1.250000e+01
1.250000e+01
1.250000e+01
1.250000e+01
1.250000e+01
1.250000e+01
1.250000e+01
1.250000e+01
1.250000e+01
1.250000e+01
1.250000e+01
1.250000e+01
1.250000e+01
1.250000e+01
1.250000e+01
2.500000e+01
2.500000e+01
2.500000e+01
2.500000e+01
2.500000e+01
2.500000e+01
2.500000e+01
2.500000e+01
2.500000e+01
2.500000e+01
2.500000e+01
2.500000e+01
2.500000e+01
2.500000e+01
2.500000e+01
2.500000e+01
2.500000e+01
3.750000e+01
3.750000e+01
3.750000e+01
3.750000e+01
3.750000e+01
3.750000e+01
3.750000e+01
3.750000e+01
3.750000e+01
3.750000e+01
3.750000e+01
3.750000e+01
3.750000e+01
3.750000e+01
3.750000e+01
3.750000e+01
3.750000e+01
5.000000e+01
5.000000e+01
5.000000e+01
5.000000e+01
5.000000e+01
5.000000e+01
5.000000e+01
5.000000e+01
5.000000e+01
5.000000e+01
5.000000e+01
5.000000e+01
5.000000e+01
5.000000e+01
5.000000e+01
5.000000e+01
5.000000e+01
6.250000e+01
6.250000e+01
6.250000e+01
6.250000e+01
6.250000e+01
6.250000e+01
6.250000e+01
6.250000e+01
6.250000e+01
6.250000e+01
6.250000e+01
6.250000e+01
6.250000e+01
6.250000e+01
6.250000e+01
6.250000e+01
6.250000e+01
7.500000e+01
7.500000e+01
7.500000e+01
7.500000e+01
7.500000e+01
7.500000e+01
7.500000e+01
7.500000e+01
7.500000e+01
7.500000e+01
7.500000e+01
7.500000e+01
7.500000e+01
7.500000e+01
7.500000e+01
7.500000e+01
7.500000e+01
8.750000e+01
8.750000e+01
8.750000e+01
8.750000e+01
8.750000e+01
8.750000e+01
8.750000e+01
8.750000e+01
8.750000e+01
8.750000e+01
8.750000e+01
8.750000e+01
8.750000e+01
8.750000e+01
8.750000e+01
8.750000e+01
8.750000e+01
1.000000e+02
1.000000e+02
1.000000e+02
1.000000e+02
1.000000e+02
1.000000e+02
1.000000e+02
1.000000e+02
1.000000e+02
1.000000e+02
1.000000e+02
1.000000e+02
1.000000e+02
1.000000e+02
1.000000e+02
1.000000e+02
1.000000e+02
0.000000e+00
-6.986298e-02
-1.286399e-01
-1.827223e-01
-2.330881e-01
-2.796310e-01
-3.222513e-01
-3.609158e-01
-3.956809e-01
-4.267066e-01
-4.543005e-01
-4.790019e-01
-5.017387e-01
-5.241136e-01
-5.488909e-01
-5.793205e-01
-6.021547e-01
0.000000e+00
-4.172094e-02
-8.666714e-02
-1.281721e-01
-1.664109e-01
-2.015289e-01
-2.335990e-01
-2.626642e-01
-2.887768e-01
-3.120172e-01
-3.325036e-01
-3.503834e-01
-3.657708e-01
-3.785075e-01
-3.874914e-01
-3.894605e-01
-3.965202e-01
0.000000e+00
-2.609109e-02
-5.364981e-02
-8.114370e-02
-1.068084e-01
-1.303721e-01
-1.518159e-01
-1.711638e-01
-1.884207e-01
-2.035579e-01
-2.164938e-01
-2.270478e-01
-2.348436e-01
-2.391953e-01
-2.393161e-01
-2.375777e-01
-2.447781e-01
0.000000e+00
-1.259318e-02
-2.592474e-02
-3.934049e-02
-5.216836e-02
-6.398363e-02
-7.469300e-02
-8.426529e-02
-9.264570e-02
-9.972520e-02
-1.053228e-01
-1.091744e-01
-1.109646e-01
-1.105464e-01
-1.088281e-01
-1.092980e-01
-1.146594e-01
0.000000e+00
-1.160065e-05
-2.637192e-05
-4.109469e-05
-4.890831e-05
-3.451391e-05
3.245489e-05
2.064868e-04
5.769778e-04
1.277088e-03
2.480545e-03
4.361870e-03
6.968222e-03
9.913529e-03
1.194806e-02
1.139005e-02
7.840309e-03
0.000000e+00
1.257533e-02
2.588330e-02
3.927420e-02
5.208592e-02
6.391657e-02
7.471902e-02
8.454608e-02
9.348299e-02
1.016334e-01
1.091038e-01
1.159494e-01
1.220515e-01
1.269447e-01
1.298231e-01
1.300514e-01
1.282497e-01
0.000000e+00
2.608816e-02
5.364088e-02
8.112593e-02
1.067806e-01
1.303376e-01
1.517872e-01
1.711731e-01
1.885354e-01
2.039050e-01
2.172953e-01
2.286736e-01
2.379090e-01
2.447370e-01
2.488354e-01
2.501661e-01
2.497460e-01
0.000000e+00
4.173806e-02
8.670435e-02
1.282314e-01
1.664904e-01
2.016141e-01
2.336468e-01
2.625768e-01
2.883599e-01
3.109218e-01
3.301554e-01
3.459277e-01
3.581126e-01
3.666697e-01
3.717742e-01
3.739510e-01
3.743508e-01
0.000000e+00
6.989160e-02
1.287154e-01
1.828637e-01
2.333140e-01
2.799488e-01
3.226304e-01
3.612346e-01
3.956324e-01
4.256449e-01
4.510121e-01
4.713956e-01
4.864606e-01
4.960889e-01
5.007452e-01
5.018945e-01
5.018723e-01
0.000000e+00
-4.228999e-02
-8.302015e-02
-1.357969e-01
-2.005696e-01
-2.772168e-01
-3.648992e-01
-4.626355e-01
-5.693865e-01
-6.841267e-01
-8.059087e-01
-9.339786e-01
-1.068028e+00
-1.208771e+00
-1.359861e+00
-1.532736e+00
-1.781126e+00
0.000000e+00
-2.603449e-02
-6.852274e-02
-1.219540e-01
-1.877852e-01
-2.654784e-01
-3.542231e-01
-4.530139e-01
-5.607995e-01
-6.765360e-01
-7.992498e-01
-9.281523e-01
-1.062887e+00
-1.204151e+00
-1.355182e+00
-1.527008e+00
-1.737512e+00
0.000000e+00
-1.964533e-02
-5.847240e-02
-1.121009e-01
-1.785545e-01
-2.570474e-01
-3.466078e-01
-4.462206e-01
-5.548417e-01
-6.714420e-01
-7.950667e-01
-9.249543e-01
-1.060782e+00
-1.203132e+00
-1.354293e+00
-1.517104e+00
-1.674670e+00
0.000000e+00
-1.692894e-02
-5.347543e-02
-1.063174e-01
-1.730112e-01
-2.519873e-01
-3.421061e-01
-4.423139e-01
-5.515863e-01
-6.689220e-01
-7.933870e-01
-9.242050e-01
-1.060900e+00
-1.203407e+00
-1.351544e+00
-1.501144e+00
-1.638961e+00
0.000000e+00
-1.614640e-02
-5.196311e-02
-1.044724e-01
-1.711844e-01
-2.503570e-01
-3.407349e-01
-4.412653e-01
-5.509433e-01
-6.687839e-01
-7.938323e-01
-9.251894e-01
-1.062006e+00
-1.203273e+00
-1.346877e+00
-1.487905e+00
-1.617827e+00
0.000000e+00
-1.691889e-02
-5.346828e-02
-1.063301e-01
-1.730738e-01
-2.521520e-01
-3.424583e-01
-4.429811e-01
-5.527366e-01
-6.707350e-01
-7.959598e-01
-9.273231e-01
-1.063554e+00
-1.202919e+00
-1.342741e+00
-1.478934e+00
-1.606083e+00
0.000000e+00
-1.962894e-02
-5.846055e-02
-1.121221e-01
-1.786598e-01
-2.573260e-01
-3.472051e-01
-4.473535e-01
-5.567975e-01
-6.745303e-01
-7.994668e-01
-9.303519e-01
-1.065609e+00
-1.203148e+00
-1.340259e+00
-1.473838e+00
-1.600902e+00
0.000000e+00
-2.601912e-02
-6.851242e-02
-1.219822e-01
-1.879117e-01
-2.658061e-01
-3.549183e-01
-4.543233e-01
-5.630462e-01
-6.800618e-01
-8.042405e-01
-9.342376e-01
-1.068342e+00
-1.204350e+00
-1.339637e+00
-1.471731e+00
-1.599686e+00
0.000000e+00
-4.228364e-02
-8.302104e-02
-1.358406e-01
-2.007162e-01
-2.775669e-01
-3.656106e-01
-4.639335e-01
-5.715505e-01
-6.874183e-01
-8.103802e-01
-9.390618e-01
-1.071740e+00
-1.206260e+00
-1.340166e+00
-1.471345e+00
-1.599706e+00


0.000000e+00
9.867813e-08
1.977175e-07
2.896992e-07
3.759657e-07
4.560298e-07
5.295550e-07
5.965200e-07
6.570586e-07
7.114242e-07
7.599762e-07
8.031152e-07
8.410753e-07
8.735574e-07
9.001432e-07
9.228610e-07
9.430743e-07
0.000000e+00
5.548992e-08
1.350307e-07
2.065573e-07
2.721448e-07
3.326078e-07
3.878908e-07
4.379934e-07
4.829551e-07
5.228075e-07
5.575380e-07
5.870438e-07
6.111748e-07
6.304273e-07
6.480124e-07
6.688829e-07
6.903628e-07
0.000000e+00
3.495941e-08
8.532869e-08
1.325919e-07
1.766563e-07
2.171878e-07
2.540262e-07
2.871268e-07
3.164385e-07
3.418622e-07
3.632520e-07
3.805040e-07
3.938883e-07
4.047782e-07
4.162643e-07
4.317826e-07
4.497123e-07
0.000000e+00
1.707659e-08
4.090460e-08
6.405132e-08
8.608520e-08
1.063293e-07
1.245645e-07
1.407070e-07
1.546617e-07
1.663069e-07
1.755415e-07
1.824198e-07
1.874064e-07
1.916764e-07
1.971776e-07
2.062225e-07
2.186704e-07
0.000000e+00
1.789845e-11
2.217622e-11
-9.394337e-12
-1.071881e-10
-3.196669e-10
-7.178882e-10
-1.396417e-09
-2.464978e-09
-4.021184e-09
-6.090713e-09
-8.527350e-09
-1.089592e-08
-1.239862e-08
-1.180659e-08
-7.549295e-09
6.281546e-10
0.000000e+00
-1.704314e-08
-4.085969e-08
-6.405297e-08
-8.624132e-08
-1.068290e-07
-1.257179e-07
-1.429883e-07
-1.587397e-07
-1.730341e-07
-1.858426e-07
-1.969906e-07
-2.061213e-07
-2.127020e-07
-2.160744e-07
-2.154315e-07
-2.109521e-07
0.000000e+00
-3.493835e-08
-8.529756e-08
-1.325733e-07
-1.766930e-07
-2.173608e-07
-2.544768e-07
-2.880815e-07
-3.182330e-07
-3.449492e-07
-3.681646e-07
-3.876951e-07
-4.032306e-07
-4.144072e-07
-4.210395e-07
-4.232481e-07
-4.219255e-07
0.000000e+00
-5.551104e-08
-1.350727e-07
-2.065954e-07
-2.721378e-07
-3.324857e-07
-3.875384e-07
-4.372326e-07
-4.815284e-07
-5.203688e-07
-5.536647e-07
-5.812839e-07
-6.030543e-07
-6.188309e-07
-6.287525e-07
-6.336306e-07
-6.348091e-07
0.000000e+00
-9.879479e-08
-1.979242e-07
-2.899549e-07
-3.761842e-07
-4.560317e-07
-5.290004e-07
-5.948212e-07
-6.532779e-07
-7.041727e-07
-7.473499e-07
-7.827400e-07
-8.104026e-07
-8.305649e-07
-8.436979e-07
-8.504870e-07
-8.526678e-07
0.000000e+00
8.933147e-08
1.742846e-07
2.696170e-07
3.833176e-07
5.165598e-07
6.684713e-07
8.376497e-07
1.022478e-06
1.221388e-06
1.433032e-06
1.656583e-06
1.892493e-06
2.144154e-06
2.417779e-06
2.708432e-06
2.996799e-06
0.000000e+00
5.404404e-08
1.366110e-07
2.326857e-07
3.485940e-07
4.845091e-07
6.392920e-07
8.113569e-07
9.990457e-07
1.200766e-06
1.415149e-06
1.641302e-06
1.879246e-06
2.130474e-06
2.397440e-06
2.680721e-06
2.965293e-06
0.000000e+00
3.443258e-08
1.064087e-07
2.023732e-07
3.199468e-07
4.581791e-07
6.154610e-07
7.900828e-07
9.803575e-07
1.184686e-06
1.401651e-06
1.630139e-06
1.869385e-06
2.118687e-06
2.377633e-06
2.650570e-06
2.925969e-06
0.000000e+00
2.526853e-08
9.051780e-08
1.846957e-07
3.030369e-07
4.427055e-07
6.016149e-07
7.779466e-07
9.699904e-07
1.176118e-06
1.394795e-06
1.624562e-06
1.863876e-06
2.110812e-06
2.363823e-06
2.626233e-06
2.887913e-06
0.000000e+00
2.263458e-08
8.569904e-08
1.790089e-07
2.975572e-07
4.378014e-07
5.974134e-07
7.745259e-07
9.674070e-07
1.174367e-06
1.393714e-06
1.623662e-06
1.862154e-06
2.106639e-06
2.354604e-06
2.607595e-06
2.855781e-06
0.000000e+00
2.528894e-08
9.059437e-08
1.848851e-07
3.034133e-07
4.433700e-07
6.026934e-07
7.795719e-07
9.722552e-07
1.178977e-06
1.397892e-06
1.626977e-06
1.863877e-06
2.105688e-06
2.349269e-06
2.594395e-06
2.832736e-06
0.000000e+00
3.446550e-08
1.065421e-07
2.027051e-07
3.206070e-07
4.593459e-07
6.173568e-07
7.929428e-07
9.843464e-07
1.189727e-06
1.407110e-06
1.634309e-06
1.868805e-06
2.107566e-06
2.347244e-06
2.586485e-06
2.818696e-06
0.000000e+00
5.408583e-08
1.367803e-07
2.330944e-07
3.493996e-07
4.859257e-07
6.415842e-07
8.147985e-07
1.003814e-06
1.206731e-06
1.421472e-06
1.645733e-06
1.876906e-06
2.112014e-06
2.347970e-06
2.582928e-06
2.811993e-06
0.000000e+00
8.940072e-08
1.744825e-07
2.700578e-07
3.841564e-07
5.180010e-07
6.707566e-07
8.410077e-07
1.027006e-06
1.226820e-06
1.438321e-06
1.659147e-06
1.886665e-06
2.118017e-06
2.350486e-06
2.582349e-06
2.810039e-06


2.041337e-01
2.041337e-01
2.041337e-01
2.041337e-01
2.041337e-01
2.041337e-01
2.041337e-01
2.041337e-01
2.041337e-01
2.041337e-01
2.041337e-01
2.041337e-01
2.041337e-01
2.041337e-01
2.041337e-01
2.041337e-01
2.041337e-01
2.041337e-01
2.041337e-01
2.041337e-01
2.041337e-01
2.041337e-01
2.041337e-01
2.041337e-01
2.041337e-01
2.041337e-01
2.041337e-01
2.041337e-01
2.041337e-01
2.041337e-01
2.041337e-01
2.041337e-01
2.041337e-01
2.041337e-01
2.041337e-01
2.041337e-01
2.041337e-01
2.041337e-01
2.041337e-01
2.041337e-01
2.041337e-01
2.041337e-01
2.041337e-01
2.041337e-01
2.041337e-01
2.041337e-01
2.041337e-01
2.041337e-01
2.041337e-01
2.041337e-01
2.041337e-01
2.041337e-01
2.041337e-01
2.041337e-01
2.041337e-01
2.041337e-01
2.041337e-01
2.041337e-01
2.041337e-01
2.041337e-01
2.041337e-01
2.041337e-01
2.041337e-01
2.041337e-01
2.041337e-01
2.041337e-01
2.041337e-01
2.041337e-01
2.041337e-01
2.041337e-01
2.041337e-01
2.041337e-01
2.041337e-01
2.041337e-01
2.041337e-01
2.041337e-01
2.041337e-01
2.041337e-01
2.041337e-01
2.041337e-01
2.041337e-01
2.041337e-01
2.041337e-01
2.041337e-01
2.041337e-01
2.041337e-01
2.041337e-01
2.041337e-01
2.041337e-01
2.041337e-01
2.041337e-01
2.041337e-01
2.041337e-01
2.041337e-01
2.041337e-01
2.041337e-01
2.041337e-01
2.041337e-01
2.041337e-01
2.041337e-01
2.041337e-01
2.041337e-01
2.041337e-01
2.041337e-01
2.041337e-01
2.041337e-01
2.041337e-01
2.041337e-01
2.041337e-01
2.041337e-01
2.041337e-01
2.041337e-01
2.041337e-01
2.041337e-01
2.041337e-01
2.041337e-01
2.041337e-01
2.041337e-01
2.041337e-01
2.041337e-01
2.041337e-01
2.041337e-01
2.041337e-01
2.041337e-01
2.041337e-01
2.041337e-01
2.041337e-01
2.041337e-01


9.890189e-01
9.905761e-01
9.920166e-01
9.931256e-01
9.941549e-01
9.951040e-01
9.959687e-01
9.967388e-01
9.974063e-01
9.979646e-01
9.984086e-01
9.987338e-01
9.989359e-01
9.990080e-01
9.990601e-01
9.958509e-01
9.958456e-01
9.951321e-01
9.955912e-01
9.961904e-01
9.967491e-01
9.972568e-01
9.977164e-01
9.981328e-01
9.985097e-01
9.988512e-01
9.991610e-01
9.994415e-01
9.996862e-01
9.998465e-01
9.994412e-01
9.939478e-01
9.985565e-01
9.981467e-01
9.980361e-01
9.981917e-01
9.983964e-01
9.985948e-01
9.987789e-01
9.989529e-01
9.991214e-01
9.992857e-01
9.994392e-01
9.995580e-01
9.995828e-01
9.993688e-01
9.985926e-01
9.971965e-01
9.997062e-01
9.994073e-01
9.992227e-01
9.991758e-01
9.991945e-01
9.992259e-01
9.992572e-01
9.992879e-01
9.993179e-01
9.993431e-01
9.993501e-01
9.993127e-01
9.991940e-01
9.989810e-01
9.988003e-01
9.987546e-01
9.997073e-01
9.994089e-01
9.992240e-01
9.991755e-01
9.991899e-01
9.992125e-01
9.992282e-01
9.992335e-01
9.992263e-01
9.992032e-01
9.991601e-01
9.990979e-01
9.990388e-01
9.990506e-01
9.992177e-01
9.995071e-01
9.985586e-01
9.981498e-01
9.980391e-01
9.981917e-01
9.983885e-01
9.985702e-01
9.987240e-01
9.988476e-01
9.989401e-01
9.990024e-01
9.990418e-01
9.990804e-01
9.991613e-01
9.993310e-01
9.995859e-01
9.998494e-01
9.958453e-01
9.951318e-01
9.955905e-01
9.961887e-01
9.967447e-01
9.972468e-01
9.976957e-01
9.980933e-01
9.984396e-01
9.987357e-01
9.989863e-01
9.992052e-01
9.994160e-01
9.996370e-01
9.998437e-01
9.999738e-01
9.890114e-01
9.905644e-01
9.920023e-01
9.931094e-01
9.941404e-01
9.950987e-01
9.959866e-01
9.968018e-01
9.975446e-01
9.982135e-01
9.988006e-01
9.992877e-01
9.996500e-01
9.998735e-01
9.999752e-01
9.999995e-01
1 2 19 18
2 3 20 19
3 4 21 20
4 5 22 21
5 6 23 22
6 7 24 23
7 8 25 24
8 9 26 25
9 10 27 26
10 11 28 27
11 12 29 28
12 13 30 29
13 14 31 30
14 15 32 31
15 16 33 32
16 17 34 33
18 19 36 35
19 20 37 36
20 21 38 37
21 22 39 38
22 23 40 39
23 24 41 40
24 25 42 41
25 26 43 42
26 27 44 43
27 28 45 44
28 29 46 45
29 30 47 46
30 31 48 47
31 32 49 48
32 33 50 49
33 34 51 50
35 36 53 52
36 37 54 53
37 38 55 54
38 39 56 55
39 40 57 56
40 41 58 57
41 42 59 58
42 43 60 59
43 44 61 60
44 45 62 61
45 46 63 62
46 47 64 63
47 48 65 64
48 49 66 65
49 50 67 66
50 51 68 67
52 53 70 69
53 54 71 70
54 55 72 71
55 56 73 72
56 57 74 73
57 58 75 74
58 59 76 75
59 60 77 76
60 61 78 77
61 62 79 78
62 63 80 79
63 64 81 80
64 65 82 81
65 66 83 82
66 67 84 83
67 68 85 84
69 70 87 86
70 71 88 87
71 72 89 88
72 73 90 89
73 74 91 90
74 75 92 91
75 76 93 92
76 77 94 93
77 78 95 94
78 79 96 95
79 80 97 96
80 81 98 97
81 82 99 98
82 83 100 99
83 84 101 100
84 85 102 101
86 87 104 103
87 88 105 104
88 89 106 105
89 90 107 106
90 91 108 107
91 92 109 108
92 93 110 109
93 94 111 110
94 95 112 111
95 96 113 112
96 97 114 113
97 98 115 114
98 99 116 115
99 100 117 116
100 101 118 117
101 102 119 118
103 104 121 120
104 105 122 121
105 106 123 122
106 107 124 123
107 108 125 124
108 109 126 125
109 110 127 126
110 111 128 127
111 112 129 128
112 113 130 129
113 114 131 130
114 115 132 131
115 116 133 132
116 117 134 133
117 118 135 134
118 119 136 135
120 121 138 137
121 122 139 138
122 123 140 139
123 124 141 140
124 125 142 141
125 126 143 142
126 127 144 143
127 128 145 144
128 129 146 145
129 130 147 146
130 131 148 147
131 132 149 148
132 133 150 149
133 134 151 150
134 135 152 151
135 136 153 152
