TITLE = "Solution"
VARIABLES = x, y, u, v, psiu, psiv, t, stress
ZONE T="structure" N=153 E=128 F=FEBLOCK ET=QUADRILATERAL VARLOCATION=([7,8]=cellcentered)
0.000000e+00
1.250000e+01
2.500000e+01
3.750000e+01
5.000000e+01
6.250000e+01
7.500000e+01
8.750000e+01
1.000000e+02
1.125000e+02
1.250000e+02
1.375000e+02
1.500000e+02
1.625000e+02
1.750000e+02
1.875000e+02
2.000000e+02
0.000000e+00
1.250000e+01
2.500000e+01
3.750000e+01
5.000000e+01
6.250000e+01
7.500000e+01
8.750000e+01
1.000000e+02
1.125000e+02
1.250000e+02
1.375000e+02
1.500000e+02
1.625000e+02
1.750000e+02
1.875000e+02
2.000000e+02
0.000000e+00
1.250000e+01
2.500000e+01
3.750000e+01
5.000000e+01
6.250000e+01
7.500000e+01
8.750000e+01
1.000000e+02
1.125000e+02
1.250000e+02
1.375000e+02
1.500000e+02
1.625000e+02
1.750000e+02
1.875000e+02
2.000000e+02
0.000000e+00
1.250000e+01
2.500000e+01
3.750000e+01
5.000000e+01
6.250000e+01
7.500000e+01
8.750000e+01
1.000000e+02
1.125000e+02
1.250000e+02
1.375000e+02
1.500000e+02
1.625000e+02
1.750000e+02
1.875000e+02
2.000000e+02
0.000000e+00
1.250000e+01
2.500000e+01
3.750000e+01
5.000000e+01
6.250000e+01
7.500000e+01
8.750000e+01
1.000000e+02
1.125000e+02
1.250000e+02
1.375000e+02
1.500000e+02
1.625000e+02
1.750000e+02
1.875000e+02
2.000000e+02
0.000000e+00
1.250000e+01
2.500000e+01
3.750000e+01
5.000000e+01
6.250000e+01
7.500000e+01
8.750000e+01
1.000000e+02
1.125000e+02
1.250000e+02
1.375000e+02
1.500000e+02
1.625000e+02
1.750000e+02
1.875000e+02
2.000000e+02
0.000000e+00
1.250000e+01
2.500000e+01
3.750000e+01
5.000000e+01
6.250000e+01
7.500000e+01
8.750000e+01
1.000000e+02
1.125000e+02
1.250000e+02
1.375000e+02
1.500000e+02
1.625000e+02
1.750000e+02
1.875000e+02
2.000000e+02
0.000000e+00
1.250000e+01
2.500000e+01
3.750000e+01
5.000000e+01
6.250000e+01
7.500000e+01
8.750000e+01
1.000000e+02
1.125000e+02
1.250000e+02
1.375000e+02
1.500000e+02
1.625000e+02
1.750000e+02
1.875000e+02
2.000000e+02
0.000000e+00
1.250000e+01
2.500000e+01
3.750000e+01
5.000000e+01
6.250000e+01
7.500000e+01
8.750000e+01
1.000000e+02
1.125000e+02
1.250000e+02
1.375000e+02
1.500000e+02
1.625000e+02
1.750000e+02
1.875000e+02
2.000000e+02
0.000000e+00
0.000000e+00
0.000000e+00
0.000000e+00
0.000000e+00
0.000000e+00
0.000000e+00
0.000000e+00
0.000000e+00
0.000000e+00
0.000000e+00
0.000000e+00
0.000000e+00
0.000000e+00
0.000000e+00
0.000000e+00
0.000000e+00
1.250000e+01
1.250000e+01
1.250000e+01
1.250000e+01
1.250000e+01
1.250000e+01
1.250000e+01
1.250000e+01
1.250000e+01
1.250000e+01
1.250000e+01
1.250000e+01
1.250000e+01
1.250000e+01
1.250000e+01
1.250000e+01
1.250000e+01
2.500000e+01
2.500000e+01
2.500000e+01
2.500000e+01
2.500000e+01
2.500000e+01
2.500000e+01
2.500000e+01
2.500000e+01
2.500000e+01
2.500000e+01
2.500000e+01
2.500000e+01
2.500000e+01
2.500000e+01
2.500000e+01
2.500000e+01
3.750000e+01
3.750000e+01
3.750000e+01
3.750000e+01
3.750000e+01
3.750000e+01
3.750000e+01
3.750000e+01
3.750000e+01
3.750000e+01
3.750000e+01
3.750000e+01
3.750000e+01
3.750000e+01
3.750000e+01
3.750000e+01
3.750000e+01
5.000000e+01
5.000000e+01
5.000000e+01
5.000000e+01
5.000000e+01
5.000000e+01
5.000000e+01
5.000000e+01
5.000000e+01
5.000000e+01
5.000000e+01
5.000000e+01
5.000000e+01
5.000000e+01
5.000000e+01
5.000000e+01
5.000000e+01
6.250000e+01
6.250000e+01
6.250000e+01
6.250000e+01
6.250000e+01
6.250000e+01
6.250000e+01
6.250000e+01
6.250000e+01
6.250000e+01
6.250000e+01
6.250000e+01
6.250000e+01
6.250000e+01
6.250000e+01
6.250000e+01
6.250000e+01
7.500000e+01
7.500000e+01
7.500000e+01
7.500000e+01
7.500000e+01
7.500000e+01
7.500000e+01
7.500000e+01
7.500000e+01
7.500000e+01
7.500000e+01
7.500000e+01
7.500000e+01
7.500000e+01
7.500000e+01
7.500000e+01
7.500000e+01
8.750000e+01
8.750000e+01
8.750000e+01
8.750000e+01
8.750000e+01
8.750000e+01
8.750000e+01
8.750000e+01
8.750000e+01
8.750000e+01
8.750000e+01
8.750000e+01
8.750000e+01
8.750000e+01
8.750000e+01
8.750000e+01
8.750000e+01
1.000000e+02
1.000000e+02
1.000000e+02
1.000000e+02
1.000000e+02
1.000000e+02
1.000000e+02
1.000000e+02
1.000000e+02
1.000000e+02
1.000000e+02
1.000000e+02
1.000000e+02
1.000000e+02
1.000000e+02
1.000000e+02
1.000000e+02
0.000000e+00
-9.959138e-01
-1.679004e+00
-2.431195e+00
-3.117234e+00
-3.750497e+00
-4.458226e+00
-5.087224e+00
-5.763225e+00
-6.405586e+00
-7.055538e+00
-7.723566e+00
-8.376450e+00
-9.146446e+00
-1.007747e+01
-1.083397e+01
-1.128409e+01
0.000000e+00
-4.459752e-01
-9.064828e-01
-1.419027e+00
-1.930662e+00
-2.410706e+00
-2.924824e+00
-3.423023e+00
-3.918997e+00
-4.421447e+00
-4.913935e+00
-5.416919e+00
-5.901781e+00
-6.421406e+00
-6.897728e+00
-7.024060e+00
-7.202951e+00
0.000000e+00
-1.460941e-01
-3.488456e-01
-6.395568e-01
-9.775491e-01
-1.302578e+00
-1.655712e+00
-2.012853e+00
-2.356398e+00
-2.718583e+00
-3.057406e+00
-3.391729e+00
-3.687427e+00
-3.927369e+00
-4.036616e+00
-4.034640e+00
-4.183059e+00
0.000000e+00
-7.898648e-02
-1.621203e-01
-3.096524e-01
-4.548943e-01
-6.281819e-01
-8.139216e-01
-9.790762e-01
-1.166871e+00
-1.328805e+00
-1.489857e+00
-1.628921e+00
-1.722330e+00
-1.730509e+00
-1.656855e+00
-1.635896e+00
-1.752938e+00
0.000000e+00
-3.321115e-03
-7.229266e-03
-1.129439e-02
-1.568438e-02
-1.911676e-02
-2.000055e-02
-1.725826e-02
-8.490010e-03
8.359722e-03
3.276217e-02
7.771285e-02
1.602381e-01
2.751737e-01
3.949894e-01
4.358700e-01
3.376909e-01
0.000000e+00
7.317745e-02
1.504097e-01
2.905783e-01
4.290567e-01
5.955628e-01
7.744539e-01
9.426964e-01
1.148744e+00
1.343960e+00
1.561949e+00
1.782246e+00
2.008888e+00
2.216406e+00
2.352211e+00
2.385114e+00
2.319435e+00
0.000000e+00
1.437287e-01
3.435502e-01
6.305252e-01
9.655906e-01
1.290844e+00
1.643094e+00
1.999651e+00
2.359098e+00
2.764634e+00
3.143696e+00
3.510683e+00
3.843516e+00
4.119240e+00
4.296028e+00
4.350667e+00
4.328003e+00
0.000000e+00
4.466852e-01
9.072227e-01
1.419532e+00
1.930462e+00
2.409062e+00
2.920106e+00
3.415641e+00
3.903288e+00
4.396694e+00
4.874977e+00
5.350105e+00
5.778012e+00
6.125701e+00
6.342795e+00
6.438619e+00
6.456331e+00
0.000000e+00
9.981988e-01
1.684097e+00
2.440044e+00
3.128033e+00
3.761858e+00
4.468600e+00
5.095743e+00
5.747539e+00
6.331619e+00
6.905085e+00
7.505957e+00
8.035969e+00
8.448070e+00
8.649316e+00
8.702050e+00
8.702580e+00
0.000000e+00
-6.187601e-01
-1.361820e+00
-2.363228e+00
-3.537411e+00
-4.880954e+00
-6.412444e+00
-8.098583e+00
-9.959060e+00
-1.198255e+01
-1.416733e+01
-1.651819e+01
-1.903186e+01
-2.176299e+01
-2.472723e+01
-2.808668e+01
-3.310235e+01
0.000000e+00
-4.159087e-01
-1.193484e+00
-2.177010e+00
-3.368359e+00
-4.706821e+00
-6.234903e+00
-7.929984e+00
-9.782758e+00
-1.181499e+01
-1.399504e+01
-1.635048e+01
-1.885898e+01
-2.157033e+01
-2.458704e+01
-2.800293e+01
-3.205277e+01
0.000000e+00
-3.903607e-01
-1.091665e+00
-2.073605e+00
-3.249245e+00
-4.580878e+00
-6.115188e+00
-7.800149e+00
-9.663771e+00
-1.169315e+01
-1.388438e+01
-1.625119e+01
-1.876991e+01
-2.150807e+01
-2.457706e+01
-2.785105e+01
-3.088357e+01
0.000000e+00
-4.493490e-01
-1.088042e+00
-2.047474e+00
-3.186818e+00
-4.511286e+00
-6.053568e+00
-7.723456e+00
-9.606156e+00
-1.163448e+01
-1.384744e+01
-1.623413e+01
-1.877837e+01
-2.151841e+01
-2.450739e+01
-2.754138e+01
-3.016725e+01
0.000000e+00
-4.562800e-01
-1.110444e+00
-2.031896e+00
-3.172475e+00
-4.501624e+00
-6.032018e+00
-7.721746e+00
-9.595921e+00
-1.164660e+01
-1.387403e+01
-1.626791e+01
-1.881962e+01
-2.151956e+01
-2.435679e+01
-2.717481e+01
-2.956274e+01
0.000000e+00
-4.480828e-01
-1.087722e+00
-2.049570e+00
-3.193797e+00
-4.528507e+00
-6.081159e+00
-7.760220e+00
-9.657994e+00
-1.171223e+01
-1.394439e+01
-1.632007e+01
-1.885053e+01
-2.150959e+01
-2.422188e+01
-2.685504e+01
-2.912437e+01
0.000000e+00
-3.886734e-01
-1.091678e+00
-2.078430e+00
-3.263063e+00
-4.610195e+00
-6.160984e+00
-7.869481e+00
-9.763019e+00
-1.182854e+01
-1.403079e+01
-1.638734e+01
-1.888974e+01
-2.150949e+01
-2.413950e+01
-2.664784e+01
-2.889063e+01
0.000000e+00
-4.143474e-01
-1.193591e+00
-2.182703e+00
-3.384600e+00
-4.738062e+00
-6.286009e+00
-8.010537e+00
-9.901591e+00
-1.196582e+01
-1.414584e+01
-1.648587e+01
-1.896691e+01
-2.155103e+01
-2.411898e+01
-2.656030e+01
-2.883015e+01
0.000000e+00
-6.177895e-01
-1.362555e+00
-2.369618e+00
-3.554055e+00
-4.912059e+00
-6.464243e+00
-8.178841e+00
-1.007429e+01
-1.212127e+01
-1.430098e+01
-1.663408e+01
-1.909055e+01
-2.163305e+01
-2.414360e+01
-2.654541e+01
-2.882901e+01


0.000000e+00
1.541816e-05
2.508267e-05
3.749338e-05
5.358458e-05
6.716906e-05
8.318313e-05
9.713699e-05
1.118651e-04
1.257457e-04
1.408869e-04
1.552323e-04
1.717887e-04
1.876076e-04
1.976882e-04
2.034311e-04
2.103643e-04
0.000000e+00
1.145765e-05
1.973643e-05
2.841437e-05
4.099194e-05
5.172240e-05
6.184957e-05
7.296209e-05
8.316430e-05
9.457646e-05
1.052314e-04
1.156238e-04
1.264857e-04
1.358409e-04
1.374450e-04
1.411985e-04
1.470213e-04
0.000000e+00
9.528838e-06
1.502516e-05
2.021159e-05
2.884475e-05
3.554699e-05
4.127795e-05
4.862601e-05
5.459688e-05
6.196714e-05
6.837097e-05
7.404547e-05
7.875943e-05
8.094345e-05
8.019316e-05
8.256952e-05
8.680136e-05
0.000000e+00
5.186681e-06
6.844075e-06
9.623109e-06
1.306249e-05
1.351944e-05
1.587008e-05
1.725493e-05
2.088428e-05
2.431225e-05
2.806481e-05
2.912619e-05
2.854414e-05
2.711691e-05
2.684087e-05
2.987569e-05
3.554660e-05
0.000000e+00
-1.758336e-07
-4.380952e-07
-8.620051e-07
-1.734965e-06
-2.897864e-06
-5.015701e-06
-7.263549e-06
-7.840347e-06
-7.885681e-06
-8.821762e-06
-1.195822e-05
-1.470246e-05
-1.613452e-05
-1.580988e-05
-1.365708e-05
-9.667178e-06
0.000000e+00
-5.451937e-06
-7.435918e-06
-1.075745e-05
-1.466775e-05
-1.608855e-05
-2.055340e-05
-2.432546e-05
-3.027953e-05
-3.342912e-05
-3.757164e-05
-4.223211e-05
-4.736969e-05
-4.915840e-05
-4.970034e-05
-5.016729e-05
-4.843183e-05
0.000000e+00
-9.528090e-06
-1.509198e-05
-2.038039e-05
-2.894694e-05
-3.534004e-05
-4.074733e-05
-4.874039e-05
-5.591896e-05
-6.363034e-05
-6.890386e-05
-7.391061e-05
-7.805887e-05
-8.164578e-05
-8.354723e-05
-8.546401e-05
-8.621013e-05
0.000000e+00
-1.138650e-05
-1.964822e-05
-2.830860e-05
-4.076678e-05
-5.166457e-05
-6.160507e-05
-7.279707e-05
-8.318760e-05
-9.458003e-05
-1.052185e-04
-1.135984e-04
-1.183869e-04
-1.234234e-04
-1.270387e-04
-1.283451e-04
-1.284405e-04
0.000000e+00
-1.542853e-05
-2.502323e-05
-3.733945e-05
-5.337356e-05
-6.699515e-05
-8.287552e-05
-9.586573e-05
-1.099975e-04
-1.232987e-04
-1.409597e-04
-1.567950e-04
-1.666068e-04
-1.718312e-04
-1.740357e-04
-1.742578e-04
-1.740784e-04
0.000000e+00
1.259649e-05
1.999710e-05
3.243391e-05
4.873813e-05
6.685819e-05
9.128972e-05
1.201186e-04
1.534182e-04
1.901564e-04
2.303178e-04
2.743243e-04
3.242493e-04
3.783775e-04
4.399131e-04
5.107658e-04
5.841665e-04
0.000000e+00
7.679690e-06
1.610701e-05
2.633259e-05
4.227634e-05
6.089822e-05
8.482987e-05
1.142483e-04
1.471759e-04
1.840375e-04
2.239806e-04
2.681138e-04
3.176770e-04
3.734341e-04
4.346594e-04
5.033852e-04
5.738139e-04
0.000000e+00
4.325447e-06
1.229030e-05
2.172246e-05
3.645545e-05
5.567527e-05
7.940747e-05
1.097395e-04
1.430177e-04
1.795503e-04
2.193920e-04
2.635745e-04
3.138918e-04
3.710400e-04
4.305117e-04
4.959074e-04
5.641318e-04
0.000000e+00
3.198745e-06
1.058923e-05
2.008264e-05
3.450798e-05
5.200438e-05
7.640225e-05
1.087409e-04
1.435641e-04
1.781167e-04
2.173487e-04
2.619321e-04
3.131330e-04
3.696257e-04
4.277749e-04
4.880741e-04
5.499753e-04
0.000000e+00
2.810400e-06
1.026601e-05
2.004187e-05
3.424001e-05
5.071309e-05
7.528282e-05
1.097804e-04
1.447776e-04
1.780325e-04
2.155566e-04
2.618671e-04
3.133544e-04
3.697666e-04
4.266324e-04
4.816920e-04
5.338488e-04
0.000000e+00
3.342447e-06
1.078056e-05
2.045996e-05
3.484986e-05
5.180905e-05
7.716575e-05
1.106742e-04
1.453932e-04
1.778601e-04
2.159395e-04
2.633313e-04
3.156981e-04
3.700953e-04
4.265385e-04
4.793711e-04
5.228177e-04
0.000000e+00
4.479549e-06
1.251980e-05
2.206922e-05
3.673630e-05
5.575870e-05
8.038736e-05
1.117447e-04
1.447319e-04
1.789589e-04
2.182071e-04
2.665439e-04
3.191914e-04
3.721999e-04
4.256317e-04
4.766213e-04
5.193383e-04
0.000000e+00
7.804565e-06
1.634458e-05
2.663557e-05
4.253662e-05
6.131139e-05
8.580096e-05
1.159208e-04
1.481932e-04
1.832565e-04
2.228370e-04
2.703144e-04
3.222376e-04
3.744037e-04
4.257806e-04
4.745987e-04
5.197980e-04
0.000000e+00
1.271010e-05
2.023481e-05
3.272682e-05
4.908009e-05
6.739855e-05
9.233362e-05
1.215796e-04
1.543831e-04
1.894294e-04
2.300992e-04
2.746755e-04
3.245359e-04
3.755630e-04
4.261005e-04
4.741151e-04
5.200617e-04


5.676464e+00
6.139679e+00
6.866863e+00
5.937144e+00
5.737263e+00
6.571200e+00
6.430350e+00
6.429385e+00
5.965555e+00
5.904051e+00
6.284810e+00
7.151484e+00
8.848537e+00
9.830333e+00
9.151211e+00
8.002196e+00
8.084561e+00
8.461436e+00
8.661970e+00
8.358080e+00
8.237319e+00
8.511734e+00
8.674321e+00
8.426455e+00
8.399383e+00
8.270899e+00
8.417886e+00
8.845078e+00
9.507312e+00
9.842979e+00
8.395329e+00
6.474344e+00
9.843371e+00
9.823826e+00
9.999385e+00
9.837763e+00
9.836140e+00
9.969844e+00
9.835583e+00
9.947319e+00
9.848957e+00
9.880795e+00
9.898596e+00
9.876377e+00
9.894694e+00
9.395973e+00
8.000682e+00
6.191979e+00
9.999697e+00
9.999692e+00
9.999689e+00
9.999659e+00
9.999618e+00
9.999534e+00
9.999440e+00
9.999438e+00
9.999492e+00
9.999483e+00
9.999258e+00
9.483391e+00
8.832283e+00
8.373745e+00
7.992575e+00
7.921340e+00
9.999696e+00
9.999688e+00
9.999683e+00
9.999642e+00
9.999573e+00
9.999420e+00
9.934671e+00
9.963298e+00
9.999027e+00
9.918923e+00
9.360218e+00
8.595059e+00
7.710835e+00
7.748904e+00
8.654785e+00
9.170169e+00
9.843793e+00
9.823780e+00
9.999353e+00
9.837572e+00
9.835711e+00
9.712193e+00
9.306919e+00
9.520573e+00
9.387413e+00
8.873344e+00
8.312207e+00
7.900877e+00
8.203956e+00
8.757339e+00
9.449358e+00
9.998924e+00
8.087028e+00
8.462501e+00
8.661372e+00
8.356537e+00
8.155983e+00
8.061315e+00
7.899100e+00
7.809029e+00
7.899105e+00
7.348235e+00
7.487529e+00
8.493710e+00
9.293890e+00
9.849438e+00
9.999373e+00
9.999625e+00
5.682633e+00
6.141687e+00
6.865879e+00
5.929196e+00
5.706370e+00
6.236938e+00
6.050484e+00
6.517827e+00
6.299971e+00
6.533209e+00
7.872521e+00
9.116460e+00
9.986920e+00
9.999512e+00
9.999664e+00
9.999716e+00


-8.189373e-01
-1.674010e-01
-3.973621e-01
-2.584620e-01
-9.305520e-02
-3.071408e-01
-1.233431e-01
-2.097443e-01
-1.618404e-01
-1.577972e-01
-2.153089e-01
-1.497272e-01
-4.613833e-01
-6.860678e-01
3.157377e-01
-8.469598e-01
6.107605e-01
4.814549e-01
2.952388e-01
2.252433e-01
2.909850e-01
1.679840e-01
1.751176e-01
1.732414e-01
1.095837e-01
1.483123e-01
1.279583e-01
2.413577e-01
3.024737e-01
5.092857e-01
6.953489e-01
-9.344604e-01
7.227112e-01
4.716221e-01
5.643710e-02
-2.241424e-02
-3.621207e-02
-1.887337e-01
-8.019832e-02
-1.380724e-01
-7.742677e-02
-1.900168e-02
3.133260e-02
1.854617e-01
2.782376e-01
1.479529e-01
-2.538128e-02
-1.678705e-01
7.279672e-01
5.564355e-01
1.928223e-01
6.153004e-02
-2.222557e-02
-1.068338e-01
-1.639968e-02
-6.206157e-02
1.316021e-02
1.680050e-02
5.860951e-02
1.174509e-01
5.871104e-02
-2.623441e-01
-3.840125e-01
-7.821273e-02
7.308711e-01
5.603793e-01
2.008239e-01
6.972011e-02
-1.828412e-02
-1.127820e-01
-3.647493e-02
-1.028168e-01
-5.246549e-02
-4.362436e-02
2.093499e-02
1.403389e-02
-3.781798e-02
-1.298828e-01
-1.026502e-01
3.104925e-01
7.295231e-01
4.818363e-01
7.450660e-02
-4.448034e-03
-2.414418e-02
-1.624561e-01
-7.337606e-02
-1.877714e-01
-1.820561e-01
-1.091119e-01
-7.756923e-02
-9.779528e-02
-1.115783e-01
4.537249e-02
3.341068e-01
7.245513e-01
6.148461e-01
4.873180e-01
3.026961e-01
2.302229e-01
2.871010e-01
1.614339e-01
1.523117e-01
1.033585e-01
-5.757483e-02
-4.008412e-02
-9.646035e-02
-5.668204e-02
5.728393e-02
3.650769e-01
7.128560e-01
9.478990e-01
-8.246201e-01
-1.728817e-01
-4.049948e-01
-2.615766e-01
-9.224222e-02
-3.011789e-01
-1.193513e-01
-1.571958e-01
-5.600235e-02
-2.185940e-02
-9.259726e-02
1.001257e-01
3.878165e-01
7.721276e-01
9.528995e-01
9.987355e-01
1 2 19 18
2 3 20 19
3 4 21 20
4 5 22 21
5 6 23 22
6 7 24 23
7 8 25 24
8 9 26 25
9 10 27 26
10 11 28 27
11 12 29 28
12 13 30 29
13 14 31 30
14 15 32 31
15 16 33 32
16 17 34 33
18 19 36 35
19 20 37 36
20 21 38 37
21 22 39 38
22 23 40 39
23 24 41 40
24 25 42 41
25 26 43 42
26 27 44 43
27 28 45 44
28 29 46 45
29 30 47 46
30 31 48 47
31 32 49 48
32 33 50 49
33 34 51 50
35 36 53 52
36 37 54 53
37 38 55 54
38 39 56 55
39 40 57 56
40 41 58 57
41 42 59 58
42 43 60 59
43 44 61 60
44 45 62 61
45 46 63 62
46 47 64 63
47 48 65 64
48 49 66 65
49 50 67 66
50 51 68 67
52 53 70 69
53 54 71 70
54 55 72 71
55 56 73 72
56 57 74 73
57 58 75 74
58 59 76 75
59 60 77 76
60 61 78 77
61 62 79 78
62 63 80 79
63 64 81 80
64 65 82 81
65 66 83 82
66 67 84 83
67 68 85 84
69 70 87 86
70 71 88 87
71 72 89 88
72 73 90 89
73 74 91 90
74 75 92 91
75 76 93 92
76 77 94 93
77 78 95 94
78 79 96 95
79 80 97 96
80 81 98 97
81 82 99 98
82 83 100 99
83 84 101 100
84 85 102 101
86 87 104 103
87 88 105 104
88 89 106 105
89 90 107 106
90 91 108 107
91 92 109 108
92 93 110 109
93 94 111 110
94 95 112 111
95 96 113 112
96 97 114 113
97 98 115 114
98 99 116 115
99 100 117 116
100 101 118 117
101 102 119 118
103 104 121 120
104 105 122 121
105 106 123 122
106 107 124 123
107 108 125 124
108 109 126 125
109 110 127 126
110 111 128 127
111 112 129 128
112 113 130 129
113 114 131 130
114 115 132 131
115 116 133 132
116 117 134 133
117 118 135 134
118 119 136 135
120 121 138 137
121 122 139 138
122 123 140 139
123 124 141 140
124 125 142 141
125 126 143 142
126 127 144 143
127 128 145 144
128 129 146 145
129 130 147 146
130 131 148 147
131 132 149 148
132 133 150 149
133 134 151 150
134 135 152 151
135 136 153 152
