TITLE = "Solution"
VARIABLES = x, y, u, v, psiu, psiv, t, stress
ZONE T="structure" N=561 E=512 F=FEBLOCK ET=QUADRILATERAL VARLOCATION=([7,8]=cellcentered)
0.000000e+00
6.250000e+00
1.250000e+01
1.875000e+01
2.500000e+01
3.125000e+01
3.750000e+01
4.375000e+01
5.000000e+01
5.625000e+01
6.250000e+01
6.875000e+01
7.500000e+01
8.125000e+01
8.750000e+01
9.375000e+01
1.000000e+02
1.062500e+02
1.125000e+02
1.187500e+02
1.250000e+02
1.312500e+02
1.375000e+02
1.437500e+02
1.500000e+02
1.562500e+02
1.625000e+02
1.687500e+02
1.750000e+02
1.812500e+02
1.875000e+02
1.937500e+02
2.000000e+02
0.000000e+00
6.250000e+00
1.250000e+01
1.875000e+01
2.500000e+01
3.125000e+01
3.750000e+01
4.375000e+01
5.000000e+01
5.625000e+01
6.250000e+01
6.875000e+01
7.500000e+01
8.125000e+01
8.750000e+01
9.375000e+01
1.000000e+02
1.062500e+02
1.125000e+02
1.187500e+02
1.250000e+02
1.312500e+02
1.375000e+02
1.437500e+02
1.500000e+02
1.562500e+02
1.625000e+02
1.687500e+02
1.750000e+02
1.812500e+02
1.875000e+02
1.937500e+02
2.000000e+02
0.000000e+00
6.250000e+00
1.250000e+01
1.875000e+01
2.500000e+01
3.125000e+01
3.750000e+01
4.375000e+01
5.000000e+01
5.625000e+01
6.250000e+01
6.875000e+01
7.500000e+01
8.125000e+01
8.750000e+01
9.375000e+01
1.000000e+02
1.062500e+02
1.125000e+02
1.187500e+02
1.250000e+02
1.312500e+02
1.375000e+02
1.437500e+02
1.500000e+02
1.562500e+02
1.625000e+02
1.687500e+02
1.750000e+02
1.812500e+02
1.875000e+02
1.937500e+02
2.000000e+02
0.000000e+00
6.250000e+00
1.250000e+01
1.875000e+01
2.500000e+01
3.125000e+01
3.750000e+01
4.375000e+01
5.000000e+01
5.625000e+01
6.250000e+01
6.875000e+01
7.500000e+01
8.125000e+01
8.750000e+01
9.375000e+01
1.000000e+02
1.062500e+02
1.125000e+02
1.187500e+02
1.250000e+02
1.312500e+02
1.375000e+02
1.437500e+02
1.500000e+02
1.562500e+02
1.625000e+02
1.687500e+02
1.750000e+02
1.812500e+02
1.875000e+02
1.937500e+02
2.000000e+02
0.000000e+00
6.250000e+00
1.250000e+01
1.875000e+01
2.500000e+01
3.125000e+01
3.750000e+01
4.375000e+01
5.000000e+01
5.625000e+01
6.250000e+01
6.875000e+01
7.500000e+01
8.125000e+01
8.750000e+01
9.375000e+01
1.000000e+02
1.062500e+02
1.125000e+02
1.187500e+02
1.250000e+02
1.312500e+02
1.375000e+02
1.437500e+02
1.500000e+02
1.562500e+02
1.625000e+02
1.687500e+02
1.750000e+02
1.812500e+02
1.875000e+02
1.937500e+02
2.000000e+02
0.000000e+00
6.250000e+00
1.250000e+01
1.875000e+01
2.500000e+01
3.125000e+01
3.750000e+01
4.375000e+01
5.000000e+01
5.625000e+01
6.250000e+01
6.875000e+01
7.500000e+01
8.125000e+01
8.750000e+01
9.375000e+01
1.000000e+02
1.062500e+02
1.125000e+02
1.187500e+02
1.250000e+02
1.312500e+02
1.375000e+02
1.437500e+02
1.500000e+02
1.562500e+02
1.625000e+02
1.687500e+02
1.750000e+02
1.812500e+02
1.875000e+02
1.937500e+02
2.000000e+02
0.000000e+00
6.250000e+00
1.250000e+01
1.875000e+01
2.500000e+01
3.125000e+01
3.750000e+01
4.375000e+01
5.000000e+01
5.625000e+01
6.250000e+01
6.875000e+01
7.500000e+01
8.125000e+01
8.750000e+01
9.375000e+01
1.000000e+02
1.062500e+02
1.125000e+02
1.187500e+02
1.250000e+02
1.312500e+02
1.375000e+02
1.437500e+02
1.500000e+02
1.562500e+02
1.625000e+02
1.687500e+02
1.750000e+02
1.812500e+02
1.875000e+02
1.937500e+02
2.000000e+02
0.000000e+00
6.250000e+00
1.250000e+01
1.875000e+01
2.500000e+01
3.125000e+01
3.750000e+01
4.375000e+01
5.000000e+01
5.625000e+01
6.250000e+01
6.875000e+01
7.500000e+01
8.125000e+01
8.750000e+01
9.375000e+01
1.000000e+02
1.062500e+02
1.125000e+02
1.187500e+02
1.250000e+02
1.312500e+02
1.375000e+02
1.437500e+02
1.500000e+02
1.562500e+02
1.625000e+02
1.687500e+02
1.750000e+02
1.812500e+02
1.875000e+02
1.937500e+02
2.000000e+02
0.000000e+00
6.250000e+00
1.250000e+01
1.875000e+01
2.500000e+01
3.125000e+01
3.750000e+01
4.375000e+01
5.000000e+01
5.625000e+01
6.250000e+01
6.875000e+01
7.500000e+01
8.125000e+01
8.750000e+01
9.375000e+01
1.000000e+02
1.062500e+02
1.125000e+02
1.187500e+02
1.250000e+02
1.312500e+02
1.375000e+02
1.437500e+02
1.500000e+02
1.562500e+02
1.625000e+02
1.687500e+02
1.750000e+02
1.812500e+02
1.875000e+02
1.937500e+02
2.000000e+02
0.000000e+00
6.250000e+00
1.250000e+01
1.875000e+01
2.500000e+01
3.125000e+01
3.750000e+01
4.375000e+01
5.000000e+01
5.625000e+01
6.250000e+01
6.875000e+01
7.500000e+01
8.125000e+01
8.750000e+01
9.375000e+01
1.000000e+02
1.062500e+02
1.125000e+02
1.187500e+02
1.250000e+02
1.312500e+02
1.375000e+02
1.437500e+02
1.500000e+02
1.562500e+02
1.625000e+02
1.687500e+02
1.750000e+02
1.812500e+02
1.875000e+02
1.937500e+02
2.000000e+02
0.000000e+00
6.250000e+00
1.250000e+01
1.875000e+01
2.500000e+01
3.125000e+01
3.750000e+01
4.375000e+01
5.000000e+01
5.625000e+01
6.250000e+01
6.875000e+01
7.500000e+01
8.125000e+01
8.750000e+01
9.375000e+01
1.000000e+02
1.062500e+02
1.125000e+02
1.187500e+02
1.250000e+02
1.312500e+02
1.375000e+02
1.437500e+02
1.500000e+02
1.562500e+02
1.625000e+02
1.687500e+02
1.750000e+02
1.812500e+02
1.875000e+02
1.937500e+02
2.000000e+02
0.000000e+00
6.250000e+00
1.250000e+01
1.875000e+01
2.500000e+01
3.125000e+01
3.750000e+01
4.375000e+01
5.000000e+01
5.625000e+01
6.250000e+01
6.875000e+01
7.500000e+01
8.125000e+01
8.750000e+01
9.375000e+01
1.000000e+02
1.062500e+02
1.125000e+02
1.187500e+02
1.250000e+02
1.312500e+02
1.375000e+02
1.437500e+02
1.500000e+02
1.562500e+02
1.625000e+02
1.687500e+02
1.750000e+02
1.812500e+02
1.875000e+02
1.937500e+02
2.000000e+02
0.000000e+00
6.250000e+00
1.250000e+01
1.875000e+01
2.500000e+01
3.125000e+01
3.750000e+01
4.375000e+01
5.000000e+01
5.625000e+01
6.250000e+01
6.875000e+01
7.500000e+01
8.125000e+01
8.750000e+01
9.375000e+01
1.000000e+02
1.062500e+02
1.125000e+02
1.187500e+02
1.250000e+02
1.312500e+02
1.375000e+02
1.437500e+02
1.500000e+02
1.562500e+02
1.625000e+02
1.687500e+02
1.750000e+02
1.812500e+02
1.875000e+02
1.937500e+02
2.000000e+02
0.000000e+00
6.250000e+00
1.250000e+01
1.875000e+01
2.500000e+01
3.125000e+01
3.750000e+01
4.375000e+01
5.000000e+01
5.625000e+01
6.250000e+01
6.875000e+01
7.500000e+01
8.125000e+01
8.750000e+01
9.375000e+01
1.000000e+02
1.062500e+02
1.125000e+02
1.187500e+02
1.250000e+02
1.312500e+02
1.375000e+02
1.437500e+02
1.500000e+02
1.562500e+02
1.625000e+02
1.687500e+02
1.750000e+02
1.812500e+02
1.875000e+02
1.937500e+02
2.000000e+02
0.000000e+00
6.250000e+00
1.250000e+01
1.875000e+01
2.500000e+01
3.125000e+01
3.750000e+01
4.375000e+01
5.000000e+01
5.625000e+01
6.250000e+01
6.875000e+01
7.500000e+01
8.125000e+01
8.750000e+01
9.375000e+01
1.000000e+02
1.062500e+02
1.125000e+02
1.187500e+02
1.250000e+02
1.312500e+02
1.375000e+02
1.437500e+02
1.500000e+02
1.562500e+02
1.625000e+02
1.687500e+02
1.750000e+02
1.812500e+02
1.875000e+02
1.937500e+02
2.000000e+02
0.000000e+00
6.250000e+00
1.250000e+01
1.875000e+01
2.500000e+01
3.125000e+01
3.750000e+01
4.375000e+01
5.000000e+01
5.625000e+01
6.250000e+01
6.875000e+01
7.500000e+01
8.125000e+01
8.750000e+01
9.375000e+01
1.000000e+02
1.062500e+02
1.125000e+02
1.187500e+02
1.250000e+02
1.312500e+02
1.375000e+02
1.437500e+02
1.500000e+02
1.562500e+02
1.625000e+02
1.687500e+02
1.750000e+02
1.812500e+02
1.875000e+02
1.937500e+02
2.000000e+02
0.000000e+00
6.250000e+00
1.250000e+01
1.875000e+01
2.500000e+01
3.125000e+01
3.750000e+01
4.375000e+01
5.000000e+01
5.625000e+01
6.250000e+01
6.875000e+01
7.500000e+01
8.125000e+01
8.750000e+01
9.375000e+01
1.000000e+02
1.062500e+02
1.125000e+02
1.187500e+02
1.250000e+02
1.312500e+02
1.375000e+02
1.437500e+02
1.500000e+02
1.562500e+02
1.625000e+02
1.687500e+02
1.750000e+02
1.812500e+02
1.875000e+02
1.937500e+02
2.000000e+02
0.000000e+00
0.000000e+00
0.000000e+00
0.000000e+00
0.000000e+00
0.000000e+00
0.000000e+00
0.000000e+00
0.000000e+00
0.000000e+00
0.000000e+00
0.000000e+00
0.000000e+00
0.000000e+00
0.000000e+00
0.000000e+00
0.000000e+00
0.000000e+00
0.000000e+00
0.000000e+00
0.000000e+00
0.000000e+00
0.000000e+00
0.000000e+00
0.000000e+00
0.000000e+00
0.000000e+00
0.000000e+00
0.000000e+00
0.000000e+00
0.000000e+00
0.000000e+00
0.000000e+00
6.250000e+00
6.250000e+00
6.250000e+00
6.250000e+00
6.250000e+00
6.250000e+00
6.250000e+00
6.250000e+00
6.250000e+00
6.250000e+00
6.250000e+00
6.250000e+00
6.250000e+00
6.250000e+00
6.250000e+00
6.250000e+00
6.250000e+00
6.250000e+00
6.250000e+00
6.250000e+00
6.250000e+00
6.250000e+00
6.250000e+00
6.250000e+00
6.250000e+00
6.250000e+00
6.250000e+00
6.250000e+00
6.250000e+00
6.250000e+00
6.250000e+00
6.250000e+00
6.250000e+00
1.250000e+01
1.250000e+01
1.250000e+01
1.250000e+01
1.250000e+01
1.250000e+01
1.250000e+01
1.250000e+01
1.250000e+01
1.250000e+01
1.250000e+01
1.250000e+01
1.250000e+01
1.250000e+01
1.250000e+01
1.250000e+01
1.250000e+01
1.250000e+01
1.250000e+01
1.250000e+01
1.250000e+01
1.250000e+01
1.250000e+01
1.250000e+01
1.250000e+01
1.250000e+01
1.250000e+01
1.250000e+01
1.250000e+01
1.250000e+01
1.250000e+01
1.250000e+01
1.250000e+01
1.875000e+01
1.875000e+01
1.875000e+01
1.875000e+01
1.875000e+01
1.875000e+01
1.875000e+01
1.875000e+01
1.875000e+01
1.875000e+01
1.875000e+01
1.875000e+01
1.875000e+01
1.875000e+01
1.875000e+01
1.875000e+01
1.875000e+01
1.875000e+01
1.875000e+01
1.875000e+01
1.875000e+01
1.875000e+01
1.875000e+01
1.875000e+01
1.875000e+01
1.875000e+01
1.875000e+01
1.875000e+01
1.875000e+01
1.875000e+01
1.875000e+01
1.875000e+01
1.875000e+01
2.500000e+01
2.500000e+01
2.500000e+01
2.500000e+01
2.500000e+01
2.500000e+01
2.500000e+01
2.500000e+01
2.500000e+01
2.500000e+01
2.500000e+01
2.500000e+01
2.500000e+01
2.500000e+01
2.500000e+01
2.500000e+01
2.500000e+01
2.500000e+01
2.500000e+01
2.500000e+01
2.500000e+01
2.500000e+01
2.500000e+01
2.500000e+01
2.500000e+01
2.500000e+01
2.500000e+01
2.500000e+01
2.500000e+01
2.500000e+01
2.500000e+01
2.500000e+01
2.500000e+01
3.125000e+01
3.125000e+01
3.125000e+01
3.125000e+01
3.125000e+01
3.125000e+01
3.125000e+01
3.125000e+01
3.125000e+01
3.125000e+01
3.125000e+01
3.125000e+01
3.125000e+01
3.125000e+01
3.125000e+01
3.125000e+01
3.125000e+01
3.125000e+01
3.125000e+01
3.125000e+01
3.125000e+01
3.125000e+01
3.125000e+01
3.125000e+01
3.125000e+01
3.125000e+01
3.125000e+01
3.125000e+01
3.125000e+01
3.125000e+01
3.125000e+01
3.125000e+01
3.125000e+01
3.750000e+01
3.750000e+01
3.750000e+01
3.750000e+01
3.750000e+01
3.750000e+01
3.750000e+01
3.750000e+01
3.750000e+01
3.750000e+01
3.750000e+01
3.750000e+01
3.750000e+01
3.750000e+01
3.750000e+01
3.750000e+01
3.750000e+01
3.750000e+01
3.750000e+01
3.750000e+01
3.750000e+01
3.750000e+01
3.750000e+01
3.750000e+01
3.750000e+01
3.750000e+01
3.750000e+01
3.750000e+01
3.750000e+01
3.750000e+01
3.750000e+01
3.750000e+01
3.750000e+01
4.375000e+01
4.375000e+01
4.375000e+01
4.375000e+01
4.375000e+01
4.375000e+01
4.375000e+01
4.375000e+01
4.375000e+01
4.375000e+01
4.375000e+01
4.375000e+01
4.375000e+01
4.375000e+01
4.375000e+01
4.375000e+01
4.375000e+01
4.375000e+01
4.375000e+01
4.375000e+01
4.375000e+01
4.375000e+01
4.375000e+01
4.375000e+01
4.375000e+01
4.375000e+01
4.375000e+01
4.375000e+01
4.375000e+01
4.375000e+01
4.375000e+01
4.375000e+01
4.375000e+01
5.000000e+01
5.000000e+01
5.000000e+01
5.000000e+01
5.000000e+01
5.000000e+01
5.000000e+01
5.000000e+01
5.000000e+01
5.000000e+01
5.000000e+01
5.000000e+01
5.000000e+01
5.000000e+01
5.000000e+01
5.000000e+01
5.000000e+01
5.000000e+01
5.000000e+01
5.000000e+01
5.000000e+01
5.000000e+01
5.000000e+01
5.000000e+01
5.000000e+01
5.000000e+01
5.000000e+01
5.000000e+01
5.000000e+01
5.000000e+01
5.000000e+01
5.000000e+01
5.000000e+01
5.625000e+01
5.625000e+01
5.625000e+01
5.625000e+01
5.625000e+01
5.625000e+01
5.625000e+01
5.625000e+01
5.625000e+01
5.625000e+01
5.625000e+01
5.625000e+01
5.625000e+01
5.625000e+01
5.625000e+01
5.625000e+01
5.625000e+01
5.625000e+01
5.625000e+01
5.625000e+01
5.625000e+01
5.625000e+01
5.625000e+01
5.625000e+01
5.625000e+01
5.625000e+01
5.625000e+01
5.625000e+01
5.625000e+01
5.625000e+01
5.625000e+01
5.625000e+01
5.625000e+01
6.250000e+01
6.250000e+01
6.250000e+01
6.250000e+01
6.250000e+01
6.250000e+01
6.250000e+01
6.250000e+01
6.250000e+01
6.250000e+01
6.250000e+01
6.250000e+01
6.250000e+01
6.250000e+01
6.250000e+01
6.250000e+01
6.250000e+01
6.250000e+01
6.250000e+01
6.250000e+01
6.250000e+01
6.250000e+01
6.250000e+01
6.250000e+01
6.250000e+01
6.250000e+01
6.250000e+01
6.250000e+01
6.250000e+01
6.250000e+01
6.250000e+01
6.250000e+01
6.250000e+01
6.875000e+01
6.875000e+01
6.875000e+01
6.875000e+01
6.875000e+01
6.875000e+01
6.875000e+01
6.875000e+01
6.875000e+01
6.875000e+01
6.875000e+01
6.875000e+01
6.875000e+01
6.875000e+01
6.875000e+01
6.875000e+01
6.875000e+01
6.875000e+01
6.875000e+01
6.875000e+01
6.875000e+01
6.875000e+01
6.875000e+01
6.875000e+01
6.875000e+01
6.875000e+01
6.875000e+01
6.875000e+01
6.875000e+01
6.875000e+01
6.875000e+01
6.875000e+01
6.875000e+01
7.500000e+01
7.500000e+01
7.500000e+01
7.500000e+01
7.500000e+01
7.500000e+01
7.500000e+01
7.500000e+01
7.500000e+01
7.500000e+01
7.500000e+01
7.500000e+01
7.500000e+01
7.500000e+01
7.500000e+01
7.500000e+01
7.500000e+01
7.500000e+01
7.500000e+01
7.500000e+01
7.500000e+01
7.500000e+01
7.500000e+01
7.500000e+01
7.500000e+01
7.500000e+01
7.500000e+01
7.500000e+01
7.500000e+01
7.500000e+01
7.500000e+01
7.500000e+01
7.500000e+01
8.125000e+01
8.125000e+01
8.125000e+01
8.125000e+01
8.125000e+01
8.125000e+01
8.125000e+01
8.125000e+01
8.125000e+01
8.125000e+01
8.125000e+01
8.125000e+01
8.125000e+01
8.125000e+01
8.125000e+01
8.125000e+01
8.125000e+01
8.125000e+01
8.125000e+01
8.125000e+01
8.125000e+01
8.125000e+01
8.125000e+01
8.125000e+01
8.125000e+01
8.125000e+01
8.125000e+01
8.125000e+01
8.125000e+01
8.125000e+01
8.125000e+01
8.125000e+01
8.125000e+01
8.750000e+01
8.750000e+01
8.750000e+01
8.750000e+01
8.750000e+01
8.750000e+01
8.750000e+01
8.750000e+01
8.750000e+01
8.750000e+01
8.750000e+01
8.750000e+01
8.750000e+01
8.750000e+01
8.750000e+01
8.750000e+01
8.750000e+01
8.750000e+01
8.750000e+01
8.750000e+01
8.750000e+01
8.750000e+01
8.750000e+01
8.750000e+01
8.750000e+01
8.750000e+01
8.750000e+01
8.750000e+01
8.750000e+01
8.750000e+01
8.750000e+01
8.750000e+01
8.750000e+01
9.375000e+01
9.375000e+01
9.375000e+01
9.375000e+01
9.375000e+01
9.375000e+01
9.375000e+01
9.375000e+01
9.375000e+01
9.375000e+01
9.375000e+01
9.375000e+01
9.375000e+01
9.375000e+01
9.375000e+01
9.375000e+01
9.375000e+01
9.375000e+01
9.375000e+01
9.375000e+01
9.375000e+01
9.375000e+01
9.375000e+01
9.375000e+01
9.375000e+01
9.375000e+01
9.375000e+01
9.375000e+01
9.375000e+01
9.375000e+01
9.375000e+01
9.375000e+01
9.375000e+01
1.000000e+02
1.000000e+02
1.000000e+02
1.000000e+02
1.000000e+02
1.000000e+02
1.000000e+02
1.000000e+02
1.000000e+02
1.000000e+02
1.000000e+02
1.000000e+02
1.000000e+02
1.000000e+02
1.000000e+02
1.000000e+02
1.000000e+02
1.000000e+02
1.000000e+02
1.000000e+02
1.000000e+02
1.000000e+02
1.000000e+02
1.000000e+02
1.000000e+02
1.000000e+02
1.000000e+02
1.000000e+02
1.000000e+02
1.000000e+02
1.000000e+02
1.000000e+02
1.000000e+02
0.000000e+00
-4.188556e-01
-7.289351e-01
-1.047434e+00
-1.357887e+00
-1.655459e+00
-1.962517e+00
-2.262676e+00
-2.560614e+00
-2.861963e+00
-3.160448e+00
-3.458853e+00
-3.757994e+00
-4.055942e+00
-4.353996e+00
-4.652079e+00
-4.949722e+00
-5.247412e+00
-5.545118e+00
-5.842820e+00
-6.140699e+00
-6.439076e+00
-6.738355e+00
-7.038880e+00
-7.342326e+00
-7.650730e+00
-7.964399e+00
-8.286238e+00
-8.625618e+00
-8.995866e+00
-9.408188e+00
-9.802061e+00
-1.000884e+01
0.000000e+00
-2.369067e-01
-4.861701e-01
-7.488168e-01
-1.015923e+00
-1.270486e+00
-1.536500e+00
-1.798167e+00
-2.057965e+00
-2.321336e+00
-2.582239e+00
-2.843173e+00
-3.104817e+00
-3.365414e+00
-3.626061e+00
-3.886656e+00
-4.146746e+00
-4.406686e+00
-4.666403e+00
-4.925811e+00
-5.184949e+00
-5.443941e+00
-5.702805e+00
-5.961238e+00
-6.219695e+00
-6.478397e+00
-6.735440e+00
-6.990154e+00
-7.244653e+00
-7.492700e+00
-7.691381e+00
-7.776423e+00
-7.878825e+00
0.000000e+00
-1.465492e-01
-3.128569e-01
-5.140370e-01
-7.267591e-01
-9.351208e-01
-1.157255e+00
-1.378339e+00
-1.599663e+00
-1.824588e+00
-2.048248e+00
-2.272516e+00
-2.497646e+00
-2.722223e+00
-2.946991e+00
-3.171758e+00
-3.396090e+00
-3.620122e+00
-3.843647e+00
-4.066416e+00
-4.288185e+00
-4.508627e+00
-4.727136e+00
-4.942579e+00
-5.153775e+00
-5.358833e+00
-5.554141e+00
-5.735541e+00
-5.897144e+00
-6.023084e+00
-6.076713e+00
-6.076817e+00
-6.167763e+00
0.000000e+00
-1.052708e-01
-2.152103e-01
-3.596210e-01
-5.103445e-01
-6.739628e-01
-8.507301e-01
-1.029913e+00
-1.212679e+00
-1.399068e+00
-1.585868e+00
-1.774059e+00
-1.963289e+00
-2.152504e+00
-2.342036e+00
-2.531500e+00
-2.720455e+00
-2.908751e+00
-3.095951e+00
-3.281544e+00
-3.464890e+00
-3.645079e+00
-3.820844e+00
-3.990320e+00
-4.151140e+00
-4.300190e+00
-4.433100e+00
-4.544247e+00
-4.625769e+00
-4.666269e+00
-4.663626e+00
-4.671048e+00
-4.751107e+00
0.000000e+00
-9.091806e-02
-1.812706e-01
-2.837411e-01
-3.969021e-01
-5.218306e-01
-6.556914e-01
-7.942380e-01
-9.379494e-01
-1.084234e+00
-1.232146e+00
-1.381631e+00
-1.531652e+00
-1.681996e+00
-1.832388e+00
-1.982338e+00
-2.131549e+00
-2.279564e+00
-2.425801e+00
-2.569566e+00
-2.709892e+00
-2.845508e+00
-2.974764e+00
-3.095489e+00
-3.204985e+00
-3.299968e+00
-3.376421e+00
-3.429777e+00
-3.455961e+00
-3.454634e+00
-3.441439e+00
-3.467487e+00
-3.545791e+00
0.000000e+00
-7.167018e-02
-1.430322e-01
-2.181352e-01
-3.012496e-01
-3.912827e-01
-4.875851e-01
-5.891784e-01
-6.941544e-01
-8.017736e-01
-9.111078e-01
-1.021387e+00
-1.132239e+00
-1.243195e+00
-1.353870e+00
-1.463909e+00
-1.572861e+00
-1.680208e+00
-1.785285e+00
-1.887227e+00
-1.984919e+00
-2.076930e+00
-2.161490e+00
-2.236465e+00
-2.299398e+00
-2.347605e+00
-2.378328e+00
-2.389474e+00
-2.381733e+00
-2.361906e+00
-2.354670e+00
-2.387740e+00
-2.462886e+00
0.000000e+00
-4.901707e-02
-9.787984e-02
-1.486264e-01
-2.029959e-01
-2.616893e-01
-3.243718e-01
-3.903971e-01
-4.589743e-01
-5.292831e-01
-6.007130e-01
-6.727274e-01
-7.448898e-01
-8.168444e-01
-8.882328e-01
-9.586844e-01
-1.027772e+00
-1.094961e+00
-1.159573e+00
-1.220729e+00
-1.277313e+00
-1.327936e+00
-1.370946e+00
-1.404480e+00
-1.426610e+00
-1.435582e+00
-1.430231e+00
-1.410969e+00
-1.381693e+00
-1.353193e+00
-1.347654e+00
-1.383648e+00
-1.457013e+00
0.000000e+00
-2.500184e-02
-4.997201e-02
-7.560939e-02
-1.027044e-01
-1.316308e-01
-1.623641e-01
-1.946050e-01
-2.279385e-01
-2.619482e-01
-2.962443e-01
-3.304918e-01
-3.643934e-01
-3.976698e-01
-4.300390e-01
-4.611874e-01
-4.907426e-01
-5.182399e-01
-5.430844e-01
-5.645126e-01
-5.815592e-01
-5.930443e-01
-5.976005e-01
-5.937743e-01
-5.802472e-01
-5.562214e-01
-5.220740e-01
-4.805303e-01
-4.380928e-01
-4.063256e-01
-4.033399e-01
-4.405985e-01
-5.124196e-01
0.000000e+00
-5.109590e-04
-9.175342e-04
-1.191478e-03
-1.292139e-03
-1.166891e-03
-7.523753e-04
2.501359e-05
1.249163e-03
3.015068e-03
5.430050e-03
8.615530e-03
1.270972e-02
1.787166e-02
2.428752e-02
3.217983e-02
4.182051e-02
5.354876e-02
6.779432e-02
8.510380e-02
1.061637e-01
1.318080e-01
1.629816e-01
2.006037e-01
2.452639e-01
2.967131e-01
3.530516e-01
4.096057e-01
4.583864e-01
4.884060e-01
4.875375e-01
4.502168e-01
3.837315e-01
0.000000e+00
2.398771e-02
4.814496e-02
7.322706e-02
1.001067e-01
1.292618e-01
1.607933e-01
1.945462e-01
2.302707e-01
2.677376e-01
3.067695e-01
3.472715e-01
3.892184e-01
4.326424e-01
4.776227e-01
5.242735e-01
5.727406e-01
6.232012e-01
6.758689e-01
7.309998e-01
7.888981e-01
8.499211e-01
9.144453e-01
9.826867e-01
1.054304e+00
1.127847e+00
1.200088e+00
1.265397e+00
1.315934e+00
1.343032e+00
1.339990e+00
1.306378e+00
1.251396e+00
0.000000e+00
4.802237e-02
9.606674e-02
1.462314e-01
2.003387e-01
2.591922e-01
3.225755e-01
3.899804e-01
4.607723e-01
5.343115e-01
6.101941e-01
6.881164e-01
7.679034e-01
8.494920e-01
9.328511e-01
1.017984e+00
1.104899e+00
1.193585e+00
1.284009e+00
1.376083e+00
1.469637e+00
1.564435e+00
1.660182e+00
1.756308e+00
1.851487e+00
1.943168e+00
2.027304e+00
2.098391e+00
2.150159e+00
2.177038e+00
2.176253e+00
2.150595e+00
2.110241e+00
0.000000e+00
7.069426e-02
1.412090e-01
2.156653e-01
2.984307e-01
3.884855e-01
4.853032e-01
5.880253e-01
6.948817e-01
8.053112e-01
9.185810e-01
1.034147e+00
1.151888e+00
1.271603e+00
1.393186e+00
1.516568e+00
1.641595e+00
1.768061e+00
1.895656e+00
2.023915e+00
2.152135e+00
2.279453e+00
2.404960e+00
2.527381e+00
2.644505e+00
2.752958e+00
2.848455e+00
2.926305e+00
2.982123e+00
3.012843e+00
3.018162e+00
3.002460e+00
2.976351e+00
0.000000e+00
8.993136e-02
1.793665e-01
2.810905e-01
3.937268e-01
5.184667e-01
6.525158e-01
7.917393e-01
9.367501e-01
1.085093e+00
1.236028e+00
1.389709e+00
1.545342e+00
1.702973e+00
1.862552e+00
2.023804e+00
2.186562e+00
2.350421e+00
2.514808e+00
2.678896e+00
2.841496e+00
3.001321e+00
3.156973e+00
3.306383e+00
3.446319e+00
3.572666e+00
3.681242e+00
3.768396e+00
3.831396e+00
3.868962e+00
3.882260e+00
3.876461e+00
3.862521e+00
0.000000e+00
1.042335e-01
2.132882e-01
3.568279e-01
5.068835e-01
6.700108e-01
8.465194e-01
1.025719e+00
1.208863e+00
1.396132e+00
1.584443e+00
1.774981e+00
1.967626e+00
2.161546e+00
2.357303e+00
2.554702e+00
2.753333e+00
2.952964e+00
3.152911e+00
3.352033e+00
3.548989e+00
3.742555e+00
3.930871e+00
4.110236e+00
4.275507e+00
4.421631e+00
4.544752e+00
4.642463e+00
4.713685e+00
4.758737e+00
4.779897e+00
4.782669e+00
4.777960e+00
0.000000e+00
1.458850e-01
3.116024e-01
5.122163e-01
7.243779e-01
9.322620e-01
1.153974e+00
1.374696e+00
1.595762e+00
1.820576e+00
2.044322e+00
2.268959e+00
2.494876e+00
2.720754e+00
2.947474e+00
3.174997e+00
3.402865e+00
3.631168e+00
3.859541e+00
4.086960e+00
4.312504e+00
4.535903e+00
4.755349e+00
4.964813e+00
5.155796e+00
5.321410e+00
5.457956e+00
5.564368e+00
5.641396e+00
5.691229e+00
5.717547e+00
5.726172e+00
5.727122e+00
0.000000e+00
2.367580e-01
4.859433e-01
7.484972e-01
1.015469e+00
1.269897e+00
1.535755e+00
1.797203e+00
2.056736e+00
2.319778e+00
2.580242e+00
2.840609e+00
3.101545e+00
3.361205e+00
3.620634e+00
3.879705e+00
4.137762e+00
4.395057e+00
4.651468e+00
4.906265e+00
5.159123e+00
5.410793e+00
5.659651e+00
5.897302e+00
6.111603e+00
6.293531e+00
6.439262e+00
6.548818e+00
6.624777e+00
6.671725e+00
6.695914e+00
6.704755e+00
6.706901e+00
0.000000e+00
4.193892e-01
7.299708e-01
1.048919e+00
1.359804e+00
1.657767e+00
1.965199e+00
2.265644e+00
2.563794e+00
2.865244e+00
3.163606e+00
3.461607e+00
3.759943e+00
4.056477e+00
4.352327e+00
4.647243e+00
4.940412e+00
5.232161e+00
5.522459e+00
5.810869e+00
6.097550e+00
6.383207e+00
6.664678e+00
6.930408e+00
7.165356e+00
7.359183e+00
7.507796e+00
7.611574e+00
7.674296e+00
7.703115e+00
7.708762e+00
7.704725e+00
7.702360e+00
0.000000e+00
-2.527046e-01
-5.033985e-01
-8.167313e-01
-1.167388e+00
-1.558143e+00
-1.991220e+00
-2.459664e+00
-2.966725e+00
-3.511662e+00
-4.093321e+00
-4.713187e+00
-5.370740e+00
-6.065927e+00
-6.799277e+00
-7.570661e+00
-8.380241e+00
-9.228307e+00
-1.011499e+01
-1.104054e+01
-1.200526e+01
-1.300954e+01
-1.405384e+01
-1.513902e+01
-1.626680e+01
-1.743963e+01
-1.866151e+01
-1.994013e+01
-2.128631e+01
-2.271316e+01
-2.425222e+01
-2.606138e+01
-2.858773e+01
0.000000e+00
-1.582987e-01
-4.228352e-01
-7.304382e-01
-1.084139e+00
-1.474363e+00
-1.906579e+00
-2.376257e+00
-2.882806e+00
-3.427611e+00
-4.009670e+00
-4.629341e+00
-5.286968e+00
-5.982302e+00
-6.715623e+00
-7.487098e+00
-8.296765e+00
-9.144870e+00
-1.003162e+01
-1.095724e+01
-1.192199e+01
-1.292626e+01
-1.397055e+01
-1.505559e+01
-1.618292e+01
-1.735529e+01
-1.857679e+01
-1.985409e+01
-2.119852e+01
-2.262765e+01
-2.418320e+01
-2.596898e+01
-2.823026e+01
0.000000e+00
-1.265442e-01
-3.639279e-01
-6.677841e-01
-1.017743e+00
-1.405855e+00
-1.836596e+00
-2.305625e+00
-2.811423e+00
-3.355917e+00
-3.937798e+00
-4.557252e+00
-5.214859e+00
-5.910186e+00
-6.643537e+00
-7.415133e+00
-8.224959e+00
-9.073278e+00
-9.960319e+00
-1.088631e+01
-1.185153e+01
-1.285640e+01
-1.390155e+01
-1.498771e+01
-1.611650e+01
-1.729093e+01
-1.851516e+01
-1.979615e+01
-2.114795e+01
-2.259814e+01
-2.417699e+01
-2.585897e+01
-2.762318e+01
0.000000e+00
-1.338918e-01
-3.450942e-01
-6.364426e-01
-9.749216e-01
-1.357185e+00
-1.784252e+00
-2.250059e+00
-2.754211e+00
-3.297564e+00
-3.878523e+00
-4.497527e+00
-5.154838e+00
-5.850045e+00
-6.583477e+00
-7.355278e+00
-8.165482e+00
-9.014358e+00
-9.902146e+00
-1.082913e+01
-1.179565e+01
-1.280222e+01
-1.384956e+01
-1.493856e+01
-1.607095e+01
-1.724975e+01
-1.847920e+01
-1.976685e+01
-2.112822e+01
-2.259075e+01
-2.415447e+01
-2.570349e+01
-2.712355e+01
0.000000e+00
-1.512769e-01
-3.571226e-01
-6.322688e-01
-9.582797e-01
-1.331471e+00
-1.751378e+00
-2.211799e+00
-2.712895e+00
-3.253783e+00
-3.833174e+00
-4.451368e+00
-5.108097e+00
-5.803186e+00
-6.536811e+00
-7.309026e+00
-8.119968e+00
-8.969878e+00
-9.859027e+00
-1.078777e+01
-1.175654e+01
-1.276589e+01
-1.381661e+01
-1.490969e+01
-1.604680e+01
-1.723067e+01
-1.846520e+01
-1.975700e+01
-2.111883e+01
-2.256725e+01
-2.407562e+01
-2.549947e+01
-2.675249e+01
0.000000e+00
-1.590794e-01
-3.684551e-01
-6.337778e-01
-9.515432e-01
-1.317632e+00
-1.730289e+00
-2.186267e+00
-2.683890e+00
-3.222294e+00
-3.800326e+00
-4.417641e+00
-5.073999e+00
-5.769166e+00
-6.503185e+00
-7.276133e+00
-8.088157e+00
-8.939523e+00
-9.830559e+00
-1.076168e+01
-1.173337e+01
-1.274623e+01
-1.380097e+01
-1.489849e+01
-1.604013e+01
-1.722797e+01
-1.846476e+01
-1.975408e+01
-2.110197e+01
-2.251398e+01
-2.394144e+01
-2.527133e+01
-2.642478e+01
0.000000e+00
-1.627337e-01
-3.738949e-01
-6.359576e-01
-9.485852e-01
-1.309901e+00
-1.717771e+00
-2.170129e+00
-2.665223e+00
-3.201748e+00
-3.778746e+00
-4.395567e+00
-5.051824e+00
-5.747308e+00
-6.481963e+00
-7.255867e+00
-8.069205e+00
-8.922271e+00
-9.815451e+00
-1.074921e+01
-1.172407e+01
-1.274059e+01
-1.379930e+01
-1.490078e+01
-1.604572e+01
-1.723510e+01
-1.846981e+01
-1.974929e+01
-2.107227e+01
-2.243388e+01
-2.378498e+01
-2.503926e+01
-2.612268e+01
0.000000e+00
-1.644008e-01
-3.763691e-01
-6.373851e-01
-9.476773e-01
-1.306286e+00
-1.711626e+00
-2.161924e+00
-2.655554e+00
-3.191163e+00
-3.767720e+00
-4.384502e+00
-5.041046e+00
-5.737101e+00
-6.472594e+00
-7.247603e+00
-8.062339e+00
-8.917133e+00
-9.812416e+00
-1.074869e+01
-1.172648e+01
-1.274623e+01
-1.380824e+01
-1.491256e+01
-1.605893e+01
-1.724688e+01
-1.847503e+01
-1.973900e+01
-2.103109e+01
-2.233933e+01
-2.361996e+01
-2.480705e+01
-2.583206e+01
0.000000e+00
-1.649599e-01
-3.772793e-01
-6.381740e-01
-9.479578e-01
-1.305933e+00
-1.710709e+00
-2.160639e+00
-2.654134e+00
-3.189844e+00
-3.766721e+00
-4.384014e+00
-5.041239e+00
-5.738135e+00
-6.474627e+00
-7.250798e+00
-8.066876e+00
-8.923217e+00
-9.820280e+00
-1.075858e+01
-1.173861e+01
-1.276069e+01
-1.382482e+01
-1.493043e+01
-1.607619e+01
-1.725991e+01
-1.847783e+01
-1.972248e+01
-2.098187e+01
-2.223866e+01
-2.345608e+01
-2.458163e+01
-2.555769e+01
0.000000e+00
-1.646708e-01
-3.769705e-01
-6.384066e-01
-9.492313e-01
-1.308501e+00
-1.714641e+00
-2.165888e+00
-2.660618e+00
-3.197483e+00
-3.775457e+00
-4.393819e+00
-5.052109e+00
-5.750082e+00
-6.487675e+00
-7.264977e+00
-8.082219e+00
-8.939756e+00
-9.838046e+00
-1.077759e+01
-1.175883e+01
-1.278194e+01
-1.384668e+01
-1.495189e+01
-1.609513e+01
-1.727243e+01
-1.847767e+01
-1.970106e+01
-2.092817e+01
-2.213932e+01
-2.330388e+01
-2.438041e+01
-2.532394e+01
0.000000e+00
-1.632514e-01
-3.750496e-01
-6.379293e-01
-9.515982e-01
-1.314209e+00
-1.723651e+00
-2.177868e+00
-2.675119e+00
-3.214108e+00
-3.793882e+00
-4.413797e+00
-5.073469e+00
-5.772691e+00
-6.511419e+00
-7.289745e+00
-8.107876e+00
-8.966137e+00
-9.864951e+00
-1.080476e+01
-1.178592e+01
-1.280855e+01
-1.387228e+01
-1.497556e+01
-1.611489e+01
-1.728446e+01
-1.847605e+01
-1.967818e+01
-2.087569e+01
-2.204936e+01
-2.317388e+01
-2.421789e+01
-2.514744e+01
0.000000e+00
-1.597940e-01
-3.700539e-01
-6.365528e-01
-9.558190e-01
-1.323781e+00
-1.738722e+00
-2.197391e+00
-2.698139e+00
-3.240115e+00
-3.822169e+00
-4.443963e+00
-5.105254e+00
-5.805797e+00
-6.545628e+00
-7.324818e+00
-8.143508e+00
-9.001972e+00
-9.900562e+00
-1.083961e+01
-1.181934e+01
-1.283996e+01
-1.390132e+01
-1.500167e+01
-1.613639e+01
-1.729793e+01
-1.847622e+01
-1.965890e+01
-2.083113e+01
-2.197565e+01
-2.307222e+01
-2.409796e+01
-2.502856e+01
0.000000e+00
-1.520980e-01
-3.589674e-01
-6.356200e-01
-9.635031e-01
-1.339056e+00
-1.761869e+00
-2.225679e+00
-2.730722e+00
-3.276137e+00
-3.860616e+00
-4.484479e+00
-5.147448e+00
-5.849299e+00
-6.590162e+00
-7.370046e+00
-8.189005e+00
-9.047210e+00
-9.944946e+00
-1.088237e+01
-1.185953e+01
-1.287697e+01
-1.393515e+01
-1.503218e+01
-1.616224e+01
-1.731602e+01
-1.848218e+01
-1.964799e+01
-2.079954e+01
-2.192191e+01
-2.299957e+01
-2.401710e+01
-2.495953e+01
0.000000e+00
-1.346468e-01
-3.469604e-01
-6.400066e-01
-9.806509e-01
-1.365610e+00
-1.796019e+00
-2.265718e+00
-2.774396e+00
-3.322977e+00
-3.909812e+00
-4.535381e+00
-5.199939e+00
-5.902968e+00
-6.644717e+00
-7.425222e+00
-8.244301e+00
-9.102050e+00
-9.998661e+00
-1.093408e+01
-1.190825e+01
-1.292217e+01
-1.397697e+01
-1.507055e+01
-1.619576e+01
-1.734195e+01
-1.849703e+01
-1.964843e+01
-2.078324e+01
-2.188871e+01
-2.295335e+01
-2.396847e+01
-2.492892e+01
0.000000e+00
-1.271491e-01
-3.656721e-01
-6.712663e-01
-1.023506e+00
-1.414445e+00
-1.848684e+00
-2.321813e+00
-2.832379e+00
-3.382413e+00
-3.970546e+00
-4.597020e+00
-5.262418e+00
-5.966172e+00
-6.708487e+00
-7.489411e+00
-8.308607e+00
-9.166047e+00
-1.006176e+01
-1.099556e+01
-1.196743e+01
-1.297859e+01
-1.403030e+01
-1.511995e+01
-1.623940e+01
-1.737736e+01
-1.852181e+01
-1.966064e+01
-2.078182e+01
-2.187419e+01
-2.292926e+01
-2.394390e+01
-2.492306e+01
0.000000e+00
-1.587922e-01
-4.244884e-01
-7.338276e-01
-1.089833e+00
-1.482931e+00
-1.918668e+00
-2.392496e+00
-2.903880e+00
-3.454288e+00
-4.042698e+00
-4.669510e+00
-5.335067e+00
-6.038994e+00
-6.781454e+00
-7.562401e+00
-8.381514e+00
-9.238682e+00
-1.013376e+01
-1.106655e+01
-1.203725e+01
-1.304702e+01
-1.409623e+01
-1.518113e+01
-1.629312e+01
-1.742142e+01
-1.855485e+01
-1.968205e+01
-2.079177e+01
-2.187383e+01
-2.292145e+01
-2.393499e+01
-2.492714e+01
0.000000e+00
-2.532701e-01
-5.051060e-01
-8.201673e-01
-1.173124e+00
-1.566759e+00
-2.003343e+00
-2.475927e+00
-2.987816e+00
-3.538327e+00
-4.126300e+00
-4.753257e+00
-5.418657e+00
-6.122322e+00
-6.864662e+00
-7.645304e+00
-8.464041e+00
-9.320839e+00
-1.021539e+01
-1.114749e+01
-1.211768e+01
-1.312684e+01
-1.417363e+01