TITLE = "Solution"
VARIABLES = x, y, u, v, psiu, psiv, t, stress
ZONE T="structure" N=561 E=512 F=FEBLOCK ET=QUADRILATERAL VARLOCATION=([7,8]=cellcentered)
0.000000e+00
6.250000e+00
1.250000e+01
1.875000e+01
2.500000e+01
3.125000e+01
3.750000e+01
4.375000e+01
5.000000e+01
5.625000e+01
6.250000e+01
6.875000e+01
7.500000e+01
8.125000e+01
8.750000e+01
9.375000e+01
1.000000e+02
1.062500e+02
1.125000e+02
1.187500e+02
1.250000e+02
1.312500e+02
1.375000e+02
1.437500e+02
1.500000e+02
1.562500e+02
1.625000e+02
1.687500e+02
1.750000e+02
1.812500e+02
1.875000e+02
1.937500e+02
2.000000e+02
0.000000e+00
6.250000e+00
1.250000e+01
1.875000e+01
2.500000e+01
3.125000e+01
3.750000e+01
4.375000e+01
5.000000e+01
5.625000e+01
6.250000e+01
6.875000e+01
7.500000e+01
8.125000e+01
8.750000e+01
9.375000e+01
1.000000e+02
1.062500e+02
1.125000e+02
1.187500e+02
1.250000e+02
1.312500e+02
1.375000e+02
1.437500e+02
1.500000e+02
1.562500e+02
1.625000e+02
1.687500e+02
1.750000e+02
1.812500e+02
1.875000e+02
1.937500e+02
2.000000e+02
0.000000e+00
6.250000e+00
1.250000e+01
1.875000e+01
2.500000e+01
3.125000e+01
3.750000e+01
4.375000e+01
5.000000e+01
5.625000e+01
6.250000e+01
6.875000e+01
7.500000e+01
8.125000e+01
8.750000e+01
9.375000e+01
1.000000e+02
1.062500e+02
1.125000e+02
1.187500e+02
1.250000e+02
1.312500e+02
1.375000e+02
1.437500e+02
1.500000e+02
1.562500e+02
1.625000e+02
1.687500e+02
1.750000e+02
1.812500e+02
1.875000e+02
1.937500e+02
2.000000e+02
0.000000e+00
6.250000e+00
1.250000e+01
1.875000e+01
2.500000e+01
3.125000e+01
3.750000e+01
4.375000e+01
5.000000e+01
5.625000e+01
6.250000e+01
6.875000e+01
7.500000e+01
8.125000e+01
8.750000e+01
9.375000e+01
1.000000e+02
1.062500e+02
1.125000e+02
1.187500e+02
1.250000e+02
1.312500e+02
1.375000e+02
1.437500e+02
1.500000e+02
1.562500e+02
1.625000e+02
1.687500e+02
1.750000e+02
1.812500e+02
1.875000e+02
1.937500e+02
2.000000e+02
0.000000e+00
6.250000e+00
1.250000e+01
1.875000e+01
2.500000e+01
3.125000e+01
3.750000e+01
4.375000e+01
5.000000e+01
5.625000e+01
6.250000e+01
6.875000e+01
7.500000e+01
8.125000e+01
8.750000e+01
9.375000e+01
1.000000e+02
1.062500e+02
1.125000e+02
1.187500e+02
1.250000e+02
1.312500e+02
1.375000e+02
1.437500e+02
1.500000e+02
1.562500e+02
1.625000e+02
1.687500e+02
1.750000e+02
1.812500e+02
1.875000e+02
1.937500e+02
2.000000e+02
0.000000e+00
6.250000e+00
1.250000e+01
1.875000e+01
2.500000e+01
3.125000e+01
3.750000e+01
4.375000e+01
5.000000e+01
5.625000e+01
6.250000e+01
6.875000e+01
7.500000e+01
8.125000e+01
8.750000e+01
9.375000e+01
1.000000e+02
1.062500e+02
1.125000e+02
1.187500e+02
1.250000e+02
1.312500e+02
1.375000e+02
1.437500e+02
1.500000e+02
1.562500e+02
1.625000e+02
1.687500e+02
1.750000e+02
1.812500e+02
1.875000e+02
1.937500e+02
2.000000e+02
0.000000e+00
6.250000e+00
1.250000e+01
1.875000e+01
2.500000e+01
3.125000e+01
3.750000e+01
4.375000e+01
5.000000e+01
5.625000e+01
6.250000e+01
6.875000e+01
7.500000e+01
8.125000e+01
8.750000e+01
9.375000e+01
1.000000e+02
1.062500e+02
1.125000e+02
1.187500e+02
1.250000e+02
1.312500e+02
1.375000e+02
1.437500e+02
1.500000e+02
1.562500e+02
1.625000e+02
1.687500e+02
1.750000e+02
1.812500e+02
1.875000e+02
1.937500e+02
2.000000e+02
0.000000e+00
6.250000e+00
1.250000e+01
1.875000e+01
2.500000e+01
3.125000e+01
3.750000e+01
4.375000e+01
5.000000e+01
5.625000e+01
6.250000e+01
6.875000e+01
7.500000e+01
8.125000e+01
8.750000e+01
9.375000e+01
1.000000e+02
1.062500e+02
1.125000e+02
1.187500e+02
1.250000e+02
1.312500e+02
1.375000e+02
1.437500e+02
1.500000e+02
1.562500e+02
1.625000e+02
1.687500e+02
1.750000e+02
1.812500e+02
1.875000e+02
1.937500e+02
2.000000e+02
0.000000e+00
6.250000e+00
1.250000e+01
1.875000e+01
2.500000e+01
3.125000e+01
3.750000e+01
4.375000e+01
5.000000e+01
5.625000e+01
6.250000e+01
6.875000e+01
7.500000e+01
8.125000e+01
8.750000e+01
9.375000e+01
1.000000e+02
1.062500e+02
1.125000e+02
1.187500e+02
1.250000e+02
1.312500e+02
1.375000e+02
1.437500e+02
1.500000e+02
1.562500e+02
1.625000e+02
1.687500e+02
1.750000e+02
1.812500e+02
1.875000e+02
1.937500e+02
2.000000e+02
0.000000e+00
6.250000e+00
1.250000e+01
1.875000e+01
2.500000e+01
3.125000e+01
3.750000e+01
4.375000e+01
5.000000e+01
5.625000e+01
6.250000e+01
6.875000e+01
7.500000e+01
8.125000e+01
8.750000e+01
9.375000e+01
1.000000e+02
1.062500e+02
1.125000e+02
1.187500e+02
1.250000e+02
1.312500e+02
1.375000e+02
1.437500e+02
1.500000e+02
1.562500e+02
1.625000e+02
1.687500e+02
1.750000e+02
1.812500e+02
1.875000e+02
1.937500e+02
2.000000e+02
0.000000e+00
6.250000e+00
1.250000e+01
1.875000e+01
2.500000e+01
3.125000e+01
3.750000e+01
4.375000e+01
5.000000e+01
5.625000e+01
6.250000e+01
6.875000e+01
7.500000e+01
8.125000e+01
8.750000e+01
9.375000e+01
1.000000e+02
1.062500e+02
1.125000e+02
1.187500e+02
1.250000e+02
1.312500e+02
1.375000e+02
1.437500e+02
1.500000e+02
1.562500e+02
1.625000e+02
1.687500e+02
1.750000e+02
1.812500e+02
1.875000e+02
1.937500e+02
2.000000e+02
0.000000e+00
6.250000e+00
1.250000e+01
1.875000e+01
2.500000e+01
3.125000e+01
3.750000e+01
4.375000e+01
5.000000e+01
5.625000e+01
6.250000e+01
6.875000e+01
7.500000e+01
8.125000e+01
8.750000e+01
9.375000e+01
1.000000e+02
1.062500e+02
1.125000e+02
1.187500e+02
1.250000e+02
1.312500e+02
1.375000e+02
1.437500e+02
1.500000e+02
1.562500e+02
1.625000e+02
1.687500e+02
1.750000e+02
1.812500e+02
1.875000e+02
1.937500e+02
2.000000e+02
0.000000e+00
6.250000e+00
1.250000e+01
1.875000e+01
2.500000e+01
3.125000e+01
3.750000e+01
4.375000e+01
5.000000e+01
5.625000e+01
6.250000e+01
6.875000e+01
7.500000e+01
8.125000e+01
8.750000e+01
9.375000e+01
1.000000e+02
1.062500e+02
1.125000e+02
1.187500e+02
1.250000e+02
1.312500e+02
1.375000e+02
1.437500e+02
1.500000e+02
1.562500e+02
1.625000e+02
1.687500e+02
1.750000e+02
1.812500e+02
1.875000e+02
1.937500e+02
2.000000e+02
0.000000e+00
6.250000e+00
1.250000e+01
1.875000e+01
2.500000e+01
3.125000e+01
3.750000e+01
4.375000e+01
5.000000e+01
5.625000e+01
6.250000e+01
6.875000e+01
7.500000e+01
8.125000e+01
8.750000e+01
9.375000e+01
1.000000e+02
1.062500e+02
1.125000e+02
1.187500e+02
1.250000e+02
1.312500e+02
1.375000e+02
1.437500e+02
1.500000e+02
1.562500e+02
1.625000e+02
1.687500e+02
1.750000e+02
1.812500e+02
1.875000e+02
1.937500e+02
2.000000e+02
0.000000e+00
6.250000e+00
1.250000e+01
1.875000e+01
2.500000e+01
3.125000e+01
3.750000e+01
4.375000e+01
5.000000e+01
5.625000e+01
6.250000e+01
6.875000e+01
7.500000e+01
8.125000e+01
8.750000e+01
9.375000e+01
1.000000e+02
1.062500e+02
1.125000e+02
1.187500e+02
1.250000e+02
1.312500e+02
1.375000e+02
1.437500e+02
1.500000e+02
1.562500e+02
1.625000e+02
1.687500e+02
1.750000e+02
1.812500e+02
1.875000e+02
1.937500e+02
2.000000e+02
0.000000e+00
6.250000e+00
1.250000e+01
1.875000e+01
2.500000e+01
3.125000e+01
3.750000e+01
4.375000e+01
5.000000e+01
5.625000e+01
6.250000e+01
6.875000e+01
7.500000e+01
8.125000e+01
8.750000e+01
9.375000e+01
1.000000e+02
1.062500e+02
1.125000e+02
1.187500e+02
1.250000e+02
1.312500e+02
1.375000e+02
1.437500e+02
1.500000e+02
1.562500e+02
1.625000e+02
1.687500e+02
1.750000e+02
1.812500e+02
1.875000e+02
1.937500e+02
2.000000e+02
0.000000e+00
6.250000e+00
1.250000e+01
1.875000e+01
2.500000e+01
3.125000e+01
3.750000e+01
4.375000e+01
5.000000e+01
5.625000e+01
6.250000e+01
6.875000e+01
7.500000e+01
8.125000e+01
8.750000e+01
9.375000e+01
1.000000e+02
1.062500e+02
1.125000e+02
1.187500e+02
1.250000e+02
1.312500e+02
1.375000e+02
1.437500e+02
1.500000e+02
1.562500e+02
1.625000e+02
1.687500e+02
1.750000e+02
1.812500e+02
1.875000e+02
1.937500e+02
2.000000e+02
0.000000e+00
0.000000e+00
0.000000e+00
0.000000e+00
0.000000e+00
0.000000e+00
0.000000e+00
0.000000e+00
0.000000e+00
0.000000e+00
0.000000e+00
0.000000e+00
0.000000e+00
0.000000e+00
0.000000e+00
0.000000e+00
0.000000e+00
0.000000e+00
0.000000e+00
0.000000e+00
0.000000e+00
0.000000e+00
0.000000e+00
0.000000e+00
0.000000e+00
0.000000e+00
0.000000e+00
0.000000e+00
0.000000e+00
0.000000e+00
0.000000e+00
0.000000e+00
0.000000e+00
6.250000e+00
6.250000e+00
6.250000e+00
6.250000e+00
6.250000e+00
6.250000e+00
6.250000e+00
6.250000e+00
6.250000e+00
6.250000e+00
6.250000e+00
6.250000e+00
6.250000e+00
6.250000e+00
6.250000e+00
6.250000e+00
6.250000e+00
6.250000e+00
6.250000e+00
6.250000e+00
6.250000e+00
6.250000e+00
6.250000e+00
6.250000e+00
6.250000e+00
6.250000e+00
6.250000e+00
6.250000e+00
6.250000e+00
6.250000e+00
6.250000e+00
6.250000e+00
6.250000e+00
1.250000e+01
1.250000e+01
1.250000e+01
1.250000e+01
1.250000e+01
1.250000e+01
1.250000e+01
1.250000e+01
1.250000e+01
1.250000e+01
1.250000e+01
1.250000e+01
1.250000e+01
1.250000e+01
1.250000e+01
1.250000e+01
1.250000e+01
1.250000e+01
1.250000e+01
1.250000e+01
1.250000e+01
1.250000e+01
1.250000e+01
1.250000e+01
1.250000e+01
1.250000e+01
1.250000e+01
1.250000e+01
1.250000e+01
1.250000e+01
1.250000e+01
1.250000e+01
1.250000e+01
1.875000e+01
1.875000e+01
1.875000e+01
1.875000e+01
1.875000e+01
1.875000e+01
1.875000e+01
1.875000e+01
1.875000e+01
1.875000e+01
1.875000e+01
1.875000e+01
1.875000e+01
1.875000e+01
1.875000e+01
1.875000e+01
1.875000e+01
1.875000e+01
1.875000e+01
1.875000e+01
1.875000e+01
1.875000e+01
1.875000e+01
1.875000e+01
1.875000e+01
1.875000e+01
1.875000e+01
1.875000e+01
1.875000e+01
1.875000e+01
1.875000e+01
1.875000e+01
1.875000e+01
2.500000e+01
2.500000e+01
2.500000e+01
2.500000e+01
2.500000e+01
2.500000e+01
2.500000e+01
2.500000e+01
2.500000e+01
2.500000e+01
2.500000e+01
2.500000e+01
2.500000e+01
2.500000e+01
2.500000e+01
2.500000e+01
2.500000e+01
2.500000e+01
2.500000e+01
2.500000e+01
2.500000e+01
2.500000e+01
2.500000e+01
2.500000e+01
2.500000e+01
2.500000e+01
2.500000e+01
2.500000e+01
2.500000e+01
2.500000e+01
2.500000e+01
2.500000e+01
2.500000e+01
3.125000e+01
3.125000e+01
3.125000e+01
3.125000e+01
3.125000e+01
3.125000e+01
3.125000e+01
3.125000e+01
3.125000e+01
3.125000e+01
3.125000e+01
3.125000e+01
3.125000e+01
3.125000e+01
3.125000e+01
3.125000e+01
3.125000e+01
3.125000e+01
3.125000e+01
3.125000e+01
3.125000e+01
3.125000e+01
3.125000e+01
3.125000e+01
3.125000e+01
3.125000e+01
3.125000e+01
3.125000e+01
3.125000e+01
3.125000e+01
3.125000e+01
3.125000e+01
3.125000e+01
3.750000e+01
3.750000e+01
3.750000e+01
3.750000e+01
3.750000e+01
3.750000e+01
3.750000e+01
3.750000e+01
3.750000e+01
3.750000e+01
3.750000e+01
3.750000e+01
3.750000e+01
3.750000e+01
3.750000e+01
3.750000e+01
3.750000e+01
3.750000e+01
3.750000e+01
3.750000e+01
3.750000e+01
3.750000e+01
3.750000e+01
3.750000e+01
3.750000e+01
3.750000e+01
3.750000e+01
3.750000e+01
3.750000e+01
3.750000e+01
3.750000e+01
3.750000e+01
3.750000e+01
4.375000e+01
4.375000e+01
4.375000e+01
4.375000e+01
4.375000e+01
4.375000e+01
4.375000e+01
4.375000e+01
4.375000e+01
4.375000e+01
4.375000e+01
4.375000e+01
4.375000e+01
4.375000e+01
4.375000e+01
4.375000e+01
4.375000e+01
4.375000e+01
4.375000e+01
4.375000e+01
4.375000e+01
4.375000e+01
4.375000e+01
4.375000e+01
4.375000e+01
4.375000e+01
4.375000e+01
4.375000e+01
4.375000e+01
4.375000e+01
4.375000e+01
4.375000e+01
4.375000e+01
5.000000e+01
5.000000e+01
5.000000e+01
5.000000e+01
5.000000e+01
5.000000e+01
5.000000e+01
5.000000e+01
5.000000e+01
5.000000e+01
5.000000e+01
5.000000e+01
5.000000e+01
5.000000e+01
5.000000e+01
5.000000e+01
5.000000e+01
5.000000e+01
5.000000e+01
5.000000e+01
5.000000e+01
5.000000e+01
5.000000e+01
5.000000e+01
5.000000e+01
5.000000e+01
5.000000e+01
5.000000e+01
5.000000e+01
5.000000e+01
5.000000e+01
5.000000e+01
5.000000e+01
5.625000e+01
5.625000e+01
5.625000e+01
5.625000e+01
5.625000e+01
5.625000e+01
5.625000e+01
5.625000e+01
5.625000e+01
5.625000e+01
5.625000e+01
5.625000e+01
5.625000e+01
5.625000e+01
5.625000e+01
5.625000e+01
5.625000e+01
5.625000e+01
5.625000e+01
5.625000e+01
5.625000e+01
5.625000e+01
5.625000e+01
5.625000e+01
5.625000e+01
5.625000e+01
5.625000e+01
5.625000e+01
5.625000e+01
5.625000e+01
5.625000e+01
5.625000e+01
5.625000e+01
6.250000e+01
6.250000e+01
6.250000e+01
6.250000e+01
6.250000e+01
6.250000e+01
6.250000e+01
6.250000e+01
6.250000e+01
6.250000e+01
6.250000e+01
6.250000e+01
6.250000e+01
6.250000e+01
6.250000e+01
6.250000e+01
6.250000e+01
6.250000e+01
6.250000e+01
6.250000e+01
6.250000e+01
6.250000e+01
6.250000e+01
6.250000e+01
6.250000e+01
6.250000e+01
6.250000e+01
6.250000e+01
6.250000e+01
6.250000e+01
6.250000e+01
6.250000e+01
6.250000e+01
6.875000e+01
6.875000e+01
6.875000e+01
6.875000e+01
6.875000e+01
6.875000e+01
6.875000e+01
6.875000e+01
6.875000e+01
6.875000e+01
6.875000e+01
6.875000e+01
6.875000e+01
6.875000e+01
6.875000e+01
6.875000e+01
6.875000e+01
6.875000e+01
6.875000e+01
6.875000e+01
6.875000e+01
6.875000e+01
6.875000e+01
6.875000e+01
6.875000e+01
6.875000e+01
6.875000e+01
6.875000e+01
6.875000e+01
6.875000e+01
6.875000e+01
6.875000e+01
6.875000e+01
7.500000e+01
7.500000e+01
7.500000e+01
7.500000e+01
7.500000e+01
7.500000e+01
7.500000e+01
7.500000e+01
7.500000e+01
7.500000e+01
7.500000e+01
7.500000e+01
7.500000e+01
7.500000e+01
7.500000e+01
7.500000e+01
7.500000e+01
7.500000e+01
7.500000e+01
7.500000e+01
7.500000e+01
7.500000e+01
7.500000e+01
7.500000e+01
7.500000e+01
7.500000e+01
7.500000e+01
7.500000e+01
7.500000e+01
7.500000e+01
7.500000e+01
7.500000e+01
7.500000e+01
8.125000e+01
8.125000e+01
8.125000e+01
8.125000e+01
8.125000e+01
8.125000e+01
8.125000e+01
8.125000e+01
8.125000e+01
8.125000e+01
8.125000e+01
8.125000e+01
8.125000e+01
8.125000e+01
8.125000e+01
8.125000e+01
8.125000e+01
8.125000e+01
8.125000e+01
8.125000e+01
8.125000e+01
8.125000e+01
8.125000e+01
8.125000e+01
8.125000e+01
8.125000e+01
8.125000e+01
8.125000e+01
8.125000e+01
8.125000e+01
8.125000e+01
8.125000e+01
8.125000e+01
8.750000e+01
8.750000e+01
8.750000e+01
8.750000e+01
8.750000e+01
8.750000e+01
8.750000e+01
8.750000e+01
8.750000e+01
8.750000e+01
8.750000e+01
8.750000e+01
8.750000e+01
8.750000e+01
8.750000e+01
8.750000e+01
8.750000e+01
8.750000e+01
8.750000e+01
8.750000e+01
8.750000e+01
8.750000e+01
8.750000e+01
8.750000e+01
8.750000e+01
8.750000e+01
8.750000e+01
8.750000e+01
8.750000e+01
8.750000e+01
8.750000e+01
8.750000e+01
8.750000e+01
9.375000e+01
9.375000e+01
9.375000e+01
9.375000e+01
9.375000e+01
9.375000e+01
9.375000e+01
9.375000e+01
9.375000e+01
9.375000e+01
9.375000e+01
9.375000e+01
9.375000e+01
9.375000e+01
9.375000e+01
9.375000e+01
9.375000e+01
9.375000e+01
9.375000e+01
9.375000e+01
9.375000e+01
9.375000e+01
9.375000e+01
9.375000e+01
9.375000e+01
9.375000e+01
9.375000e+01
9.375000e+01
9.375000e+01
9.375000e+01
9.375000e+01
9.375000e+01
9.375000e+01
1.000000e+02
1.000000e+02
1.000000e+02
1.000000e+02
1.000000e+02
1.000000e+02
1.000000e+02
1.000000e+02
1.000000e+02
1.000000e+02
1.000000e+02
1.000000e+02
1.000000e+02
1.000000e+02
1.000000e+02
1.000000e+02
1.000000e+02
1.000000e+02
1.000000e+02
1.000000e+02
1.000000e+02
1.000000e+02
1.000000e+02
1.000000e+02
1.000000e+02
1.000000e+02
1.000000e+02
1.000000e+02
1.000000e+02
1.000000e+02
1.000000e+02
1.000000e+02
1.000000e+02
0.000000e+00
-3.638148e-01
-6.565341e-01
-9.393151e-01
-1.227247e+00
-1.511600e+00
-1.793125e+00
-2.073648e+00
-2.352661e+00
-2.629318e+00
-2.903183e+00
-3.173799e+00
-3.440492e+00
-3.702415e+00
-3.958604e+00
-4.208013e+00
-4.449580e+00
-4.682336e+00
-4.905516e+00
-5.118665e+00
-5.321713e+00
-5.515042e+00
-5.699540e+00
-5.876676e+00
-6.048596e+00
-6.218282e+00
-6.389788e+00
-6.568661e+00
-6.762748e+00
-6.982810e+00
-7.237439e+00
-7.517360e+00
-7.682205e+00
0.000000e+00
-2.348969e-01
-4.880983e-01
-7.382051e-01
-9.925003e-01
-1.243127e+00
-1.490448e+00
-1.736459e+00
-1.980934e+00
-2.223180e+00
-2.462861e+00
-2.699644e+00
-2.932989e+00
-3.162190e+00
-3.386430e+00
-3.604808e+00
-3.816391e+00
-4.020300e+00
-4.215804e+00
-4.402399e+00
-4.579862e+00
-4.748280e+00
-4.908060e+00
-5.059918e+00
-5.204862e+00
-5.344132e+00
-5.479075e+00
-5.610816e+00
-5.739238e+00
-5.859399e+00
-5.954296e+00
-6.006045e+00
-6.074807e+00
0.000000e+00
-1.801302e-01
-3.731549e-01
-5.807584e-01
-7.953004e-01
-1.008841e+00
-1.220863e+00
-1.432038e+00
-1.641906e+00
-1.849884e+00
-2.055624e+00
-2.258768e+00
-2.458820e+00
-2.655170e+00
-2.847110e+00
-3.033864e+00
-3.214616e+00
-3.388575e+00
-3.555034e+00
-3.713417e+00
-3.863310e+00
-4.004457e+00
-4.136725e+00
-4.260038e+00
-4.374265e+00
-4.479030e+00
-4.573375e+00
-4.655156e+00
-4.719882e+00
-4.759185e+00
-4.765049e+00
-4.755802e+00
-4.831408e+00
0.000000e+00
-1.423409e-01
-2.944877e-01
-4.588525e-01
-6.315595e-01
-8.064140e-01
-9.820108e-01
-1.157615e+00
-1.332410e+00
-1.505793e+00
-1.677330e+00
-1.846586e+00
-2.013075e+00
-2.176245e+00
-2.335486e+00
-2.490127e+00
-2.639463e+00
-2.782781e+00
-2.919396e+00
-3.048669e+00
-3.170014e+00
-3.282874e+00
-3.386676e+00
-3.480737e+00
-3.564144e+00
-3.635568e+00
-3.693032e+00
-3.733671e+00
-3.753846e+00
-3.751145e+00
-3.733621e+00
-3.734092e+00
-3.806145e+00
0.000000e+00
-1.131310e-01
-2.320571e-01
-3.589108e-01
-4.919478e-01
-6.288101e-01
-7.676404e-01
-9.071547e-01
-1.046420e+00
-1.184777e+00
-1.321703e+00
-1.456721e+00
-1.589359e+00
-1.719123e+00
-1.845481e+00
-1.967861e+00
-2.085648e+00
-2.198201e+00
-2.304858e+00
-2.404946e+00
-2.497766e+00
-2.582575e+00
-2.658544e+00
-2.724694e+00
-2.779827e+00
-2.822472e+00
-2.850921e+00
-2.863570e+00
-2.860108e+00
-2.844873e+00
-2.833585e+00
-2.855095e+00
-2.922047e+00
0.000000e+00
-8.470274e-02
-1.731463e-01
-2.661808e-01
-3.636764e-01
-4.644671e-01
-5.673295e-01
-6.711441e-01
-7.750610e-01
-8.784434e-01
-9.807766e-01
-1.081609e+00
-1.180515e+00
-1.277066e+00
-1.370809e+00
-1.461257e+00
-1.547881e+00
-1.630107e+00
-1.707317e+00
-1.778844e+00
-1.843964e+00
-1.901887e+00
-1.951737e+00
-1.992546e+00
-2.023271e+00
-2.042896e+00
-2.050716e+00
-2.047019e+00
-2.034513e+00
-2.020812e+00
-2.020752e+00
-2.050020e+00
-2.110904e+00
0.000000e+00
-5.637430e-02
-1.150277e-01
-1.764407e-01
-2.405936e-01
-3.070034e-01
-3.749531e-01
-4.437187e-01
-5.126798e-01
-5.813376e-01
-6.492798e-01
-7.161440e-01
-7.815888e-01
-8.452705e-01
-9.068248e-01
-9.658529e-01
-1.021912e+00
-1.074508e+00
-1.123093e+00
-1.167059e+00
-1.205742e+00
-1.238429e+00
-1.264370e+00
-1.282831e+00
-1.293185e+00
-1.295124e+00
-1.289044e+00
-1.276725e+00
-1.262343e+00
-1.253491e+00
-1.260400e+00
-1.290964e+00
-1.343312e+00
0.000000e+00
-2.818786e-02
-5.748855e-02
-8.809939e-02
-1.200196e-01
-1.530499e-01
-1.868719e-01
-2.211300e-01
-2.554959e-01
-2.896872e-01
-3.234587e-01
-3.565851e-01
-3.888436e-01
-4.199987e-01
-4.497890e-01
-4.779166e-01
-5.040382e-01
-5.277598e-01
-5.486343e-01
-5.661649e-01
-5.798170e-01
-5.890421e-01
-5.933252e-01
-5.922680e-01
-5.857313e-01
-5.740679e-01
-5.584733e-01
-5.414504e-01
-5.272557e-01
-5.218530e-01
-5.315115e-01
-5.594490e-01
-6.022902e-01
0.000000e+00
-1.125028e-04
-2.318973e-04
-3.525856e-04
-4.687763e-04
-5.730338e-04
-6.544962e-04
-6.972120e-04
-6.784431e-04
-5.664338e-04
-3.173317e-04
1.288333e-04
8.530965e-04
1.963277e-03
3.600089e-03
5.943005e-03
9.214935e-03
1.368440e-02
1.966329e-02
2.749740e-02
3.754575e-02
5.014265e-02
6.553442e-02
8.378020e-02
1.046056e-01
1.272025e-01
1.499884e-01
1.703886e-01
1.848091e-01
1.891002e-01
1.798685e-01
1.565321e-01
1.229745e-01
0.000000e+00
2.797105e-02
5.704151e-02
8.741940e-02
1.191143e-01
1.519408e-01
1.856013e-01
2.197707e-01
2.541642e-01
2.885591e-01
3.227929e-01
3.567533e-01
3.903697e-01
4.236096e-01
4.564764e-01
4.890105e-01
5.212898e-01
5.534285e-01
5.855723e-01
6.178855e-01
6.505260e-01
6.836035e-01
7.171129e-01
7.508403e-01
7.842388e-01
8.162856e-01
8.453547e-01
8.691801e-01
8.850382e-01
8.903094e-01
8.835058e-01
8.655308e-01
8.404722e-01
0.000000e+00
5.618223e-02
1.146310e-01
1.758362e-01
2.397847e-01
3.060045e-01
3.737967e-01
4.424644e-01
5.114239e-01
5.802265e-01
6.485277e-01
7.160580e-01
7.826008e-01
8.479788e-01
9.120447e-01
9.746782e-01
1.035784e+00
1.095293e+00
1.153155e+00
1.209328e+00
1.263760e+00
1.316350e+00
1.366886e+00
1.414975e+00
1.459948e+00
1.500770e+00
1.535998e+00
1.563835e+00
1.582387e+00
1.590179e+00
1.586931e+00
1.574400e+00
1.556863e+00
0.000000e+00
8.455325e-02
1.728352e-01
2.657023e-01
3.630269e-01
4.636503e-01
5.663635e-01
6.700679e-01
7.739404e-01
8.773789e-01
9.799152e-01
1.081161e+00
1.180773e+00
1.278435e+00
1.373838e+00
1.466678e+00
1.556658e+00
1.643491e+00
1.726899e+00
1.806617e+00
1.882378e+00
1.953887e+00
2.020782e+00
2.082577e+00
2.138602e+00
2.187958e+00
2.229511e+00
2.261984e+00
2.284196e+00
2.295488e+00
2.296325e+00
2.288946e+00
2.277845e+00
0.000000e+00
1.130478e-01
2.318731e-01
3.586103e-01
4.915191e-01
6.282491e-01
7.669505e-01
9.063496e-01
1.045527e+00
1.183842e+00
1.320793e+00
1.455930e+00
1.588818e+00
1.719009e+00
1.846023e+00
1.969354e+00
2.088466e+00
2.202817e+00
2.311870e+00
2.415112e+00
2.512052e+00
2.602219e+00
2.685134e+00
2.760282e+00
2.827074e+00
2.884833e+00
2.932805e+00
2.970242e+00
2.996591e+00
3.011799e+00
3.016782e+00
3.014012e+00
3.008156e+00
0.000000e+00
1.423582e-01
2.944840e-01
4.587840e-01
6.314088e-01
8.061866e-01
9.817055e-01
1.157219e+00
1.331909e+00
1.505178e+00
1.676589e+00
1.845704e+00
2.012024e+00
2.174976e+00
2.333907e+00
2.488080e+00
2.636692e+00
2.778906e+00
2.913890e+00
3.040851e+00
3.159064e+00
3.267873e+00
3.366694e+00
3.455000e+00
3.532311e+00
3.598201e+00
3.652322e+00
3.694472e+00
3.724707e+00
3.743533e+00
3.752205e+00
3.753243e+00
3.751293e+00
0.000000e+00
1.802720e-01
3.733730e-01
5.809671e-01
7.954778e-01
1.009026e+00
1.221070e+00
1.432238e+00
1.642052e+00
1.849925e+00
2.055494e+00
2.258369e+00
2.458003e+00
2.653703e+00
2.844635e+00
3.029823e+00
3.208171e+00
3.378522e+00
3.539718e+00
3.690662e+00
3.830360e+00
3.957945e+00
4.072691e+00
4.174017e+00
4.261509e+00
4.334947e+00
4.394359e+00
4.440088e+00
4.472865e+00
4.493883e+00
4.504891e+00
4.508475e+00
4.508896e+00
0.000000e+00
2.351551e-01
4.885247e-01
7.386814e-01
9.930161e-01
1.243766e+00
1.491258e+00
1.737415e+00
1.981982e+00
2.224265e+00
2.463908e+00
2.700531e+00
2.933517e+00
3.162041e+00
3.385087e+00
3.601442e+00
3.809732e+00
4.008484e+00
4.196213e+00
4.371505e+00
4.533070e+00
4.679777e+00
4.810675e+00
4.925020e+00
5.022322e+00
5.102417e+00
5.165566e+00
5.212579e+00
5.244920e+00
5.264761e+00
5.274909e+00
5.278591e+00
5.279492e+00
0.000000e+00
3.641335e-01
6.570678e-01
9.399761e-01
1.228058e+00
1.512680e+00
1.794551e+00
2.075430e+00
2.354783e+00
2.631774e+00
2.905953e+00
3.176826e+00
3.443640e+00
3.705415e+00
3.960949e+00
4.208818e+00
4.447402e+00
4.674962e+00
4.889731e+00
5.089996e+00
5.274155e+00
5.440743e+00
5.588463e+00
5.716222e+00
5.823203e+00
5.908991e+00
5.973752e+00
6.018462e+00
6.045173e+00
6.057249e+00
6.059476e+00
6.057685e+00
6.056670e+00
0.000000e+00
-2.251543e-01
-4.087859e-01
-6.212458e-01
-8.611860e-01
-1.131210e+00
-1.434586e+00
-1.772389e+00
-2.144681e+00
-2.551563e+00
-2.993001e+00
-3.468695e+00
-3.978135e+00
-4.520650e+00
-5.095399e+00
-5.701377e+00
-6.337431e+00
-7.002293e+00
-7.694631e+00
-8.413099e+00
-9.156419e+00
-9.923481e+00
-1.071348e+01
-1.152611e+01
-1.236186e+01
-1.322246e+01
-1.411158e+01
-1.503600e+01
-1.600773e+01
-1.704882e+01
-1.820730e+01
-1.959952e+01
-2.149655e+01
0.000000e+00
-1.403747e-01
-3.319611e-01
-5.413838e-01
-7.808798e-01
-1.051727e+00
-1.355609e+00
-1.693735e+00
-2.066573e+00
-2.474192e+00
-2.916489e+00
-3.393197e+00
-3.903864e+00
-4.447858e+00
-5.024370e+00
-5.632410e+00
-6.270821e+00
-6.938298e+00
-7.633444e+00
-8.354826e+00
-9.101062e+00
-9.870926e+00
-1.066349e+01
-1.147831e+01
-1.231575e+01
-1.317736e+01
-1.406667e+01
-1.499032e+01
-1.596041e+01
-1.699999e+01
-1.815548e+01
-1.952085e+01
-2.128332e+01
0.000000e+00
-1.045521e-01
-2.719040e-01
-4.764677e-01
-7.134408e-01
-9.837822e-01
-1.287675e+00
-1.625957e+00
-1.999180e+00
-2.407403e+00
-2.850469e+00
-3.328109e+00
-3.839901e+00
-4.385242e+00
-4.963349e+00
-5.573247e+00
-6.213782e+00
-6.883634e+00
-7.581370e+00
-8.305510e+00
-9.054616e+00
-9.827407e+00
-1.062291e+01
-1.144064e+01
-1.228096e+01
-1.314546e+01
-1.403776e+01
-1.496480e+01
-1.593927e+01
-1.698358e+01
-1.813077e+01
-1.940802e+01
-2.079759e+01
0.000000e+00
-8.829977e-02
-2.362258e-01
-4.292073e-01
-6.610744e-01
-9.288378e-01
-1.231621e+00
-1.569545e+00
-1.942849e+00
-2.351472e+00
-2.795191e+00
-3.273699e+00
-3.786561e+00
-4.333182e+00
-4.912790e+00
-5.524426e+00
-6.166943e+00
-6.839029e+00
-7.539248e+00
-8.266112e+00
-9.018174e+00
-9.794147e+00
-1.059306e+01
-1.141446e+01
-1.225871e+01
-1.312745e+01
-1.402423e+01
-1.495567e+01
-1.593298e+01
-1.697241e+01
-1.808368e+01
-1.924302e+01
-2.031732e+01
0.000000e+00
-8.084396e-02
-2.159037e-01
-3.984471e-01
-6.233560e-01
-8.870988e-01
-1.187756e+00
-1.524726e+00
-1.897749e+00
-2.306546e+00
-2.750783e+00
-3.230076e+00
-3.743948e+00
-4.291786e+00
-4.872818e+00
-5.486095e+00
-6.130490e+00
-6.804709e+00
-7.507338e+00
-8.236908e+00
-8.991988e+00
-9.771304e+00
-1.057388e+01
-1.139926e+01
-1.224772e+01
-1.312065e+01
-1.402099e+01
-1.495376e+01
-1.592616e+01
-1.694463e+01
-1.800075e+01
-1.904550e+01
-1.998297e+01
0.000000e+00
-7.600925e-02
-2.035371e-01
-3.786069e-01
-5.975319e-01
-8.571334e-01
-1.155369e+00
-1.491085e+00
-1.863606e+00
-2.272417e+00
-2.717052e+00
-3.197034e+00
-3.711829e+00
-4.260797e+00
-4.843161e+00
-5.457980e+00
-6.104146e+00
-6.780395e+00
-7.485342e+00
-8.217544e+00
-8.975583e+00
-9.758175e+00
-1.056430e+01
-1.139335e+01
-1.224533e+01
-1.312103e+01
-1.402213e+01
-1.495109e+01
-1.590997e+01
-1.689637e+01
-1.789172e+01
-1.885136e+01
-1.971142e+01
0.000000e+00
-7.279349e-02
-1.958066e-01
-3.660992e-01
-5.807595e-01
-8.371616e-01
-1.133320e+00
-1.467874e+00
-1.839887e+00
-2.248663e+00
-2.693613e+00
-3.174182e+00
-3.689788e+00
-4.239766e+00
-4.823334e+00
-5.439562e+00
-6.087363e+00
-6.765499e+00
-7.472610e+00
-8.207264e+00
-8.968030e+00
-9.753562e+00
-1.056270e+01
-1.139458e+01
-1.224870e+01
-1.312494e+01
-1.402340e+01
-1.494373e+01
-1.588359e+01
-1.683479e+01
-1.777698e+01
-1.867495e+01
-1.948563e+01
0.000000e+00
-7.096704e-02
-1.914884e-01
-3.591095e-01
-5.713046e-01
-8.257579e-01
-1.120589e+00
-1.454375e+00
-1.826062e+00
-2.234847e+00
-2.680068e+00
-3.161122e+00
-3.677398e+00
-4.228224e+00
-4.812821e+00
-5.430273e+00
-6.079513e+00
-6.759321e+00
-7.468346e+00
-8.205143e+00
-8.968225e+00
-9.756128e+00
-1.056747e+01
-1.140100e+01
-1.225557e+01
-1.313005e+01
-1.402293e+01
-1.493156e+01
-1.585063e+01
-1.676961e+01
-1.766980e+01
-1.852439e+01
-1.930355e+01
0.000000e+00
-7.036803e-02
-1.900876e-01
-3.568556e-01
-5.682636e-01
-8.220956e-01
-1.116515e+00
-1.450091e+00
-1.821745e+00
-2.230644e+00
-2.676112e+00
-3.157538e+00
-3.674316e+00
-4.225783e+00
-4.811178e+00
-5.429605e+00
-6.080012e+00
-6.761188e+00
-7.471772e+00
-8.210274e+00
-8.975114e+00
-9.764657e+00
-1.057723e+01
-1.141114e+01
-1.226456e+01
-1.313538e+01
-1.402078e+01
-1.491651e+01
-1.581579e+01
-1.670781e+01
-1.757658e+01
-1.840173e+01
-1.916163e+01
0.000000e+00
-7.094215e-02
-1.914652e-01
-3.591136e-01
-5.713629e-01
-8.259031e-01
-1.120864e+00
-1.454835e+00
-1.826777e+00
-2.235908e+00
-2.681593e+00
-3.163259e+00
-3.680335e+00
-4.232192e+00
-4.818097e+00
-5.437180e+00
-6.088403e+00
-6.770552e+00
-7.482236e+00
-8.221899e+00
-8.987838e+00
-9.778211e+00
-1.059104e+01
-1.142416e+01
-1.227514e+01
-1.314103e+01
-1.401808e+01
-1.490113e+01
-1.578295e+01
-1.665350e+01
-1.749956e+01
-1.830553e+01
-1.905514e+01
0.000000e+00
-7.274442e-02
-1.957618e-01
-3.661072e-01
-5.808703e-01
-8.374379e-01
-1.133844e+00
-1.468753e+00
-1.841257e+00
-2.250698e+00
-2.696536e+00
-3.178279e+00
-3.695417e+00
-4.247371e+00
-4.833449e+00
-5.452806e+00
-6.104418e+00
-6.787058e+00
-7.499295e+00
-8.239491e+00
-9.005804e+00
-9.796186e+00
-1.060835e+01
-1.143973e+01
-1.228735e+01
-1.314767e+01
-1.401630e+01
-1.488771e+01
-1.575482e+01
-1.660874e+01
-1.743881e+01
-1.823312e+01
-1.897933e+01
0.000000e+00
-7.593776e-02
-2.034751e-01
-3.786196e-01
-5.976849e-01
-8.575143e-01
-1.156096e+00
-1.492310e+00
-1.865519e+00
-2.275262e+00
-2.721139e+00
-3.202761e+00
-3.719696e+00
-4.271425e+00
-4.857298e+00
-5.476499e+00
-6.128008e+00
-6.810584e+00
-7.522749e+00
-8.262780e+00
-9.028707e+00
-9.818289e+00
-1.062898e+01
-1.145787e+01
-1.230159e+01
-1.315615e+01
-1.401684e+01
-1.487802e+01
-1.573304e+01
-1.657427e+01
-1.739333e+01
-1.818141e+01
-1.892957e+01
0.000000e+00
-8.075438e-02
-2.158334e-01
-3.984674e-01
-6.235383e-01
-8.875499e-01
-1.188625e+00
-1.526200e+00
-1.900060e+00
-2.309985e+00
-2.755726e+00
-3.237000e+00
-3.753456e+00
-4.304629e+00
-4.889903e+00
-5.508481e+00
-6.159346e+00
-6.841238e+00
-7.552635e+00
-8.291745e+00
-9.056488e+00
-9.844476e+00
-1.065297e+01
-1.147879e+01
-1.231830e+01
-1.316725e+01
-1.402072e+01
-1.487316e+01
-1.571841e+01
-1.655001e+01
-1.736154e+01
-1.814706e+01
-1.890106e+01
0.000000e+00
-8.820349e-02
-2.361605e-01
-4.292394e-01
-6.612744e-01
-9.293277e-01
-1.232573e+00
-1.571170e+00
-1.945402e+00
-2.355275e+00
-2.800657e+00
-3.281353e+00
-3.797068e+00
-4.347368e+00
-4.931653e+00
-5.549130e+00
-6.198777e+00
-6.879315e+00
-7.589191e+00
-8.326562e+00
-9.089283e+00
-9.874869e+00
-1.068045e+01
-1.150272e+01
-1.233784e+01
-1.318142e+01
-1.402850e+01
-1.487360e+01
-1.571104e+01
-1.653526e+01
-1.734154e+01
-1.812655e+01
-1.888861e+01
0.000000e+00
-1.044724e-01
-2.718602e-01
-4.765154e-01
-7.136544e-01
-9.842957e-01
-1.288671e+00
-1.627656e+00
-2.001847e+00
-2.411372e+00
-2.856168e+00
-3.336084e+00
-3.850836e+00
-4.399986e+00
-4.982923e+00
-5.598837e+00
-6.246688e+00
-6.925180e+00
-7.632742e+00
-8.367517e+00
-9.127333e+00
-9.909673e+00
-1.071162e+01
-1.152980e+01
-1.236031e+01
-1.319873e+01
-1.404009e+01
-1.487907e+01
-1.571027e+01
-1.652881e+01
-1.733116e+01
-1.811623e+01
-1.888641e+01
0.000000e+00
-1.403447e-01
-3.319525e-01
-5.414493e-01
-7.811151e-01
-1.052276e+00
-1.356650e+00
-1.695482e+00
-2.069291e+00
-2.478219e+00
-2.922252e+00
-3.401238e+00
-3.914858e+00
-4.462633e+00
-5.043910e+00
-5.657840e+00
-6.303350e+00
-6.979128e+00
-7.683604e+00
-8.414927e+00
-9.170943e+00
-9.949151e+00
-1.074665e+01
-1.156008e+01
-1.238557e+01
-1.321874e+01
-1.405471e+01
-1.488832e+01
-1.571442e+01
-1.652853e+01
-1.732779e+01
-1.811250e+01
-1.888823e+01
0.000000e+00
-2.252048e-01
-4.088211e-01
-6.213392e-01
-8.614668e-01
-1.131831e+00
-1.435708e+00
-1.774212e+00
-2.147470e+00
-2.555655e+00
-2.998818e+00
-3.476761e+00
-3.989101e+00
-4.535297e+00
-5.114634e+00
-5.726205e+00
-6.368894e+00
-7.041370e+00
-7.742064e+00
-8.469153e+00
-9.220517e+00
-9.993696e+00
-1.078584e+01