TITLE = "Solution"
VARIABLES = x, y, u, v, psiu, psiv, t, stress
ZONE T="structure" N=561 E=512 F=FEBLOCK ET=QUADRILATERAL VARLOCATION=([7,8]=cellcentered)
0.000000e+00
6.250000e+00
1.250000e+01
1.875000e+01
2.500000e+01
3.125000e+01
3.750000e+01
4.375000e+01
5.000000e+01
5.625000e+01
6.250000e+01
6.875000e+01
7.500000e+01
8.125000e+01
8.750000e+01
9.375000e+01
1.000000e+02
1.062500e+02
1.125000e+02
1.187500e+02
1.250000e+02
1.312500e+02
1.375000e+02
1.437500e+02
1.500000e+02
1.562500e+02
1.625000e+02
1.687500e+02
1.750000e+02
1.812500e+02
1.875000e+02
1.937500e+02
2.000000e+02
0.000000e+00
6.250000e+00
1.250000e+01
1.875000e+01
2.500000e+01
3.125000e+01
3.750000e+01
4.375000e+01
5.000000e+01
5.625000e+01
6.250000e+01
6.875000e+01
7.500000e+01
8.125000e+01
8.750000e+01
9.375000e+01
1.000000e+02
1.062500e+02
1.125000e+02
1.187500e+02
1.250000e+02
1.312500e+02
1.375000e+02
1.437500e+02
1.500000e+02
1.562500e+02
1.625000e+02
1.687500e+02
1.750000e+02
1.812500e+02
1.875000e+02
1.937500e+02
2.000000e+02
0.000000e+00
6.250000e+00
1.250000e+01
1.875000e+01
2.500000e+01
3.125000e+01
3.750000e+01
4.375000e+01
5.000000e+01
5.625000e+01
6.250000e+01
6.875000e+01
7.500000e+01
8.125000e+01
8.750000e+01
9.375000e+01
1.000000e+02
1.062500e+02
1.125000e+02
1.187500e+02
1.250000e+02
1.312500e+02
1.375000e+02
1.437500e+02
1.500000e+02
1.562500e+02
1.625000e+02
1.687500e+02
1.750000e+02
1.812500e+02
1.875000e+02
1.937500e+02
2.000000e+02
0.000000e+00
6.250000e+00
1.250000e+01
1.875000e+01
2.500000e+01
3.125000e+01
3.750000e+01
4.375000e+01
5.000000e+01
5.625000e+01
6.250000e+01
6.875000e+01
7.500000e+01
8.125000e+01
8.750000e+01
9.375000e+01
1.000000e+02
1.062500e+02
1.125000e+02
1.187500e+02
1.250000e+02
1.312500e+02
1.375000e+02
1.437500e+02
1.500000e+02
1.562500e+02
1.625000e+02
1.687500e+02
1.750000e+02
1.812500e+02
1.875000e+02
1.937500e+02
2.000000e+02
0.000000e+00
6.250000e+00
1.250000e+01
1.875000e+01
2.500000e+01
3.125000e+01
3.750000e+01
4.375000e+01
5.000000e+01
5.625000e+01
6.250000e+01
6.875000e+01
7.500000e+01
8.125000e+01
8.750000e+01
9.375000e+01
1.000000e+02
1.062500e+02
1.125000e+02
1.187500e+02
1.250000e+02
1.312500e+02
1.375000e+02
1.437500e+02
1.500000e+02
1.562500e+02
1.625000e+02
1.687500e+02
1.750000e+02
1.812500e+02
1.875000e+02
1.937500e+02
2.000000e+02
0.000000e+00
6.250000e+00
1.250000e+01
1.875000e+01
2.500000e+01
3.125000e+01
3.750000e+01
4.375000e+01
5.000000e+01
5.625000e+01
6.250000e+01
6.875000e+01
7.500000e+01
8.125000e+01
8.750000e+01
9.375000e+01
1.000000e+02
1.062500e+02
1.125000e+02
1.187500e+02
1.250000e+02
1.312500e+02
1.375000e+02
1.437500e+02
1.500000e+02
1.562500e+02
1.625000e+02
1.687500e+02
1.750000e+02
1.812500e+02
1.875000e+02
1.937500e+02
2.000000e+02
0.000000e+00
6.250000e+00
1.250000e+01
1.875000e+01
2.500000e+01
3.125000e+01
3.750000e+01
4.375000e+01
5.000000e+01
5.625000e+01
6.250000e+01
6.875000e+01
7.500000e+01
8.125000e+01
8.750000e+01
9.375000e+01
1.000000e+02
1.062500e+02
1.125000e+02
1.187500e+02
1.250000e+02
1.312500e+02
1.375000e+02
1.437500e+02
1.500000e+02
1.562500e+02
1.625000e+02
1.687500e+02
1.750000e+02
1.812500e+02
1.875000e+02
1.937500e+02
2.000000e+02
0.000000e+00
6.250000e+00
1.250000e+01
1.875000e+01
2.500000e+01
3.125000e+01
3.750000e+01
4.375000e+01
5.000000e+01
5.625000e+01
6.250000e+01
6.875000e+01
7.500000e+01
8.125000e+01
8.750000e+01
9.375000e+01
1.000000e+02
1.062500e+02
1.125000e+02
1.187500e+02
1.250000e+02
1.312500e+02
1.375000e+02
1.437500e+02
1.500000e+02
1.562500e+02
1.625000e+02
1.687500e+02
1.750000e+02
1.812500e+02
1.875000e+02
1.937500e+02
2.000000e+02
0.000000e+00
6.250000e+00
1.250000e+01
1.875000e+01
2.500000e+01
3.125000e+01
3.750000e+01
4.375000e+01
5.000000e+01
5.625000e+01
6.250000e+01
6.875000e+01
7.500000e+01
8.125000e+01
8.750000e+01
9.375000e+01
1.000000e+02
1.062500e+02
1.125000e+02
1.187500e+02
1.250000e+02
1.312500e+02
1.375000e+02
1.437500e+02
1.500000e+02
1.562500e+02
1.625000e+02
1.687500e+02
1.750000e+02
1.812500e+02
1.875000e+02
1.937500e+02
2.000000e+02
0.000000e+00
6.250000e+00
1.250000e+01
1.875000e+01
2.500000e+01
3.125000e+01
3.750000e+01
4.375000e+01
5.000000e+01
5.625000e+01
6.250000e+01
6.875000e+01
7.500000e+01
8.125000e+01
8.750000e+01
9.375000e+01
1.000000e+02
1.062500e+02
1.125000e+02
1.187500e+02
1.250000e+02
1.312500e+02
1.375000e+02
1.437500e+02
1.500000e+02
1.562500e+02
1.625000e+02
1.687500e+02
1.750000e+02
1.812500e+02
1.875000e+02
1.937500e+02
2.000000e+02
0.000000e+00
6.250000e+00
1.250000e+01
1.875000e+01
2.500000e+01
3.125000e+01
3.750000e+01
4.375000e+01
5.000000e+01
5.625000e+01
6.250000e+01
6.875000e+01
7.500000e+01
8.125000e+01
8.750000e+01
9.375000e+01
1.000000e+02
1.062500e+02
1.125000e+02
1.187500e+02
1.250000e+02
1.312500e+02
1.375000e+02
1.437500e+02
1.500000e+02
1.562500e+02
1.625000e+02
1.687500e+02
1.750000e+02
1.812500e+02
1.875000e+02
1.937500e+02
2.000000e+02
0.000000e+00
6.250000e+00
1.250000e+01
1.875000e+01
2.500000e+01
3.125000e+01
3.750000e+01
4.375000e+01
5.000000e+01
5.625000e+01
6.250000e+01
6.875000e+01
7.500000e+01
8.125000e+01
8.750000e+01
9.375000e+01
1.000000e+02
1.062500e+02
1.125000e+02
1.187500e+02
1.250000e+02
1.312500e+02
1.375000e+02
1.437500e+02
1.500000e+02
1.562500e+02
1.625000e+02
1.687500e+02
1.750000e+02
1.812500e+02
1.875000e+02
1.937500e+02
2.000000e+02
0.000000e+00
6.250000e+00
1.250000e+01
1.875000e+01
2.500000e+01
3.125000e+01
3.750000e+01
4.375000e+01
5.000000e+01
5.625000e+01
6.250000e+01
6.875000e+01
7.500000e+01
8.125000e+01
8.750000e+01
9.375000e+01
1.000000e+02
1.062500e+02
1.125000e+02
1.187500e+02
1.250000e+02
1.312500e+02
1.375000e+02
1.437500e+02
1.500000e+02
1.562500e+02
1.625000e+02
1.687500e+02
1.750000e+02
1.812500e+02
1.875000e+02
1.937500e+02
2.000000e+02
0.000000e+00
6.250000e+00
1.250000e+01
1.875000e+01
2.500000e+01
3.125000e+01
3.750000e+01
4.375000e+01
5.000000e+01
5.625000e+01
6.250000e+01
6.875000e+01
7.500000e+01
8.125000e+01
8.750000e+01
9.375000e+01
1.000000e+02
1.062500e+02
1.125000e+02
1.187500e+02
1.250000e+02
1.312500e+02
1.375000e+02
1.437500e+02
1.500000e+02
1.562500e+02
1.625000e+02
1.687500e+02
1.750000e+02
1.812500e+02
1.875000e+02
1.937500e+02
2.000000e+02
0.000000e+00
6.250000e+00
1.250000e+01
1.875000e+01
2.500000e+01
3.125000e+01
3.750000e+01
4.375000e+01
5.000000e+01
5.625000e+01
6.250000e+01
6.875000e+01
7.500000e+01
8.125000e+01
8.750000e+01
9.375000e+01
1.000000e+02
1.062500e+02
1.125000e+02
1.187500e+02
1.250000e+02
1.312500e+02
1.375000e+02
1.437500e+02
1.500000e+02
1.562500e+02
1.625000e+02
1.687500e+02
1.750000e+02
1.812500e+02
1.875000e+02
1.937500e+02
2.000000e+02
0.000000e+00
6.250000e+00
1.250000e+01
1.875000e+01
2.500000e+01
3.125000e+01
3.750000e+01
4.375000e+01
5.000000e+01
5.625000e+01
6.250000e+01
6.875000e+01
7.500000e+01
8.125000e+01
8.750000e+01
9.375000e+01
1.000000e+02
1.062500e+02
1.125000e+02
1.187500e+02
1.250000e+02
1.312500e+02
1.375000e+02
1.437500e+02
1.500000e+02
1.562500e+02
1.625000e+02
1.687500e+02
1.750000e+02
1.812500e+02
1.875000e+02
1.937500e+02
2.000000e+02
0.000000e+00
6.250000e+00
1.250000e+01
1.875000e+01
2.500000e+01
3.125000e+01
3.750000e+01
4.375000e+01
5.000000e+01
5.625000e+01
6.250000e+01
6.875000e+01
7.500000e+01
8.125000e+01
8.750000e+01
9.375000e+01
1.000000e+02
1.062500e+02
1.125000e+02
1.187500e+02
1.250000e+02
1.312500e+02
1.375000e+02
1.437500e+02
1.500000e+02
1.562500e+02
1.625000e+02
1.687500e+02
1.750000e+02
1.812500e+02
1.875000e+02
1.937500e+02
2.000000e+02
0.000000e+00
0.000000e+00
0.000000e+00
0.000000e+00
0.000000e+00
0.000000e+00
0.000000e+00
0.000000e+00
0.000000e+00
0.000000e+00
0.000000e+00
0.000000e+00
0.000000e+00
0.000000e+00
0.000000e+00
0.000000e+00
0.000000e+00
0.000000e+00
0.000000e+00
0.000000e+00
0.000000e+00
0.000000e+00
0.000000e+00
0.000000e+00
0.000000e+00
0.000000e+00
0.000000e+00
0.000000e+00
0.000000e+00
0.000000e+00
0.000000e+00
0.000000e+00
0.000000e+00
6.250000e+00
6.250000e+00
6.250000e+00
6.250000e+00
6.250000e+00
6.250000e+00
6.250000e+00
6.250000e+00
6.250000e+00
6.250000e+00
6.250000e+00
6.250000e+00
6.250000e+00
6.250000e+00
6.250000e+00
6.250000e+00
6.250000e+00
6.250000e+00
6.250000e+00
6.250000e+00
6.250000e+00
6.250000e+00
6.250000e+00
6.250000e+00
6.250000e+00
6.250000e+00
6.250000e+00
6.250000e+00
6.250000e+00
6.250000e+00
6.250000e+00
6.250000e+00
6.250000e+00
1.250000e+01
1.250000e+01
1.250000e+01
1.250000e+01
1.250000e+01
1.250000e+01
1.250000e+01
1.250000e+01
1.250000e+01
1.250000e+01
1.250000e+01
1.250000e+01
1.250000e+01
1.250000e+01
1.250000e+01
1.250000e+01
1.250000e+01
1.250000e+01
1.250000e+01
1.250000e+01
1.250000e+01
1.250000e+01
1.250000e+01
1.250000e+01
1.250000e+01
1.250000e+01
1.250000e+01
1.250000e+01
1.250000e+01
1.250000e+01
1.250000e+01
1.250000e+01
1.250000e+01
1.875000e+01
1.875000e+01
1.875000e+01
1.875000e+01
1.875000e+01
1.875000e+01
1.875000e+01
1.875000e+01
1.875000e+01
1.875000e+01
1.875000e+01
1.875000e+01
1.875000e+01
1.875000e+01
1.875000e+01
1.875000e+01
1.875000e+01
1.875000e+01
1.875000e+01
1.875000e+01
1.875000e+01
1.875000e+01
1.875000e+01
1.875000e+01
1.875000e+01
1.875000e+01
1.875000e+01
1.875000e+01
1.875000e+01
1.875000e+01
1.875000e+01
1.875000e+01
1.875000e+01
2.500000e+01
2.500000e+01
2.500000e+01
2.500000e+01
2.500000e+01
2.500000e+01
2.500000e+01
2.500000e+01
2.500000e+01
2.500000e+01
2.500000e+01
2.500000e+01
2.500000e+01
2.500000e+01
2.500000e+01
2.500000e+01
2.500000e+01
2.500000e+01
2.500000e+01
2.500000e+01
2.500000e+01
2.500000e+01
2.500000e+01
2.500000e+01
2.500000e+01
2.500000e+01
2.500000e+01
2.500000e+01
2.500000e+01
2.500000e+01
2.500000e+01
2.500000e+01
2.500000e+01
3.125000e+01
3.125000e+01
3.125000e+01
3.125000e+01
3.125000e+01
3.125000e+01
3.125000e+01
3.125000e+01
3.125000e+01
3.125000e+01
3.125000e+01
3.125000e+01
3.125000e+01
3.125000e+01
3.125000e+01
3.125000e+01
3.125000e+01
3.125000e+01
3.125000e+01
3.125000e+01
3.125000e+01
3.125000e+01
3.125000e+01
3.125000e+01
3.125000e+01
3.125000e+01
3.125000e+01
3.125000e+01
3.125000e+01
3.125000e+01
3.125000e+01
3.125000e+01
3.125000e+01
3.750000e+01
3.750000e+01
3.750000e+01
3.750000e+01
3.750000e+01
3.750000e+01
3.750000e+01
3.750000e+01
3.750000e+01
3.750000e+01
3.750000e+01
3.750000e+01
3.750000e+01
3.750000e+01
3.750000e+01
3.750000e+01
3.750000e+01
3.750000e+01
3.750000e+01
3.750000e+01
3.750000e+01
3.750000e+01
3.750000e+01
3.750000e+01
3.750000e+01
3.750000e+01
3.750000e+01
3.750000e+01
3.750000e+01
3.750000e+01
3.750000e+01
3.750000e+01
3.750000e+01
4.375000e+01
4.375000e+01
4.375000e+01
4.375000e+01
4.375000e+01
4.375000e+01
4.375000e+01
4.375000e+01
4.375000e+01
4.375000e+01
4.375000e+01
4.375000e+01
4.375000e+01
4.375000e+01
4.375000e+01
4.375000e+01
4.375000e+01
4.375000e+01
4.375000e+01
4.375000e+01
4.375000e+01
4.375000e+01
4.375000e+01
4.375000e+01
4.375000e+01
4.375000e+01
4.375000e+01
4.375000e+01
4.375000e+01
4.375000e+01
4.375000e+01
4.375000e+01
4.375000e+01
5.000000e+01
5.000000e+01
5.000000e+01
5.000000e+01
5.000000e+01
5.000000e+01
5.000000e+01
5.000000e+01
5.000000e+01
5.000000e+01
5.000000e+01
5.000000e+01
5.000000e+01
5.000000e+01
5.000000e+01
5.000000e+01
5.000000e+01
5.000000e+01
5.000000e+01
5.000000e+01
5.000000e+01
5.000000e+01
5.000000e+01
5.000000e+01
5.000000e+01
5.000000e+01
5.000000e+01
5.000000e+01
5.000000e+01
5.000000e+01
5.000000e+01
5.000000e+01
5.000000e+01
5.625000e+01
5.625000e+01
5.625000e+01
5.625000e+01
5.625000e+01
5.625000e+01
5.625000e+01
5.625000e+01
5.625000e+01
5.625000e+01
5.625000e+01
5.625000e+01
5.625000e+01
5.625000e+01
5.625000e+01
5.625000e+01
5.625000e+01
5.625000e+01
5.625000e+01
5.625000e+01
5.625000e+01
5.625000e+01
5.625000e+01
5.625000e+01
5.625000e+01
5.625000e+01
5.625000e+01
5.625000e+01
5.625000e+01
5.625000e+01
5.625000e+01
5.625000e+01
5.625000e+01
6.250000e+01
6.250000e+01
6.250000e+01
6.250000e+01
6.250000e+01
6.250000e+01
6.250000e+01
6.250000e+01
6.250000e+01
6.250000e+01
6.250000e+01
6.250000e+01
6.250000e+01
6.250000e+01
6.250000e+01
6.250000e+01
6.250000e+01
6.250000e+01
6.250000e+01
6.250000e+01
6.250000e+01
6.250000e+01
6.250000e+01
6.250000e+01
6.250000e+01
6.250000e+01
6.250000e+01
6.250000e+01
6.250000e+01
6.250000e+01
6.250000e+01
6.250000e+01
6.250000e+01
6.875000e+01
6.875000e+01
6.875000e+01
6.875000e+01
6.875000e+01
6.875000e+01
6.875000e+01
6.875000e+01
6.875000e+01
6.875000e+01
6.875000e+01
6.875000e+01
6.875000e+01
6.875000e+01
6.875000e+01
6.875000e+01
6.875000e+01
6.875000e+01
6.875000e+01
6.875000e+01
6.875000e+01
6.875000e+01
6.875000e+01
6.875000e+01
6.875000e+01
6.875000e+01
6.875000e+01
6.875000e+01
6.875000e+01
6.875000e+01
6.875000e+01
6.875000e+01
6.875000e+01
7.500000e+01
7.500000e+01
7.500000e+01
7.500000e+01
7.500000e+01
7.500000e+01
7.500000e+01
7.500000e+01
7.500000e+01
7.500000e+01
7.500000e+01
7.500000e+01
7.500000e+01
7.500000e+01
7.500000e+01
7.500000e+01
7.500000e+01
7.500000e+01
7.500000e+01
7.500000e+01
7.500000e+01
7.500000e+01
7.500000e+01
7.500000e+01
7.500000e+01
7.500000e+01
7.500000e+01
7.500000e+01
7.500000e+01
7.500000e+01
7.500000e+01
7.500000e+01
7.500000e+01
8.125000e+01
8.125000e+01
8.125000e+01
8.125000e+01
8.125000e+01
8.125000e+01
8.125000e+01
8.125000e+01
8.125000e+01
8.125000e+01
8.125000e+01
8.125000e+01
8.125000e+01
8.125000e+01
8.125000e+01
8.125000e+01
8.125000e+01
8.125000e+01
8.125000e+01
8.125000e+01
8.125000e+01
8.125000e+01
8.125000e+01
8.125000e+01
8.125000e+01
8.125000e+01
8.125000e+01
8.125000e+01
8.125000e+01
8.125000e+01
8.125000e+01
8.125000e+01
8.125000e+01
8.750000e+01
8.750000e+01
8.750000e+01
8.750000e+01
8.750000e+01
8.750000e+01
8.750000e+01
8.750000e+01
8.750000e+01
8.750000e+01
8.750000e+01
8.750000e+01
8.750000e+01
8.750000e+01
8.750000e+01
8.750000e+01
8.750000e+01
8.750000e+01
8.750000e+01
8.750000e+01
8.750000e+01
8.750000e+01
8.750000e+01
8.750000e+01
8.750000e+01
8.750000e+01
8.750000e+01
8.750000e+01
8.750000e+01
8.750000e+01
8.750000e+01
8.750000e+01
8.750000e+01
9.375000e+01
9.375000e+01
9.375000e+01
9.375000e+01
9.375000e+01
9.375000e+01
9.375000e+01
9.375000e+01
9.375000e+01
9.375000e+01
9.375000e+01
9.375000e+01
9.375000e+01
9.375000e+01
9.375000e+01
9.375000e+01
9.375000e+01
9.375000e+01
9.375000e+01
9.375000e+01
9.375000e+01
9.375000e+01
9.375000e+01
9.375000e+01
9.375000e+01
9.375000e+01
9.375000e+01
9.375000e+01
9.375000e+01
9.375000e+01
9.375000e+01
9.375000e+01
9.375000e+01
1.000000e+02
1.000000e+02
1.000000e+02
1.000000e+02
1.000000e+02
1.000000e+02
1.000000e+02
1.000000e+02
1.000000e+02
1.000000e+02
1.000000e+02
1.000000e+02
1.000000e+02
1.000000e+02
1.000000e+02
1.000000e+02
1.000000e+02
1.000000e+02
1.000000e+02
1.000000e+02
1.000000e+02
1.000000e+02
1.000000e+02
1.000000e+02
1.000000e+02
1.000000e+02
1.000000e+02
1.000000e+02
1.000000e+02
1.000000e+02
1.000000e+02
1.000000e+02
1.000000e+02
0.000000e+00
-4.723742e-01
-7.827719e-01
-1.122804e+00
-1.424422e+00
-1.716302e+00
-2.028323e+00
-2.315566e+00
-2.615230e+00
-2.908803e+00
-3.205847e+00
-3.505037e+00
-3.804488e+00
-4.103965e+00
-4.404196e+00
-4.705010e+00
-5.007852e+00
-5.311257e+00
-5.613869e+00
-5.916443e+00
-6.218501e+00
-6.520422e+00
-6.822693e+00
-7.119962e+00
-7.413274e+00
-7.718213e+00
-8.017368e+00
-8.348551e+00
-8.667403e+00
-9.020633e+00
-9.509942e+00
-9.926371e+00
-1.013046e+01
0.000000e+00
-2.335559e-01
-4.702122e-01
-7.357562e-01
-1.001730e+00
-1.254448e+00
-1.524363e+00
-1.784623e+00
-2.047171e+00
-2.312129e+00
-2.572680e+00
-2.837747e+00
-3.098175e+00
-3.362071e+00
-3.623411e+00
-3.885701e+00
-4.148238e+00
-4.408718e+00
-4.671840e+00
-4.931657e+00
-5.194202e+00
-5.454332e+00
-5.715903e+00
-5.976172e+00
-6.237276e+00
-6.498452e+00
-6.757814e+00
-7.022089e+00
-7.276337e+00
-7.533153e+00
-7.787715e+00
-7.888897e+00
-7.994715e+00
0.000000e+00
-1.027681e-01
-2.376429e-01
-4.341895e-01
-6.529542e-01
-8.602296e-01
-1.085987e+00
-1.313608e+00
-1.541006e+00
-1.772642e+00
-1.996720e+00
-2.223714e+00
-2.445988e+00
-2.671178e+00
-2.894878e+00
-3.117533e+00
-3.339903e+00
-3.560076e+00
-3.783730e+00
-4.005702e+00
-4.230796e+00
-4.454007e+00
-4.678438e+00
-4.907839e+00
-5.137802e+00
-5.360849e+00
-5.573059e+00
-5.770424e+00
-5.949950e+00
-6.098910e+00
-6.186633e+00
-6.192277e+00
-6.285162e+00
0.000000e+00
-1.024738e-01
-1.858785e-01
-3.413909e-01
-4.644106e-01
-6.188931e-01
-7.959786e-01
-9.655837e-01
-1.159120e+00
-1.336718e+00
-1.521715e+00
-1.704343e+00
-1.886024e+00
-2.071952e+00
-2.255923e+00
-2.441503e+00
-2.626279e+00
-2.812918e+00
-3.002709e+00
-3.194071e+00
-3.388227e+00
-3.581799e+00
-3.776436e+00
-3.971779e+00
-4.157793e+00
-4.331728e+00
-4.481043e+00
-4.613314e+00
-4.714154e+00
-4.777661e+00
-4.792801e+00
-4.810175e+00
-4.890614e+00
0.000000e+00
-9.306878e-02
-1.846700e-01
-2.756653e-01
-3.892541e-01
-5.049622e-01
-6.371886e-01
-7.715975e-01
-9.166604e-01
-1.057642e+00
-1.203855e+00
-1.349252e+00
-1.492526e+00
-1.642298e+00
-1.784962e+00
-1.935469e+00
-2.080751e+00
-2.230224e+00
-2.379909e+00
-2.528345e+00
-2.679215e+00
-2.825284e+00
-2.970151e+00
-3.107535e+00
-3.235990e+00
-3.350051e+00
-3.446989e+00
-3.520966e+00
-3.569519e+00
-3.593992e+00
-3.597426e+00
-3.627166e+00
-3.698520e+00
0.000000e+00
-7.446569e-02
-1.459672e-01
-2.209997e-01
-3.024888e-01
-3.920811e-01
-4.868819e-01
-5.881561e-01
-6.919156e-01
-7.997909e-01
-9.072367e-01
-1.016047e+00
-1.124816e+00
-1.232798e+00
-1.342279e+00
-1.450201e+00
-1.559589e+00
-1.667560e+00
-1.775392e+00
-1.881996e+00
-1.985964e+00
-2.087023e+00
-2.181895e+00
-2.269592e+00
-2.347220e+00
-2.412895e+00
-2.464245e+00
-2.499095e+00
-2.521713e+00
-2.522138e+00
-2.517373e+00
-2.543783e+00
-2.609614e+00
0.000000e+00
-5.130028e-02
-1.020484e-01
-1.539209e-01
-2.094097e-01
-2.687919e-01
-3.322249e-01
-3.986491e-01
-4.678858e-01
-5.385806e-01
-6.102783e-01
-6.820513e-01
-7.536024e-01
-8.249574e-01
-8.957684e-01
-9.664266e-01
-1.036231e+00
-1.105195e+00
-1.172591e+00
-1.237867e+00
-1.300175e+00
-1.358099e+00
-1.410286e+00
-1.454843e+00
-1.490828e+00
-1.515976e+00
-1.530012e+00
-1.535580e+00
-1.519197e+00
-1.489161e+00
-1.477835e+00
-1.501076e+00
-1.565301e+00
0.000000e+00
-2.704450e-02
-5.393626e-02
-8.140626e-02
-1.101663e-01
-1.406650e-01
-1.727786e-01
-2.063633e-01
-2.410000e-01
-2.763609e-01
-3.118903e-01
-3.472278e-01
-3.820838e-01
-4.162896e-01
-4.498339e-01
-4.825288e-01
-5.141877e-01
-5.443608e-01
-5.727124e-01
-5.987162e-01
-6.216994e-01
-6.408494e-01
-6.548970e-01
-6.628866e-01
-6.632079e-01
-6.566631e-01
-6.408566e-01
-6.022920e-01
-5.525340e-01
-5.009322e-01
-4.738331e-01
-4.969258e-01
-5.639006e-01
0.000000e+00
-1.999881e-03
-4.048179e-03
-6.058606e-03
-7.916679e-03
-9.495209e-03
-1.073194e-02
-1.163686e-02
-1.226559e-02
-1.259663e-02
-1.251922e-02
-1.187295e-02
-1.050772e-02
-8.262103e-03
-4.895775e-03
-3.167524e-04
5.724099e-03
1.367618e-02
2.359341e-02
3.535320e-02
4.960543e-02
6.656966e-02
8.584174e-02
1.102785e-01
1.407602e-01
1.821922e-01
2.427543e-01
3.151979e-01
3.886681e-01
4.396284e-01
4.553379e-01
4.229024e-01
3.427682e-01
0.000000e+00
2.319631e-02
4.616352e-02
6.977794e-02
9.500300e-02
1.225506e-01
1.524607e-01
1.844681e-01
2.180143e-01
2.526581e-01
2.880415e-01
3.240422e-01
3.606293e-01
3.982862e-01
4.375579e-01
4.787898e-01
5.225024e-01
5.683468e-01
6.162683e-01
6.656819e-01
7.153976e-01
7.666064e-01
8.221901e-01
8.816574e-01
9.491758e-01
1.032408e+00
1.122367e+00
1.214083e+00
1.288582e+00
1.332422e+00
1.329262e+00
1.283121e+00
1.220230e+00
0.000000e+00
4.785972e-02
9.518272e-02
1.437296e-01
1.962155e-01
2.533792e-01
3.153652e-01
3.810508e-01
4.496653e-01
5.198581e-01
5.907930e-01
6.615655e-01
7.323080e-01
8.037872e-01
8.772100e-01
9.544264e-01
1.035699e+00
1.119664e+00
1.205286e+00
1.291995e+00
1.381825e+00
1.471241e+00
1.563392e+00
1.666420e+00
1.775119e+00
1.885911e+00
1.995439e+00
2.084189e+00
2.148120e+00
2.174578e+00
2.166954e+00
2.137050e+00
2.092932e+00
0.000000e+00
7.147437e-02
1.402608e-01
2.129790e-01
2.926061e-01
3.812118e-01
4.764119e-01
5.776855e-01
6.821184e-01
7.899954e-01
8.981594e-01
1.006844e+00
1.114859e+00
1.223481e+00
1.332989e+00
1.443166e+00
1.557085e+00
1.674454e+00
1.794252e+00
1.917364e+00
2.045955e+00
2.182409e+00
2.324538e+00
2.466826e+00
2.605067e+00
2.734325e+00
2.846596e+00
2.935504e+00
2.990955e+00
3.018895e+00
3.022386e+00
3.004361e+00
2.976827e+00
0.000000e+00
9.025821e-02
1.792910e-01
2.693828e-01
3.836848e-01
5.028498e-01
6.354313e-01
7.729352e-01
9.168439e-01
1.059853e+00
1.206808e+00
1.353113e+00
1.500346e+00
1.651579e+00
1.802319e+00
1.957427e+00
2.112436e+00
2.272511e+00
2.438348e+00
2.604911e+00
2.774066e+00
2.946170e+00
3.116288e+00
3.280929e+00
3.433932e+00
3.575107e+00
3.696091e+00
3.786851e+00
3.853338e+00
3.892490e+00
3.905403e+00
3.898877e+00
3.884367e+00
0.000000e+00
9.865713e-02
1.795071e-01
3.322944e-01
4.600820e-01
6.233034e-01
8.054200e-01
9.747867e-01
1.168540e+00
1.345488e+00
1.528095e+00
1.708064e+00
1.890851e+00
2.080569e+00
2.274672e+00
2.476488e+00
2.680590e+00
2.886074e+00
3.096323e+00
3.309625e+00
3.519998e+00
3.724856e+00
3.921037e+00
4.105697e+00
4.280409e+00
4.437787e+00
4.573022e+00
4.679934e+00
4.756483e+00
4.804252e+00
4.826446e+00
4.829254e+00
4.824515e+00
0.000000e+00
1.004190e-01
2.310670e-01
4.195701e-01
6.368652e-01
8.474560e-01
1.078767e+00
1.310033e+00
1.540028e+00
1.774641e+00
1.998137e+00
2.223918e+00
2.445619e+00
2.672261e+00
2.900037e+00
3.131600e+00
3.365887e+00
3.597141e+00
3.828565e+00
4.061063e+00
4.295379e+00
4.524260e+00
4.744664e+00
4.965919e+00
5.177045e+00
5.363620e+00
5.513186e+00
5.627863e+00
5.710336e+00
5.763207e+00
5.790898e+00
5.799949e+00
5.801060e+00
0.000000e+00
2.337938e-01
4.714916e-01
7.363584e-01
1.001658e+00
1.253879e+00
1.523038e+00
1.783737e+00
2.045621e+00
2.310314e+00
2.570213e+00
2.834438e+00
3.093770e+00
3.355823e+00
3.615590e+00
3.875237e+00
4.135294e+00
4.392664e+00
4.650524e+00
4.904377e+00
5.159791e+00
5.413093e+00
5.666355e+00
5.924937e+00
6.169097e+00
6.369970e+00
6.527455e+00
6.644249e+00
6.724435e+00
6.773632e+00
6.798770e+00
6.807875e+00
6.810113e+00
0.000000e+00
4.735395e-01
7.901399e-01
1.135548e+00
1.440088e+00
1.729662e+00
2.037760e+00
2.322434e+00
2.618973e+00
2.910015e+00
3.205743e+00
3.505367e+00
3.802887e+00
4.100278e+00
4.393924e+00
4.684981e+00
4.972237e+00
5.261311e+00
5.551851e+00
5.839748e+00
6.127494e+00
6.415391e+00
6.707327e+00
7.000109e+00
7.265794e+00
7.476612e+00
7.634754e+00
7.743613e+00
7.808466e+00
7.837581e+00
7.842674e+00
7.838056e+00
7.835503e+00
0.000000e+00
-2.792646e-01
-5.897487e-01
-9.868347e-01
-1.419296e+00
-1.889122e+00
-2.399592e+00
-2.940698e+00
-3.517302e+00
-4.125300e+00
-4.767178e+00
-5.445078e+00
-6.159491e+00
-6.912025e+00
-7.701362e+00
-8.529224e+00
-9.395461e+00
-1.030199e+01
-1.124853e+01
-1.223472e+01
-1.326102e+01
-1.432700e+01
-1.543442e+01
-1.658155e+01
-1.776616e+01
-1.898987e+01
-2.025699e+01
-2.157816e+01
-2.295985e+01
-2.442260e+01
-2.598339e+01
-2.779139e+01
-3.032862e+01
0.000000e+00
-1.802347e-01
-5.093055e-01
-8.990759e-01
-1.338383e+00
-1.804682e+00
-2.315031e+00
-2.858286e+00
-3.433097e+00
-4.042185e+00
-4.683013e+00
-5.361234e+00
-6.075386e+00
-6.828146e+00
-7.617481e+00
-8.445056e+00
-9.311401e+00
-1.021760e+01
-1.116455e+01
-1.215052e+01
-1.317700e+01
-1.424263e+01
-1.535016e+01
-1.649812e+01
-1.768243e+01
-1.890570e+01
-2.017126e+01
-2.149078e+01
-2.287407e+01
-2.432768e+01
-2.590779e+01
-2.770302e+01
-2.995384e+01
0.000000e+00
-1.593524e-01
-4.501740e-01
-8.426031e-01
-1.271832e+00
-1.735783e+00
-2.244133e+00
-2.785155e+00
-3.361391e+00
-3.969215e+00
-4.611225e+00
-5.289536e+00
-6.003851e+00
-6.756705e+00
-7.546645e+00
-8.374314e+00
-9.241245e+00
-1.014706e+01
-1.109397e+01
-1.207976e+01
-1.310605e+01
-1.417141e+01
-1.527727e+01
-1.642468e+01
-1.760997e+01
-1.883606e+01
-2.010351e+01
-2.142816e+01
-2.281521e+01
-2.428928e+01
-2.591234e+01
-2.759695e+01
-2.934523e+01
0.000000e+00
-2.048011e-01
-4.502153e-01
-8.392497e-01
-1.237226e+00
-1.690077e+00
-2.196944e+00
-2.724804e+00
-3.307652e+00
-3.909576e+00
-4.554696e+00
-5.233375e+00
-5.945800e+00
-6.701626e+00
-7.488960e+00
-8.319885e+00
-9.185193e+00
-1.009147e+01
-1.103802e+01
-1.202245e+01
-1.304980e+01
-1.411371e+01
-1.521879e+01
-1.636586e+01
-1.755365e+01
-1.878595e+01
-2.005953e+01
-2.139135e+01
-2.278712e+01
-2.428086e+01
-2.589648e+01
-2.744622e+01
-2.884539e+01
0.000000e+00
-2.208702e-01
-4.890940e-01
-8.344071e-01
-1.235021e+00
-1.670561e+00
-2.167746e+00
-2.689916e+00
-3.267678e+00
-3.869611e+00
-4.513679e+00
-5.194322e+00
-5.905021e+00
-6.663733e+00
-7.448813e+00
-8.282206e+00
-9.146448e+00
-1.005293e+01
-1.099944e+01
-1.198277e+01
-1.301076e+01
-1.407432e+01
-1.518086e+01
-1.632865e+01
-1.752014e+01
-1.875578e+01
-2.003758e+01
-2.137289e+01
-2.277124e+01
-2.426094e+01
-2.579606e+01
-2.724527e+01
-2.851245e+01
0.000000e+00
-2.277759e-01
-5.055461e-01
-8.403855e-01
-1.228395e+00
-1.663729e+00
-2.146109e+00
-2.670790e+00
-3.237948e+00
-3.842830e+00
-4.484961e+00
-5.164679e+00
-5.879922e+00
-6.634040e+00
-7.424720e+00
-8.254096e+00
-9.121612e+00
-1.002777e+01
-1.097421e+01
-1.196007e+01
-1.298696e+01
-1.405402e+01
-1.516219e+01
-1.631275e+01
-1.750636e+01
-1.874392e+01
-2.002831e+01
-2.136298e+01
-2.275049e+01
-2.419991e+01
-2.564115e+01
-2.700924e+01
-2.821452e+01
0.000000e+00
-2.314658e-01
-5.117639e-01
-8.435854e-01
-1.226305e+00
-1.657613e+00
-2.135367e+00
-2.657295e+00
-3.221337e+00
-3.825182e+00
-4.467428e+00
-5.147078e+00
-5.863919e+00
-6.618037e+00
-7.409719e+00
-8.239440e+00
-9.107653e+00
-1.001512e+01
-1.096242e+01
-1.195015e+01
-1.297866e+01
-1.404822e+01
-1.515924e+01
-1.631192e+01
-1.750686e+01
-1.874468e+01
-2.002515e+01
-2.135653e+01
-2.271154e+01
-2.410971e+01
-2.548647e+01
-2.678688e+01
-2.792877e+01
0.000000e+00
-2.328654e-01
-5.140862e-01
-8.450194e-01
-1.225686e+00
-1.654845e+00
-2.130674e+00
-2.651112e+00
-3.214097e+00
-3.817686e+00
-4.460275e+00
-5.140767e+00
-5.858530e+00
-6.613477e+00
-7.405827e+00
-8.236182e+00
-9.105316e+00
-1.001393e+01
-1.096267e+01
-1.195208e+01
-1.298259e+01
-1.405445e+01
-1.516768e+01
-1.632231e+01
-1.751616e+01
-1.875388e+01
-2.002661e+01
-2.133890e+01
-2.265926e+01
-2.400380e+01
-2.533509e+01
-2.657877e+01
-2.766498e+01
0.000000e+00
-2.331550e-01
-5.146799e-01
-8.456407e-01
-1.226163e+00
-1.655258e+00
-2.131181e+00
-2.651884e+00
-3.215340e+00
-3.819702e+00
-4.463374e+00
-5.145060e+00
-5.863957e+00
-6.619851e+00
-7.412937e+00
-8.243889e+00
-9.113966e+00
-1.002383e+01
-1.097377e+01
-1.196458e+01
-1.299682e+01
-1.406994e+01
-1.518446e+01
-1.633986e+01
-1.753267e+01
-1.876493e+01
-2.002343e+01
-2.130642e+01
-2.260293e+01
-2.389626e+01
-2.516759e+01
-2.633604e+01
-2.732719e+01
0.000000e+00
-2.327015e-01
-5.141416e-01
-8.457743e-01
-1.227751e+00
-1.658794e+00
-2.136813e+00
-2.659513e+00
-3.224805e+00
-3.830929e+00
-4.476350e+00
-5.159597e+00
-5.879703e+00
-6.636705e+00
-7.430745e+00
-8.262039e+00
-9.133346e+00
-1.004450e+01
-1.099547e+01
-1.198634e+01
-1.302028e+01
-1.409313e+01
-1.520601e+01
-1.636329e+01
-1.754888e+01
-1.876903e+01
-2.001046e+01
-2.127038e+01
-2.253766e+01
-2.379430e+01
-2.499933e+01
-2.610056e+01
-2.705952e+01
0.000000e+00
-2.312302e-01
-5.119418e-01
-8.450791e-01
-1.230474e+00
-1.665734e+00
-2.148002e+00
-2.674400e+00
-3.242809e+00
-3.851437e+00
-4.499046e+00
-5.183844e+00
-5.904823e+00
-6.663239e+00
-7.458233e+00
-8.290688e+00
-9.163527e+00
-1.007579e+01
-1.102802e+01
-1.201766e+01
-1.305102e+01
-1.412178e+01
-1.523236e+01
-1.638320e+01
-1.756015e+01
-1.876480e+01
-1.999511e+01
-2.123264e+01
-2.247431e+01
-2.368996e+01
-2.484950e+01
-2.591870e+01
-2.686724e+01
0.000000e+00
-2.275954e-01
-5.060188e-01
-8.426522e-01
-1.234616e+00
-1.676750e+00
-2.165926e+00
-2.697272e+00
-3.270405e+00
-3.881967e+00
-4.531564e+00
-5.217594e+00
-5.938635e+00
-6.698195e+00
-7.494282e+00
-8.329513e+00
-9.203853e+00
-1.011729e+01
-1.106936e+01
-1.205827e+01
-1.308656e+01
-1.415371e+01
-1.525845e+01
-1.639890e+01
-1.756666e+01
-1.876180e+01
-1.998021e+01
-2.120496e+01
-2.241973e+01
-2.360621e+01
-2.473630e+01
-2.578951e+01
-2.674202e+01
0.000000e+00
-2.206022e-01
-4.899857e-01
-8.378767e-01
-1.243188e+00
-1.690664e+00
-2.194920e+00
-2.727428e+00
-3.310332e+00
-3.921924e+00
-4.574319e+00
-5.260732e+00
-5.981112e+00
-6.743621e+00
-7.539962e+00
-8.379043e+00
-9.254272e+00
-1.016675e+01
-1.111735e+01
-1.210293e+01
-1.312597e+01
-1.418761e+01
-1.528422e+01
-1.641500e+01
-1.757558e+01
-1.876717e+01
-1.997986e+01
-2.118993e+01
-2.238488e+01
-2.354605e+01
-2.465754e+01
-2.570377e+01
-2.667101e+01
0.000000e+00
-2.035209e-01
-4.510833e-01
-8.435361e-01
-1.250464e+00
-1.716732e+00
-2.234475e+00
-2.770501e+00
-3.360963e+00
-3.972071e+00
-4.624987e+00
-5.310902e+00
-6.033911e+00
-6.798383e+00
-7.598319e+00
-8.438663e+00
-9.314135e+00
-1.022482e+01
-1.117187e+01
-1.215343e+01
-1.317135e+01
-1.422570e+01
-1.531346e+01
-1.643690e+01
-1.759898e+01
-1.879071e+01
-1.999611e+01
-2.119119e+01
-2.236717e+01
-2.350997e+01
-2.460794e+01
-2.565277e+01
-2.664027e+01
0.000000e+00
-1.565125e-01
-4.489511e-01
-8.465250e-01
-1.288022e+00
-1.765928e+00
-2.286226e+00
-2.835659e+00
-3.419989e+00
-4.035315e+00
-4.684040e+00
-5.370966e+00
-6.095847e+00
-6.861286e+00
-7.664428e+00
-8.504576e+00
-9.379933e+00
-1.028870e+01
-1.123330e+01
-1.221220e+01
-1.322583e+01
-1.427351e+01
-1.535416e+01
-1.647860e+01
-1.764362e+01
-1.883250e+01
-2.002352e+01
-2.120521e+01
-2.236577e+01
-2.349433e+01
-2.458234e+01
-2.562721e+01
-2.663506e+01
0.000000e+00
-1.768565e-01
-5.070387e-01
-9.033577e-01
-1.355501e+00
-1.836209e+00
-2.358196e+00
-2.910651e+00
-3.493162e+00
-4.109118e+00
-4.756360e+00
-5.443267e+00
-6.168402e+00
-6.934287e+00
-7.737817e+00
-8.578145e+00
-9.452531e+00
-1.035965e+01
-1.130302e+01
-1.228047e+01
-1.329240e+01
-1.433685e+01
-1.541811e+01
-1.654393e+01
-1.770552e+01
-1.888186e+01
-2.005960e+01
-2.122823e+01
-2.237636e+01
-2.349382e+01
-2.457404e+01
-2.561801e+01
-2.663973e+01
0.000000e+00
-2.767173e-01
-5.886275e-01
-9.919614e-01
-1.436573e+00
-1.920040e+00
-2.442346e+00
-2.992848e+00
-3.577080e+00
-4.191930e+00
-4.840536e+00
-5.527092e+00
-6.252172e+00
-7.017633e+00
-7.820486e+00
-8.660325e+00
-9.533738e+00
-1.044095e+01
-1.138339e+01
-1.236032e+01
-1.337184e+01
-1.441643e+01