TITLE = "Solution"
VARIABLES = x, y, u, v, psiu, psiv, t, stress
ZONE T="structure" N=561 E=512 F=FEBLOCK ET=QUADRILATERAL VARLOCATION=([7,8]=cellcentered)
0.000000e+00
6.250000e+00
1.250000e+01
1.875000e+01
2.500000e+01
3.125000e+01
3.750000e+01
4.375000e+01
5.000000e+01
5.625000e+01
6.250000e+01
6.875000e+01
7.500000e+01
8.125000e+01
8.750000e+01
9.375000e+01
1.000000e+02
1.062500e+02
1.125000e+02
1.187500e+02
1.250000e+02
1.312500e+02
1.375000e+02
1.437500e+02
1.500000e+02
1.562500e+02
1.625000e+02
1.687500e+02
1.750000e+02
1.812500e+02
1.875000e+02
1.937500e+02
2.000000e+02
0.000000e+00
6.250000e+00
1.250000e+01
1.875000e+01
2.500000e+01
3.125000e+01
3.750000e+01
4.375000e+01
5.000000e+01
5.625000e+01
6.250000e+01
6.875000e+01
7.500000e+01
8.125000e+01
8.750000e+01
9.375000e+01
1.000000e+02
1.062500e+02
1.125000e+02
1.187500e+02
1.250000e+02
1.312500e+02
1.375000e+02
1.437500e+02
1.500000e+02
1.562500e+02
1.625000e+02
1.687500e+02
1.750000e+02
1.812500e+02
1.875000e+02
1.937500e+02
2.000000e+02
0.000000e+00
6.250000e+00
1.250000e+01
1.875000e+01
2.500000e+01
3.125000e+01
3.750000e+01
4.375000e+01
5.000000e+01
5.625000e+01
6.250000e+01
6.875000e+01
7.500000e+01
8.125000e+01
8.750000e+01
9.375000e+01
1.000000e+02
1.062500e+02
1.125000e+02
1.187500e+02
1.250000e+02
1.312500e+02
1.375000e+02
1.437500e+02
1.500000e+02
1.562500e+02
1.625000e+02
1.687500e+02
1.750000e+02
1.812500e+02
1.875000e+02
1.937500e+02
2.000000e+02
0.000000e+00
6.250000e+00
1.250000e+01
1.875000e+01
2.500000e+01
3.125000e+01
3.750000e+01
4.375000e+01
5.000000e+01
5.625000e+01
6.250000e+01
6.875000e+01
7.500000e+01
8.125000e+01
8.750000e+01
9.375000e+01
1.000000e+02
1.062500e+02
1.125000e+02
1.187500e+02
1.250000e+02
1.312500e+02
1.375000e+02
1.437500e+02
1.500000e+02
1.562500e+02
1.625000e+02
1.687500e+02
1.750000e+02
1.812500e+02
1.875000e+02
1.937500e+02
2.000000e+02
0.000000e+00
6.250000e+00
1.250000e+01
1.875000e+01
2.500000e+01
3.125000e+01
3.750000e+01
4.375000e+01
5.000000e+01
5.625000e+01
6.250000e+01
6.875000e+01
7.500000e+01
8.125000e+01
8.750000e+01
9.375000e+01
1.000000e+02
1.062500e+02
1.125000e+02
1.187500e+02
1.250000e+02
1.312500e+02
1.375000e+02
1.437500e+02
1.500000e+02
1.562500e+02
1.625000e+02
1.687500e+02
1.750000e+02
1.812500e+02
1.875000e+02
1.937500e+02
2.000000e+02
0.000000e+00
6.250000e+00
1.250000e+01
1.875000e+01
2.500000e+01
3.125000e+01
3.750000e+01
4.375000e+01
5.000000e+01
5.625000e+01
6.250000e+01
6.875000e+01
7.500000e+01
8.125000e+01
8.750000e+01
9.375000e+01
1.000000e+02
1.062500e+02
1.125000e+02
1.187500e+02
1.250000e+02
1.312500e+02
1.375000e+02
1.437500e+02
1.500000e+02
1.562500e+02
1.625000e+02
1.687500e+02
1.750000e+02
1.812500e+02
1.875000e+02
1.937500e+02
2.000000e+02
0.000000e+00
6.250000e+00
1.250000e+01
1.875000e+01
2.500000e+01
3.125000e+01
3.750000e+01
4.375000e+01
5.000000e+01
5.625000e+01
6.250000e+01
6.875000e+01
7.500000e+01
8.125000e+01
8.750000e+01
9.375000e+01
1.000000e+02
1.062500e+02
1.125000e+02
1.187500e+02
1.250000e+02
1.312500e+02
1.375000e+02
1.437500e+02
1.500000e+02
1.562500e+02
1.625000e+02
1.687500e+02
1.750000e+02
1.812500e+02
1.875000e+02
1.937500e+02
2.000000e+02
0.000000e+00
6.250000e+00
1.250000e+01
1.875000e+01
2.500000e+01
3.125000e+01
3.750000e+01
4.375000e+01
5.000000e+01
5.625000e+01
6.250000e+01
6.875000e+01
7.500000e+01
8.125000e+01
8.750000e+01
9.375000e+01
1.000000e+02
1.062500e+02
1.125000e+02
1.187500e+02
1.250000e+02
1.312500e+02
1.375000e+02
1.437500e+02
1.500000e+02
1.562500e+02
1.625000e+02
1.687500e+02
1.750000e+02
1.812500e+02
1.875000e+02
1.937500e+02
2.000000e+02
0.000000e+00
6.250000e+00
1.250000e+01
1.875000e+01
2.500000e+01
3.125000e+01
3.750000e+01
4.375000e+01
5.000000e+01
5.625000e+01
6.250000e+01
6.875000e+01
7.500000e+01
8.125000e+01
8.750000e+01
9.375000e+01
1.000000e+02
1.062500e+02
1.125000e+02
1.187500e+02
1.250000e+02
1.312500e+02
1.375000e+02
1.437500e+02
1.500000e+02
1.562500e+02
1.625000e+02
1.687500e+02
1.750000e+02
1.812500e+02
1.875000e+02
1.937500e+02
2.000000e+02
0.000000e+00
6.250000e+00
1.250000e+01
1.875000e+01
2.500000e+01
3.125000e+01
3.750000e+01
4.375000e+01
5.000000e+01
5.625000e+01
6.250000e+01
6.875000e+01
7.500000e+01
8.125000e+01
8.750000e+01
9.375000e+01
1.000000e+02
1.062500e+02
1.125000e+02
1.187500e+02
1.250000e+02
1.312500e+02
1.375000e+02
1.437500e+02
1.500000e+02
1.562500e+02
1.625000e+02
1.687500e+02
1.750000e+02
1.812500e+02
1.875000e+02
1.937500e+02
2.000000e+02
0.000000e+00
6.250000e+00
1.250000e+01
1.875000e+01
2.500000e+01
3.125000e+01
3.750000e+01
4.375000e+01
5.000000e+01
5.625000e+01
6.250000e+01
6.875000e+01
7.500000e+01
8.125000e+01
8.750000e+01
9.375000e+01
1.000000e+02
1.062500e+02
1.125000e+02
1.187500e+02
1.250000e+02
1.312500e+02
1.375000e+02
1.437500e+02
1.500000e+02
1.562500e+02
1.625000e+02
1.687500e+02
1.750000e+02
1.812500e+02
1.875000e+02
1.937500e+02
2.000000e+02
0.000000e+00
6.250000e+00
1.250000e+01
1.875000e+01
2.500000e+01
3.125000e+01
3.750000e+01
4.375000e+01
5.000000e+01
5.625000e+01
6.250000e+01
6.875000e+01
7.500000e+01
8.125000e+01
8.750000e+01
9.375000e+01
1.000000e+02
1.062500e+02
1.125000e+02
1.187500e+02
1.250000e+02
1.312500e+02
1.375000e+02
1.437500e+02
1.500000e+02
1.562500e+02
1.625000e+02
1.687500e+02
1.750000e+02
1.812500e+02
1.875000e+02
1.937500e+02
2.000000e+02
0.000000e+00
6.250000e+00
1.250000e+01
1.875000e+01
2.500000e+01
3.125000e+01
3.750000e+01
4.375000e+01
5.000000e+01
5.625000e+01
6.250000e+01
6.875000e+01
7.500000e+01
8.125000e+01
8.750000e+01
9.375000e+01
1.000000e+02
1.062500e+02
1.125000e+02
1.187500e+02
1.250000e+02
1.312500e+02
1.375000e+02
1.437500e+02
1.500000e+02
1.562500e+02
1.625000e+02
1.687500e+02
1.750000e+02
1.812500e+02
1.875000e+02
1.937500e+02
2.000000e+02
0.000000e+00
6.250000e+00
1.250000e+01
1.875000e+01
2.500000e+01
3.125000e+01
3.750000e+01
4.375000e+01
5.000000e+01
5.625000e+01
6.250000e+01
6.875000e+01
7.500000e+01
8.125000e+01
8.750000e+01
9.375000e+01
1.000000e+02
1.062500e+02
1.125000e+02
1.187500e+02
1.250000e+02
1.312500e+02
1.375000e+02
1.437500e+02
1.500000e+02
1.562500e+02
1.625000e+02
1.687500e+02
1.750000e+02
1.812500e+02
1.875000e+02
1.937500e+02
2.000000e+02
0.000000e+00
6.250000e+00
1.250000e+01
1.875000e+01
2.500000e+01
3.125000e+01
3.750000e+01
4.375000e+01
5.000000e+01
5.625000e+01
6.250000e+01
6.875000e+01
7.500000e+01
8.125000e+01
8.750000e+01
9.375000e+01
1.000000e+02
1.062500e+02
1.125000e+02
1.187500e+02
1.250000e+02
1.312500e+02
1.375000e+02
1.437500e+02
1.500000e+02
1.562500e+02
1.625000e+02
1.687500e+02
1.750000e+02
1.812500e+02
1.875000e+02
1.937500e+02
2.000000e+02
0.000000e+00
6.250000e+00
1.250000e+01
1.875000e+01
2.500000e+01
3.125000e+01
3.750000e+01
4.375000e+01
5.000000e+01
5.625000e+01
6.250000e+01
6.875000e+01
7.500000e+01
8.125000e+01
8.750000e+01
9.375000e+01
1.000000e+02
1.062500e+02
1.125000e+02
1.187500e+02
1.250000e+02
1.312500e+02
1.375000e+02
1.437500e+02
1.500000e+02
1.562500e+02
1.625000e+02
1.687500e+02
1.750000e+02
1.812500e+02
1.875000e+02
1.937500e+02
2.000000e+02
0.000000e+00
6.250000e+00
1.250000e+01
1.875000e+01
2.500000e+01
3.125000e+01
3.750000e+01
4.375000e+01
5.000000e+01
5.625000e+01
6.250000e+01
6.875000e+01
7.500000e+01
8.125000e+01
8.750000e+01
9.375000e+01
1.000000e+02
1.062500e+02
1.125000e+02
1.187500e+02
1.250000e+02
1.312500e+02
1.375000e+02
1.437500e+02
1.500000e+02
1.562500e+02
1.625000e+02
1.687500e+02
1.750000e+02
1.812500e+02
1.875000e+02
1.937500e+02
2.000000e+02
0.000000e+00
0.000000e+00
0.000000e+00
0.000000e+00
0.000000e+00
0.000000e+00
0.000000e+00
0.000000e+00
0.000000e+00
0.000000e+00
0.000000e+00
0.000000e+00
0.000000e+00
0.000000e+00
0.000000e+00
0.000000e+00
0.000000e+00
0.000000e+00
0.000000e+00
0.000000e+00
0.000000e+00
0.000000e+00
0.000000e+00
0.000000e+00
0.000000e+00
0.000000e+00
0.000000e+00
0.000000e+00
0.000000e+00
0.000000e+00
0.000000e+00
0.000000e+00
0.000000e+00
6.250000e+00
6.250000e+00
6.250000e+00
6.250000e+00
6.250000e+00
6.250000e+00
6.250000e+00
6.250000e+00
6.250000e+00
6.250000e+00
6.250000e+00
6.250000e+00
6.250000e+00
6.250000e+00
6.250000e+00
6.250000e+00
6.250000e+00
6.250000e+00
6.250000e+00
6.250000e+00
6.250000e+00
6.250000e+00
6.250000e+00
6.250000e+00
6.250000e+00
6.250000e+00
6.250000e+00
6.250000e+00
6.250000e+00
6.250000e+00
6.250000e+00
6.250000e+00
6.250000e+00
1.250000e+01
1.250000e+01
1.250000e+01
1.250000e+01
1.250000e+01
1.250000e+01
1.250000e+01
1.250000e+01
1.250000e+01
1.250000e+01
1.250000e+01
1.250000e+01
1.250000e+01
1.250000e+01
1.250000e+01
1.250000e+01
1.250000e+01
1.250000e+01
1.250000e+01
1.250000e+01
1.250000e+01
1.250000e+01
1.250000e+01
1.250000e+01
1.250000e+01
1.250000e+01
1.250000e+01
1.250000e+01
1.250000e+01
1.250000e+01
1.250000e+01
1.250000e+01
1.250000e+01
1.875000e+01
1.875000e+01
1.875000e+01
1.875000e+01
1.875000e+01
1.875000e+01
1.875000e+01
1.875000e+01
1.875000e+01
1.875000e+01
1.875000e+01
1.875000e+01
1.875000e+01
1.875000e+01
1.875000e+01
1.875000e+01
1.875000e+01
1.875000e+01
1.875000e+01
1.875000e+01
1.875000e+01
1.875000e+01
1.875000e+01
1.875000e+01
1.875000e+01
1.875000e+01
1.875000e+01
1.875000e+01
1.875000e+01
1.875000e+01
1.875000e+01
1.875000e+01
1.875000e+01
2.500000e+01
2.500000e+01
2.500000e+01
2.500000e+01
2.500000e+01
2.500000e+01
2.500000e+01
2.500000e+01
2.500000e+01
2.500000e+01
2.500000e+01
2.500000e+01
2.500000e+01
2.500000e+01
2.500000e+01
2.500000e+01
2.500000e+01
2.500000e+01
2.500000e+01
2.500000e+01
2.500000e+01
2.500000e+01
2.500000e+01
2.500000e+01
2.500000e+01
2.500000e+01
2.500000e+01
2.500000e+01
2.500000e+01
2.500000e+01
2.500000e+01
2.500000e+01
2.500000e+01
3.125000e+01
3.125000e+01
3.125000e+01
3.125000e+01
3.125000e+01
3.125000e+01
3.125000e+01
3.125000e+01
3.125000e+01
3.125000e+01
3.125000e+01
3.125000e+01
3.125000e+01
3.125000e+01
3.125000e+01
3.125000e+01
3.125000e+01
3.125000e+01
3.125000e+01
3.125000e+01
3.125000e+01
3.125000e+01
3.125000e+01
3.125000e+01
3.125000e+01
3.125000e+01
3.125000e+01
3.125000e+01
3.125000e+01
3.125000e+01
3.125000e+01
3.125000e+01
3.125000e+01
3.750000e+01
3.750000e+01
3.750000e+01
3.750000e+01
3.750000e+01
3.750000e+01
3.750000e+01
3.750000e+01
3.750000e+01
3.750000e+01
3.750000e+01
3.750000e+01
3.750000e+01
3.750000e+01
3.750000e+01
3.750000e+01
3.750000e+01
3.750000e+01
3.750000e+01
3.750000e+01
3.750000e+01
3.750000e+01
3.750000e+01
3.750000e+01
3.750000e+01
3.750000e+01
3.750000e+01
3.750000e+01
3.750000e+01
3.750000e+01
3.750000e+01
3.750000e+01
3.750000e+01
4.375000e+01
4.375000e+01
4.375000e+01
4.375000e+01
4.375000e+01
4.375000e+01
4.375000e+01
4.375000e+01
4.375000e+01
4.375000e+01
4.375000e+01
4.375000e+01
4.375000e+01
4.375000e+01
4.375000e+01
4.375000e+01
4.375000e+01
4.375000e+01
4.375000e+01
4.375000e+01
4.375000e+01
4.375000e+01
4.375000e+01
4.375000e+01
4.375000e+01
4.375000e+01
4.375000e+01
4.375000e+01
4.375000e+01
4.375000e+01
4.375000e+01
4.375000e+01
4.375000e+01
5.000000e+01
5.000000e+01
5.000000e+01
5.000000e+01
5.000000e+01
5.000000e+01
5.000000e+01
5.000000e+01
5.000000e+01
5.000000e+01
5.000000e+01
5.000000e+01
5.000000e+01
5.000000e+01
5.000000e+01
5.000000e+01
5.000000e+01
5.000000e+01
5.000000e+01
5.000000e+01
5.000000e+01
5.000000e+01
5.000000e+01
5.000000e+01
5.000000e+01
5.000000e+01
5.000000e+01
5.000000e+01
5.000000e+01
5.000000e+01
5.000000e+01
5.000000e+01
5.000000e+01
5.625000e+01
5.625000e+01
5.625000e+01
5.625000e+01
5.625000e+01
5.625000e+01
5.625000e+01
5.625000e+01
5.625000e+01
5.625000e+01
5.625000e+01
5.625000e+01
5.625000e+01
5.625000e+01
5.625000e+01
5.625000e+01
5.625000e+01
5.625000e+01
5.625000e+01
5.625000e+01
5.625000e+01
5.625000e+01
5.625000e+01
5.625000e+01
5.625000e+01
5.625000e+01
5.625000e+01
5.625000e+01
5.625000e+01
5.625000e+01
5.625000e+01
5.625000e+01
5.625000e+01
6.250000e+01
6.250000e+01
6.250000e+01
6.250000e+01
6.250000e+01
6.250000e+01
6.250000e+01
6.250000e+01
6.250000e+01
6.250000e+01
6.250000e+01
6.250000e+01
6.250000e+01
6.250000e+01
6.250000e+01
6.250000e+01
6.250000e+01
6.250000e+01
6.250000e+01
6.250000e+01
6.250000e+01
6.250000e+01
6.250000e+01
6.250000e+01
6.250000e+01
6.250000e+01
6.250000e+01
6.250000e+01
6.250000e+01
6.250000e+01
6.250000e+01
6.250000e+01
6.250000e+01
6.875000e+01
6.875000e+01
6.875000e+01
6.875000e+01
6.875000e+01
6.875000e+01
6.875000e+01
6.875000e+01
6.875000e+01
6.875000e+01
6.875000e+01
6.875000e+01
6.875000e+01
6.875000e+01
6.875000e+01
6.875000e+01
6.875000e+01
6.875000e+01
6.875000e+01
6.875000e+01
6.875000e+01
6.875000e+01
6.875000e+01
6.875000e+01
6.875000e+01
6.875000e+01
6.875000e+01
6.875000e+01
6.875000e+01
6.875000e+01
6.875000e+01
6.875000e+01
6.875000e+01
7.500000e+01
7.500000e+01
7.500000e+01
7.500000e+01
7.500000e+01
7.500000e+01
7.500000e+01
7.500000e+01
7.500000e+01
7.500000e+01
7.500000e+01
7.500000e+01
7.500000e+01
7.500000e+01
7.500000e+01
7.500000e+01
7.500000e+01
7.500000e+01
7.500000e+01
7.500000e+01
7.500000e+01
7.500000e+01
7.500000e+01
7.500000e+01
7.500000e+01
7.500000e+01
7.500000e+01
7.500000e+01
7.500000e+01
7.500000e+01
7.500000e+01
7.500000e+01
7.500000e+01
8.125000e+01
8.125000e+01
8.125000e+01
8.125000e+01
8.125000e+01
8.125000e+01
8.125000e+01
8.125000e+01
8.125000e+01
8.125000e+01
8.125000e+01
8.125000e+01
8.125000e+01
8.125000e+01
8.125000e+01
8.125000e+01
8.125000e+01
8.125000e+01
8.125000e+01
8.125000e+01
8.125000e+01
8.125000e+01
8.125000e+01
8.125000e+01
8.125000e+01
8.125000e+01
8.125000e+01
8.125000e+01
8.125000e+01
8.125000e+01
8.125000e+01
8.125000e+01
8.125000e+01
8.750000e+01
8.750000e+01
8.750000e+01
8.750000e+01
8.750000e+01
8.750000e+01
8.750000e+01
8.750000e+01
8.750000e+01
8.750000e+01
8.750000e+01
8.750000e+01
8.750000e+01
8.750000e+01
8.750000e+01
8.750000e+01
8.750000e+01
8.750000e+01
8.750000e+01
8.750000e+01
8.750000e+01
8.750000e+01
8.750000e+01
8.750000e+01
8.750000e+01
8.750000e+01
8.750000e+01
8.750000e+01
8.750000e+01
8.750000e+01
8.750000e+01
8.750000e+01
8.750000e+01
9.375000e+01
9.375000e+01
9.375000e+01
9.375000e+01
9.375000e+01
9.375000e+01
9.375000e+01
9.375000e+01
9.375000e+01
9.375000e+01
9.375000e+01
9.375000e+01
9.375000e+01
9.375000e+01
9.375000e+01
9.375000e+01
9.375000e+01
9.375000e+01
9.375000e+01
9.375000e+01
9.375000e+01
9.375000e+01
9.375000e+01
9.375000e+01
9.375000e+01
9.375000e+01
9.375000e+01
9.375000e+01
9.375000e+01
9.375000e+01
9.375000e+01
9.375000e+01
9.375000e+01
1.000000e+02
1.000000e+02
1.000000e+02
1.000000e+02
1.000000e+02
1.000000e+02
1.000000e+02
1.000000e+02
1.000000e+02
1.000000e+02
1.000000e+02
1.000000e+02
1.000000e+02
1.000000e+02
1.000000e+02
1.000000e+02
1.000000e+02
1.000000e+02
1.000000e+02
1.000000e+02
1.000000e+02
1.000000e+02
1.000000e+02
1.000000e+02
1.000000e+02
1.000000e+02
1.000000e+02
1.000000e+02
1.000000e+02
1.000000e+02
1.000000e+02
1.000000e+02
1.000000e+02
0.000000e+00
-5.868846e-02
-1.064824e-01
-1.507568e-01
-1.932478e-01
-2.342794e-01
-2.739339e-01
-3.122078e-01
-3.490771e-01
-3.845148e-01
-4.184988e-01
-4.510137e-01
-4.820516e-01
-5.116119e-01
-5.397014e-01
-5.663350e-01
-5.915365e-01
-6.153405e-01
-6.377950e-01
-6.589645e-01
-6.789351e-01
-6.978206e-01
-7.157715e-01
-7.329873e-01
-7.497356e-01
-7.663796e-01
-7.834241e-01
-8.015889e-01
-8.219299e-01
-8.460010e-01
-8.758178e-01
-9.113513e-01
-9.330368e-01
0.000000e+00
-3.934900e-02
-8.186983e-02
-1.219614e-01
-1.600669e-01
-1.965493e-01
-2.316012e-01
-2.653070e-01
-2.977004e-01
-3.287921e-01
-3.585843e-01
-3.870769e-01
-4.142714e-01
-4.401721e-01
-4.647876e-01
-4.881316e-01
-5.102240e-01
-5.310921e-01
-5.507719e-01
-5.693105e-01
-5.867678e-01
-6.032193e-01
-6.187587e-01
-6.335006e-01
-6.475821e-01
-6.611608e-01
-6.744032e-01
-6.874460e-01
-7.002886e-01
-7.125129e-01
-7.226992e-01
-7.286545e-01
-7.369453e-01
0.000000e+00
-3.121171e-02
-6.425682e-02
-9.790202e-02
-1.305948e-01
-1.620829e-01
-1.923460e-01
-2.214130e-01
-2.493095e-01
-2.760530e-01
-3.016550e-01
-3.261234e-01
-3.494649e-01
-3.716865e-01
-3.927964e-01
-4.128048e-01
-4.317247e-01
-4.495725e-01
-4.663681e-01
-4.821357e-01
-4.969026e-01
-5.106988e-01
-5.235537e-01
-5.354901e-01
-5.465127e-01
-5.565862e-01
-5.655952e-01
-5.732748e-01
-5.791054e-01
-5.822450e-01
-5.819697e-01
-5.802068e-01
-5.898882e-01
0.000000e+00
-2.476373e-02
-5.089510e-02
-7.774186e-02
-1.045257e-01
-1.306609e-01
-1.559235e-01
-1.802333e-01
-2.035685e-01
-2.259283e-01
-2.473182e-01
-2.677455e-01
-2.872171e-01
-3.057391e-01
-3.233169e-01
-3.399556e-01
-3.556597e-01
-3.704331e-01
-3.842790e-01
-3.971981e-01
-4.091871e-01
-4.202350e-01
-4.303175e-01
-4.393873e-01
-4.473610e-01
-4.540977e-01
-4.593744e-01
-4.628688e-01
-4.642030e-01
-4.632126e-01
-4.608070e-01
-4.606634e-01
-4.698874e-01
0.000000e+00
-1.922011e-02
-3.935624e-02
-6.013563e-02
-8.108386e-02
-1.017752e-01
-1.219241e-01
-1.413861e-01
-1.600954e-01
-1.780268e-01
-1.951736e-01
-2.115368e-01
-2.271193e-01
-2.419239e-01
-2.559515e-01
-2.692008e-01
-2.816677e-01
-2.933447e-01
-3.042198e-01
-3.142746e-01
-3.234822e-01
-3.318033e-01
-3.391809e-01
-3.455339e-01
-3.507501e-01
-3.546820e-01
-3.571561e-01
-3.580241e-01
-3.573120e-01
-3.555698e-01
-3.544395e-01
-3.570497e-01
-3.649182e-01
0.000000e+00
-1.412567e-02
-2.885654e-02
-4.406068e-02
-5.947538e-02
-7.481292e-02
-8.984484e-02
-1.044227e-01
-1.184649e-01
-1.319319e-01
-1.448070e-01
-1.570841e-01
-1.687614e-01
-1.798366e-01
-1.903056e-01
-2.001609e-01
-2.093909e-01
-2.179785e-01
-2.259008e-01
-2.331265e-01
-2.396151e-01
-2.453139e-01
-2.501563e-01
-2.540611e-01
-2.569356e-01
-2.586896e-01
-2.592715e-01
-2.587493e-01
-2.574622e-01
-2.562377e-01
-2.565358e-01
-2.598633e-01
-2.663739e-01
0.000000e+00
-9.296390e-03
-1.896050e-02
-2.893119e-02
-3.906628e-02
-4.919517e-02
-5.916512e-02
-6.886477e-02
-7.822445e-02
-8.720571e-02
-9.578911e-02
-1.039649e-01
-1.117268e-01
-1.190683e-01
-1.259806e-01
-1.324511e-01
-1.384623e-01
-1.439910e-01
-1.490077e-01
-1.534753e-01
-1.573490e-01
-1.605763e-01
-1.630985e-01
-1.648560e-01
-1.658004e-01
-1.659176e-01
-1.652719e-01
-1.640771e-01
-1.627878e-01
-1.621628e-01
-1.631379e-01
-1.663775e-01
-1.716330e-01
0.000000e+00
-4.617515e-03
-9.409600e-03
-1.435163e-02
-1.938119e-02
-2.441882e-02
-2.938907e-02
-3.423290e-02
-3.891042e-02
-4.339725e-02
-4.767897e-02
-5.174601e-02
-5.559004e-02
-5.920155e-02
-6.256822e-02
-6.567388e-02
-6.849770e-02
-7.101360e-02
-7.318997e-02
-7.498973e-02
-7.637129e-02
-7.729089e-02
-7.770747e-02
-7.759161e-02
-7.694101e-02
-7.580535e-02
-7.432204e-02
-7.275912e-02
-7.154584e-02
-7.124190e-02
-7.238591e-02
-7.521206e-02
-7.938219e-02
0.000000e+00
-7.449782e-06
-1.615337e-05
-2.562864e-05
-3.537722e-05
-4.472711e-05
-5.266560e-05
-5.765359e-05
-5.740882e-05
-4.864517e-05
-2.675751e-05
1.455313e-05
8.371341e-05
1.917607e-04
3.528523e-04
5.847580e-04
9.092572e-04
1.352320e-03
1.943875e-03
2.716870e-03
3.705180e-03
4.939725e-03
6.441920e-03
8.213395e-03
1.022096e-02
1.237669e-02
1.451552e-02
1.637894e-02
1.762286e-02
1.787512e-02
1.685941e-02
1.455916e-02
1.133753e-02
0.000000e+00
4.603484e-03
9.379114e-03
1.430316e-02
1.931413e-02
2.433379e-02
2.928858e-02
3.412231e-02
3.879937e-02
4.330151e-02
4.762293e-02
5.176590e-02
5.573795e-02
5.955032e-02
6.321741e-02
6.675666e-02
7.018851e-02
7.353624e-02
7.682540e-02
8.008226e-02
8.333117e-02
8.659000e-02
8.986341e-02
9.313322e-02
9.634628e-02
9.940120e-02
1.021381e-01
1.043393e-01
1.057537e-01
1.061541e-01
1.054289e-01
1.036815e-01
1.012905e-01
0.000000e+00
9.284929e-03
1.893542e-02
2.889104e-02
3.901029e-02
4.912352e-02
5.907945e-02
6.876899e-02
7.812585e-02
8.711652e-02
9.572852e-02
1.039617e-01
1.118226e-01
1.193220e-01
1.264729e-01
1.332906e-01
1.397922e-01
1.459961e-01
1.519217e-01
1.575874e-01
1.630077e-01
1.681895e-01
1.731259e-01
1.777883e-01
1.821182e-01
1.860194e-01
1.893564e-01
1.919627e-01
1.936686e-01
1.943506e-01
1.940000e-01
1.927908e-01
1.911220e-01
0.000000e+00
1.411836e-02
2.884025e-02
4.403415e-02
5.943772e-02
7.476375e-02
8.978468e-02
1.043534e-01
1.183906e-01
1.318596e-01
1.447482e-01
1.570567e-01
1.687913e-01
1.799613e-01
1.905770e-01
2.006498e-01
2.101915e-01
2.192142e-01
2.277296e-01
2.357474e-01
2.432732e-01
2.503054e-01
2.568302e-01
2.628170e-01
2.682127e-01
2.729390e-01
2.768941e-01
2.799636e-01
2.820452e-01
2.830883e-01
2.831469e-01
2.824376e-01
2.813829e-01
0.000000e+00
1.921830e-02
3.935170e-02
6.012750e-02
8.107129e-02
1.017575e-01
1.219008e-01
1.413571e-01
1.600614e-01
1.779892e-01
1.951354e-01
2.115028e-01
2.270974e-01
2.419257e-01
2.559939e-01
2.693078e-01
2.818724e-01
2.936918e-01
3.047688e-01
3.151040e-01
3.246943e-01
3.335308e-01
3.415966e-01
3.488637e-01
3.552913e-01
3.608256e-01
3.654030e-01
3.689606e-01
3.714538e-01
3.728862e-01
3.733508e-01
3.730845e-01
3.725289e-01
0.000000e+00
2.476832e-02
5.090446e-02
7.775577e-02
1.045438e-01
1.306826e-01
1.559481e-01
1.802596e-01
2.035945e-01
2.259507e-01
2.473323e-01
2.677441e-01
2.871900e-01
3.056722e-01
3.231910e-01
3.397450e-01
3.553309e-01
3.699439e-01
3.835765e-01
3.962192e-01
4.078593e-01
4.184804e-01
4.280623e-01
4.365811e-01
4.440093e-01
4.503193e-01
4.554873e-01
4.595018e-01
4.623749e-01
4.641604e-01
4.649817e-01
4.650796e-01
4.648953e-01
0.000000e+00
3.122294e-02
6.428079e-02
9.793956e-02
1.306466e-01
1.621496e-01
1.924278e-01
2.215088e-01
2.494167e-01
2.761660e-01
3.017642e-01
3.262130e-01
3.495110e-01
3.716537e-01
3.926341e-01
4.124428e-01
4.310675e-01
4.484931e-01
4.647011e-01
4.796699e-01
4.933750e-01
5.057897e-01
5.168870e-01
5.266421e-01
5.350364e-01
5.420636e-01
5.477364e-01
5.520947e-01
5.552139e-01
5.572117e-01
5.582573e-01
5.585979e-01
5.586386e-01
0.000000e+00
3.936586e-02
8.190666e-02
1.220206e-01
1.601515e-01
1.966621e-01
2.317447e-01
2.654825e-01
2.979073e-01
3.290262e-01
3.588359e-01
3.873282e-01
4.144923e-01
4.403157e-01
4.647838e-01
4.878793e-01
5.095809e-01
5.298632e-01
5.486957e-01
5.660429e-01
5.818648e-01
5.961187e-01
6.087626e-01
6.197602e-01
6.290887e-01
6.367486e-01
6.427762e-01
6.472562e-01
6.503337e-01
6.522194e-01
6.531828e-01
6.535321e-01
6.536176e-01
0.000000e+00
5.870692e-02
1.065255e-01
1.508306e-01
1.933582e-01
2.344325e-01
2.741359e-01
3.124647e-01
3.493934e-01
3.848926e-01
4.189348e-01
4.514964e-01
4.825565e-01
5.120951e-01
5.400918e-01
5.665231e-01
5.913608e-01
6.145705e-01
6.361097e-01
6.559272e-01
6.739636e-01
6.901524e-01
7.044241e-01
7.167132e-01
7.269691e-01
7.351711e-01
7.413483e-01
7.456037e-01
7.481402e-01
7.492830e-01
7.494907e-01
7.493187e-01
7.492219e-01
0.000000e+00
-3.626836e-02
-6.329617e-02
-9.279006e-02
-1.256333e-01
-1.627330e-01
-2.043470e-01
-2.505477e-01
-3.012890e-01
-3.564621e-01
-4.159209e-01
-4.794970e-01
-5.470092e-01
-6.182684e-01
-6.930820e-01
-7.712559e-01
-8.525971e-01
-9.369162e-01
-1.024030e+00
-1.113766e+00
-1.205968e+00
-1.300505e+00
-1.397282e+00
-1.496263e+00
-1.597497e+00
-1.701170e+00
-1.807697e+00
-1.917880e+00
-2.033257e+00
-2.156875e+00
-2.295304e+00
-2.464050e+00
-2.697176e+00
0.000000e+00
-2.253940e-02
-5.083040e-02
-8.052324e-02
-1.138242e-01
-1.513270e-01
-1.933453e-01
-2.399503e-01
-2.911000e-01
-3.466855e-01
-4.065599e-01
-4.705534e-01
-5.384832e-01
-6.101588e-01
-6.853857e-01
-7.639678e-01
-8.457098e-01
-9.304194e-01
-1.017910e+00
-1.108005e+00
-1.200542e+00
-1.295383e+00
-1.392427e+00
-1.491624e+00
-1.593010e+00
-1.696757e+00
-1.803254e+00
-1.913281e+00
-2.028344e+00
-2.151437e+00
-2.288798e+00
-2.453786e+00
-2.671586e+00
0.000000e+00
-1.655650e-02
-4.097924e-02
-7.026702e-02
-1.036262e-01
-1.414053e-01
-1.837552e-01
-2.307154e-01
-2.822294e-01
-3.381831e-01
-3.984272e-01
-4.627905e-01
-5.310895e-01
-6.031328e-01
-6.787253e-01
-7.576702e-01
-8.397713e-01
-9.248350e-01
-1.012674e+00
-1.103109e+00
-1.195977e+00
-1.291140e+00
-1.388494e+00
-1.487993e+00
-1.589677e+00
-1.693726e+00
-1.800548e+00
-1.910941e+00
-2.026394e+00
-2.149603e+00
-2.285176e+00
-2.438558e+00
-2.608704e+00
0.000000e+00
-1.325775e-02
-3.470117e-02
-6.242717e-02
-9.535759e-02
-1.331249e-01
-1.756561e-01
-2.228793e-01
-2.746931e-01
-3.309624e-01
-3.915283e-01
-4.562156e-01
-5.248389e-01
-5.972067e-01
-6.731240e-01
-7.523946e-01
-8.348227e-01
-9.202158e-01
-1.008387e+00
-1.099159e+00
-1.192372e+00
-1.287889e+00
-1.385612e+00
-1.485503e+00
-1.587612e+00
-1.692127e+00
-1.799453e+00
-1.910324e+00
-2.025959e+00
-2.148135e+00
-2.278552e+00
-2.416102e+00
-2.544146e+00
0.000000e+00
-1.121826e-02
-3.059554e-02
-5.685995e-02
-8.903970e-02
-1.265594e-01
-1.691065e-01
-2.164832e-01
-2.685184e-01
-3.250418e-01
-3.858769e-01
-4.508402e-01
-5.197432e-01
-5.923937e-01
-6.685974e-01
-7.481595e-01
-8.308862e-01
-9.165871e-01
-1.005078e+00
-1.096184e+00
-1.189750e+00
-1.285642e+00
-1.383768e+00
-1.484090e+00
-1.586656e+00
-1.691630e+00
-1.799342e+00
-1.910322e+00
-2.025269e+00
-2.144749e+00
-2.268191e+00
-2.391062e+00
-2.502575e+00
0.000000e+00
-9.920508e-03
-2.790173e-02
-5.302884e-02
-8.448421e-02
-1.216525e-01
-1.641071e-01
-2.115444e-01
-2.637253e-01
-3.204391e-01
-3.814875e-01
-4.466760e-01
-5.158117e-01
-5.887014e-01
-6.651518e-01
-7.449700e-01
-8.279647e-01
-9.139484e-01
-1.002740e+00
-1.094167e+00
-1.188076e+00
-1.284336e+00
-1.382850e+00
-1.483570e+00
-1.586514e+00
-1.691782e+00
-1.799559e+00
-1.910078e+00
-2.023466e+00
-2.139342e+00
-2.255939e+00
-2.369093e+00
-2.472514e+00
0.000000e+00
-9.113971e-03
-2.619858e-02
-5.053853e-02
-8.143236e-02
-1.182803e-01
-1.606089e-01
-2.080521e-01
-2.603191e-01
-3.171648e-01
-3.783703e-01
-4.437310e-01
-5.130493e-01
-5.861312e-01
-6.627845e-01
-7.428185e-01
-8.260446e-01
-9.122777e-01
-1.001338e+00
-1.093057e+00
-1.187277e+00
-1.283862e+00
-1.382703e+00
-1.483725e+00
-1.586894e+00
-1.692210e+00
-1.799685e+00
-1.909256e+00
-2.020607e+00
-2.132831e+00
-2.243988e+00
-2.350872e+00
-2.449557e+00
0.000000e+00
-8.670768e-03
-2.525354e-02
-4.913520e-02
-7.968239e-02
-1.163161e-01
-1.585475e-01
-2.059803e-01
-2.582938e-01
-3.152210e-01
-3.765296e-01
-4.420076e-01
-5.114549e-01
-5.846774e-01
-6.614843e-01
-7.416871e-01
-8.250994e-01
-9.115377e-01
-1.000823e+00
-1.092784e+00
-1.187259e+00
-1.284100e+00
-1.383173e+00
-1.484366e+00
-1.587577e+00
-1.692700e+00
-1.799579e+00
-1.907924e+00
-2.017156e+00
-2.126201e+00
-2.233308e+00
-2.336065e+00
-2.431794e+00
0.000000e+00
-8.527969e-03
-2.494864e-02
-4.868036e-02
-7.911206e-02
-1.156732e-01
-1.578722e-01
-2.053043e-01
-2.576399e-01
-3.146052e-01
-3.759640e-01
-4.415030e-01
-5.110222e-01
-5.843288e-01
-6.612340e-01
-7.415511e-01
-8.250953e-01
-9.116836e-01
-1.001136e+00
-1.093276e+00
-1.187932e+00
-1.284939e+00
-1.384136e+00
-1.485362e+00
-1.588446e+00
-1.693184e+00
-1.799290e+00
-1.906328e+00
-2.013606e+00
-2.120067e+00
-2.224230e+00
-2.324256e+00
-2.418180e+00
0.000000e+00
-8.666637e-03
-2.524781e-02
-4.913026e-02
-7.968090e-02
-1.163213e-01
-1.585638e-01
-2.060134e-01
-2.583513e-01
-3.153129e-01
-3.766686e-01
-4.422100e-01
-5.117405e-01
-5.850702e-01
-6.620124e-01
-7.423822e-01
-8.259956e-01
-9.126689e-01
-1.002219e+00
-1.094463e+00
-1.189217e+00
-1.286295e+00
-1.385504e+00
-1.486637e+00
-1.589462e+00
-1.693692e+00
-1.798955e+00
-1.904736e+00
-2.010325e+00
-2.114758e+00
-2.216816e+00
-2.315074e+00
-2.408034e+00
0.000000e+00
-9.106045e-03
-2.618758e-02
-5.052902e-02
-8.142938e-02
-1.182902e-01
-1.606398e-01
-2.081152e-01
-2.604289e-01
-3.173405e-01
-3.786365e-01
-4.441186e-01
-5.135966e-01
-5.868843e-01
-6.637975e-01
-7.441525e-01
-8.277655e-01
-9.144512e-01
-1.004022e+00
-1.096288e+00
-1.191051e+00
-1.288105e+00
-1.387226e+00
-1.488166e+00
-1.590640e+00
-1.694303e+00
-1.798728e+00
-1.903371e+00
-2.007550e+00
-2.110423e+00
-2.211001e+00
-2.308188e+00
-2.400832e+00
0.000000e+00
-9.909492e-03
-2.788644e-02
-5.301555e-02
-8.447991e-02
-1.216659e-01
-1.641499e-01
-2.116320e-01
-2.638782e-01
-3.206841e-01
-3.818589e-01
-4.472173e-01
-5.165766e-01
-5.897547e-01
-6.665693e-01
-7.468378e-01
-8.303757e-01
-9.169958e-01
-1.006507e+00
-1.098709e+00
-1.193393e+00
-1.290332e+00
-1.389278e+00
-1.489949e+00
-1.592019e+00
-1.695102e+00
-1.798742e+00
-1.902393e+00
-2.005420e+00
-2.107103e+00
-2.206660e+00
-2.303275e+00
-2.396110e+00
0.000000e+00
-1.120528e-02
-3.057754e-02
-5.684429e-02
-8.903472e-02
-1.265757e-01
-1.691582e-01
-2.165890e-01
-2.687030e-01
-3.253377e-01
-3.863257e-01
-4.514946e-01
-5.206682e-01
-5.936678e-01
-6.703127e-01
-7.504204e-01
-8.338056e-01
-9.202791e-01
-1.009645e+00
-1.101697e+00
-1.196215e+00
-1.292958e+00
-1.391655e+00
-1.492000e+00
-1.593639e+00
-1.696161e+00
-1.799093e+00
-1.901900e+00
-2.003997e+00
-2.104773e+00
-2.203630e+00
-2.300014e+00
-2.393408e+00
0.000000e+00
-1.324442e-02
-3.468269e-02
-6.241125e-02
-9.535332e-02
-1.331441e-01
-1.757143e-01
-2.229973e-01
-2.748984e-01
-3.312908e-01
-3.920258e-01
-4.569403e-01
-5.258625e-01
-5.986157e-01
-6.750198e-01
-7.548920e-01
-8.380461e-01
-9.242907e-01
-1.013426e+00
-1.105242e+00
-1.199509e+00
-1.295976e+00
-1.394358e+00
-1.494333e+00
-1.595528e+00
-1.697518e+00
-1.799825e+00
-1.901927e+00
-2.003279e+00
-2.103359e+00
-2.201725e+00
-2.298066e+00
-2.392231e+00
0.000000e+00
-1.654487e-02
-4.096306e-02
-7.025358e-02
-1.036249e-01
-1.414286e-01
-1.838195e-01
-2.308424e-01
-2.824475e-01
-3.385296e-01
-3.989495e-01
-4.635486e-01
-5.321570e-01
-6.045985e-01
-6.806927e-01
-7.602562e-01
-8.431016e-01
-9.290359e-01
-1.017857e+00
-1.109350e+00
-1.203283e+00
-1.299395e+00
-1.397397e+00
-1.496956e+00
-1.597691e+00
-1.699175e+00
-1.800928e+00
-1.902440e+00
-2.003198e+00
-2.102741e+00
-2.200737e+00
-2.297088e+00
-2.392025e+00
0.000000e+00
-2.253193e-02
-5.081939e-02
-8.051533e-02
-1.138291e-01
-1.513573e-01
-1.934178e-01
-2.400866e-01
-2.913285e-01
-3.470431e-01
-4.070934e-01
-4.713216e-01
-5.395579e-01
-6.116258e-01
-6.873445e-01
-7.665294e-01
-8.489921e-01
-9.345377e-01
-1.022962e+00
-1.114049e+00
-1.207562e+00
-1.303239e+00
-1.400788e+00
-1.499873e+00
-1.600115e+00
-1.701087e+00
-1.802321e+00
-1.903318e+00
-2.003590e+00
-2.102712e+00
-2.200415e+00
-2.296734e+00
-2.392200e+00
0.000000e+00
-3.626730e-02
-6.329250e-02
-9.279077e-02
-1.256481e-01
-1.627747e-01
-2.044322e-01
-2.506978e-01
-3.015320e-01
-3.568338e-01
-4.164663e-01
-4.802722e-01
-5.480817e-01
-6.197182e-01
-6.950001e-01
-7.737421e-01
-8.557539e-01
-9.408389e-01
-1.028791e+00
-1.119391e+00
-1.212401e+00
-1.307558e+00
-1.404567e+00