TITLE = "Solution"
VARIABLES = x, y, u, v, psiu, psiv, t, stress
ZONE T="structure" N=561 E=512 F=FEBLOCK ET=QUADRILATERAL VARLOCATION=([7,8]=cellcentered)
0.000000e+00
6.250000e+00
1.250000e+01
1.875000e+01
2.500000e+01
3.125000e+01
3.750000e+01
4.375000e+01
5.000000e+01
5.625000e+01
6.250000e+01
6.875000e+01
7.500000e+01
8.125000e+01
8.750000e+01
9.375000e+01
1.000000e+02
1.062500e+02
1.125000e+02
1.187500e+02
1.250000e+02
1.312500e+02
1.375000e+02
1.437500e+02
1.500000e+02
1.562500e+02
1.625000e+02
1.687500e+02
1.750000e+02
1.812500e+02
1.875000e+02
1.937500e+02
2.000000e+02
0.000000e+00
6.250000e+00
1.250000e+01
1.875000e+01
2.500000e+01
3.125000e+01
3.750000e+01
4.375000e+01
5.000000e+01
5.625000e+01
6.250000e+01
6.875000e+01
7.500000e+01
8.125000e+01
8.750000e+01
9.375000e+01
1.000000e+02
1.062500e+02
1.125000e+02
1.187500e+02
1.250000e+02
1.312500e+02
1.375000e+02
1.437500e+02
1.500000e+02
1.562500e+02
1.625000e+02
1.687500e+02
1.750000e+02
1.812500e+02
1.875000e+02
1.937500e+02
2.000000e+02
0.000000e+00
6.250000e+00
1.250000e+01
1.875000e+01
2.500000e+01
3.125000e+01
3.750000e+01
4.375000e+01
5.000000e+01
5.625000e+01
6.250000e+01
6.875000e+01
7.500000e+01
8.125000e+01
8.750000e+01
9.375000e+01
1.000000e+02
1.062500e+02
1.125000e+02
1.187500e+02
1.250000e+02
1.312500e+02
1.375000e+02
1.437500e+02
1.500000e+02
1.562500e+02
1.625000e+02
1.687500e+02
1.750000e+02
1.812500e+02
1.875000e+02
1.937500e+02
2.000000e+02
0.000000e+00
6.250000e+00
1.250000e+01
1.875000e+01
2.500000e+01
3.125000e+01
3.750000e+01
4.375000e+01
5.000000e+01
5.625000e+01
6.250000e+01
6.875000e+01
7.500000e+01
8.125000e+01
8.750000e+01
9.375000e+01
1.000000e+02
1.062500e+02
1.125000e+02
1.187500e+02
1.250000e+02
1.312500e+02
1.375000e+02
1.437500e+02
1.500000e+02
1.562500e+02
1.625000e+02
1.687500e+02
1.750000e+02
1.812500e+02
1.875000e+02
1.937500e+02
2.000000e+02
0.000000e+00
6.250000e+00
1.250000e+01
1.875000e+01
2.500000e+01
3.125000e+01
3.750000e+01
4.375000e+01
5.000000e+01
5.625000e+01
6.250000e+01
6.875000e+01
7.500000e+01
8.125000e+01
8.750000e+01
9.375000e+01
1.000000e+02
1.062500e+02
1.125000e+02
1.187500e+02
1.250000e+02
1.312500e+02
1.375000e+02
1.437500e+02
1.500000e+02
1.562500e+02
1.625000e+02
1.687500e+02
1.750000e+02
1.812500e+02
1.875000e+02
1.937500e+02
2.000000e+02
0.000000e+00
6.250000e+00
1.250000e+01
1.875000e+01
2.500000e+01
3.125000e+01
3.750000e+01
4.375000e+01
5.000000e+01
5.625000e+01
6.250000e+01
6.875000e+01
7.500000e+01
8.125000e+01
8.750000e+01
9.375000e+01
1.000000e+02
1.062500e+02
1.125000e+02
1.187500e+02
1.250000e+02
1.312500e+02
1.375000e+02
1.437500e+02
1.500000e+02
1.562500e+02
1.625000e+02
1.687500e+02
1.750000e+02
1.812500e+02
1.875000e+02
1.937500e+02
2.000000e+02
0.000000e+00
6.250000e+00
1.250000e+01
1.875000e+01
2.500000e+01
3.125000e+01
3.750000e+01
4.375000e+01
5.000000e+01
5.625000e+01
6.250000e+01
6.875000e+01
7.500000e+01
8.125000e+01
8.750000e+01
9.375000e+01
1.000000e+02
1.062500e+02
1.125000e+02
1.187500e+02
1.250000e+02
1.312500e+02
1.375000e+02
1.437500e+02
1.500000e+02
1.562500e+02
1.625000e+02
1.687500e+02
1.750000e+02
1.812500e+02
1.875000e+02
1.937500e+02
2.000000e+02
0.000000e+00
6.250000e+00
1.250000e+01
1.875000e+01
2.500000e+01
3.125000e+01
3.750000e+01
4.375000e+01
5.000000e+01
5.625000e+01
6.250000e+01
6.875000e+01
7.500000e+01
8.125000e+01
8.750000e+01
9.375000e+01
1.000000e+02
1.062500e+02
1.125000e+02
1.187500e+02
1.250000e+02
1.312500e+02
1.375000e+02
1.437500e+02
1.500000e+02
1.562500e+02
1.625000e+02
1.687500e+02
1.750000e+02
1.812500e+02
1.875000e+02
1.937500e+02
2.000000e+02
0.000000e+00
6.250000e+00
1.250000e+01
1.875000e+01
2.500000e+01
3.125000e+01
3.750000e+01
4.375000e+01
5.000000e+01
5.625000e+01
6.250000e+01
6.875000e+01
7.500000e+01
8.125000e+01
8.750000e+01
9.375000e+01
1.000000e+02
1.062500e+02
1.125000e+02
1.187500e+02
1.250000e+02
1.312500e+02
1.375000e+02
1.437500e+02
1.500000e+02
1.562500e+02
1.625000e+02
1.687500e+02
1.750000e+02
1.812500e+02
1.875000e+02
1.937500e+02
2.000000e+02
0.000000e+00
6.250000e+00
1.250000e+01
1.875000e+01
2.500000e+01
3.125000e+01
3.750000e+01
4.375000e+01
5.000000e+01
5.625000e+01
6.250000e+01
6.875000e+01
7.500000e+01
8.125000e+01
8.750000e+01
9.375000e+01
1.000000e+02
1.062500e+02
1.125000e+02
1.187500e+02
1.250000e+02
1.312500e+02
1.375000e+02
1.437500e+02
1.500000e+02
1.562500e+02
1.625000e+02
1.687500e+02
1.750000e+02
1.812500e+02
1.875000e+02
1.937500e+02
2.000000e+02
0.000000e+00
6.250000e+00
1.250000e+01
1.875000e+01
2.500000e+01
3.125000e+01
3.750000e+01
4.375000e+01
5.000000e+01
5.625000e+01
6.250000e+01
6.875000e+01
7.500000e+01
8.125000e+01
8.750000e+01
9.375000e+01
1.000000e+02
1.062500e+02
1.125000e+02
1.187500e+02
1.250000e+02
1.312500e+02
1.375000e+02
1.437500e+02
1.500000e+02
1.562500e+02
1.625000e+02
1.687500e+02
1.750000e+02
1.812500e+02
1.875000e+02
1.937500e+02
2.000000e+02
0.000000e+00
6.250000e+00
1.250000e+01
1.875000e+01
2.500000e+01
3.125000e+01
3.750000e+01
4.375000e+01
5.000000e+01
5.625000e+01
6.250000e+01
6.875000e+01
7.500000e+01
8.125000e+01
8.750000e+01
9.375000e+01
1.000000e+02
1.062500e+02
1.125000e+02
1.187500e+02
1.250000e+02
1.312500e+02
1.375000e+02
1.437500e+02
1.500000e+02
1.562500e+02
1.625000e+02
1.687500e+02
1.750000e+02
1.812500e+02
1.875000e+02
1.937500e+02
2.000000e+02
0.000000e+00
6.250000e+00
1.250000e+01
1.875000e+01
2.500000e+01
3.125000e+01
3.750000e+01
4.375000e+01
5.000000e+01
5.625000e+01
6.250000e+01
6.875000e+01
7.500000e+01
8.125000e+01
8.750000e+01
9.375000e+01
1.000000e+02
1.062500e+02
1.125000e+02
1.187500e+02
1.250000e+02
1.312500e+02
1.375000e+02
1.437500e+02
1.500000e+02
1.562500e+02
1.625000e+02
1.687500e+02
1.750000e+02
1.812500e+02
1.875000e+02
1.937500e+02
2.000000e+02
0.000000e+00
6.250000e+00
1.250000e+01
1.875000e+01
2.500000e+01
3.125000e+01
3.750000e+01
4.375000e+01
5.000000e+01
5.625000e+01
6.250000e+01
6.875000e+01
7.500000e+01
8.125000e+01
8.750000e+01
9.375000e+01
1.000000e+02
1.062500e+02
1.125000e+02
1.187500e+02
1.250000e+02
1.312500e+02
1.375000e+02
1.437500e+02
1.500000e+02
1.562500e+02
1.625000e+02
1.687500e+02
1.750000e+02
1.812500e+02
1.875000e+02
1.937500e+02
2.000000e+02
0.000000e+00
6.250000e+00
1.250000e+01
1.875000e+01
2.500000e+01
3.125000e+01
3.750000e+01
4.375000e+01
5.000000e+01
5.625000e+01
6.250000e+01
6.875000e+01
7.500000e+01
8.125000e+01
8.750000e+01
9.375000e+01
1.000000e+02
1.062500e+02
1.125000e+02
1.187500e+02
1.250000e+02
1.312500e+02
1.375000e+02
1.437500e+02
1.500000e+02
1.562500e+02
1.625000e+02
1.687500e+02
1.750000e+02
1.812500e+02
1.875000e+02
1.937500e+02
2.000000e+02
0.000000e+00
6.250000e+00
1.250000e+01
1.875000e+01
2.500000e+01
3.125000e+01
3.750000e+01
4.375000e+01
5.000000e+01
5.625000e+01
6.250000e+01
6.875000e+01
7.500000e+01
8.125000e+01
8.750000e+01
9.375000e+01
1.000000e+02
1.062500e+02
1.125000e+02
1.187500e+02
1.250000e+02
1.312500e+02
1.375000e+02
1.437500e+02
1.500000e+02
1.562500e+02
1.625000e+02
1.687500e+02
1.750000e+02
1.812500e+02
1.875000e+02
1.937500e+02
2.000000e+02
0.000000e+00
6.250000e+00
1.250000e+01
1.875000e+01
2.500000e+01
3.125000e+01
3.750000e+01
4.375000e+01
5.000000e+01
5.625000e+01
6.250000e+01
6.875000e+01
7.500000e+01
8.125000e+01
8.750000e+01
9.375000e+01
1.000000e+02
1.062500e+02
1.125000e+02
1.187500e+02
1.250000e+02
1.312500e+02
1.375000e+02
1.437500e+02
1.500000e+02
1.562500e+02
1.625000e+02
1.687500e+02
1.750000e+02
1.812500e+02
1.875000e+02
1.937500e+02
2.000000e+02
0.000000e+00
0.000000e+00
0.000000e+00
0.000000e+00
0.000000e+00
0.000000e+00
0.000000e+00
0.000000e+00
0.000000e+00
0.000000e+00
0.000000e+00
0.000000e+00
0.000000e+00
0.000000e+00
0.000000e+00
0.000000e+00
0.000000e+00
0.000000e+00
0.000000e+00
0.000000e+00
0.000000e+00
0.000000e+00
0.000000e+00
0.000000e+00
0.000000e+00
0.000000e+00
0.000000e+00
0.000000e+00
0.000000e+00
0.000000e+00
0.000000e+00
0.000000e+00
0.000000e+00
6.250000e+00
6.250000e+00
6.250000e+00
6.250000e+00
6.250000e+00
6.250000e+00
6.250000e+00
6.250000e+00
6.250000e+00
6.250000e+00
6.250000e+00
6.250000e+00
6.250000e+00
6.250000e+00
6.250000e+00
6.250000e+00
6.250000e+00
6.250000e+00
6.250000e+00
6.250000e+00
6.250000e+00
6.250000e+00
6.250000e+00
6.250000e+00
6.250000e+00
6.250000e+00
6.250000e+00
6.250000e+00
6.250000e+00
6.250000e+00
6.250000e+00
6.250000e+00
6.250000e+00
1.250000e+01
1.250000e+01
1.250000e+01
1.250000e+01
1.250000e+01
1.250000e+01
1.250000e+01
1.250000e+01
1.250000e+01
1.250000e+01
1.250000e+01
1.250000e+01
1.250000e+01
1.250000e+01
1.250000e+01
1.250000e+01
1.250000e+01
1.250000e+01
1.250000e+01
1.250000e+01
1.250000e+01
1.250000e+01
1.250000e+01
1.250000e+01
1.250000e+01
1.250000e+01
1.250000e+01
1.250000e+01
1.250000e+01
1.250000e+01
1.250000e+01
1.250000e+01
1.250000e+01
1.875000e+01
1.875000e+01
1.875000e+01
1.875000e+01
1.875000e+01
1.875000e+01
1.875000e+01
1.875000e+01
1.875000e+01
1.875000e+01
1.875000e+01
1.875000e+01
1.875000e+01
1.875000e+01
1.875000e+01
1.875000e+01
1.875000e+01
1.875000e+01
1.875000e+01
1.875000e+01
1.875000e+01
1.875000e+01
1.875000e+01
1.875000e+01
1.875000e+01
1.875000e+01
1.875000e+01
1.875000e+01
1.875000e+01
1.875000e+01
1.875000e+01
1.875000e+01
1.875000e+01
2.500000e+01
2.500000e+01
2.500000e+01
2.500000e+01
2.500000e+01
2.500000e+01
2.500000e+01
2.500000e+01
2.500000e+01
2.500000e+01
2.500000e+01
2.500000e+01
2.500000e+01
2.500000e+01
2.500000e+01
2.500000e+01
2.500000e+01
2.500000e+01
2.500000e+01
2.500000e+01
2.500000e+01
2.500000e+01
2.500000e+01
2.500000e+01
2.500000e+01
2.500000e+01
2.500000e+01
2.500000e+01
2.500000e+01
2.500000e+01
2.500000e+01
2.500000e+01
2.500000e+01
3.125000e+01
3.125000e+01
3.125000e+01
3.125000e+01
3.125000e+01
3.125000e+01
3.125000e+01
3.125000e+01
3.125000e+01
3.125000e+01
3.125000e+01
3.125000e+01
3.125000e+01
3.125000e+01
3.125000e+01
3.125000e+01
3.125000e+01
3.125000e+01
3.125000e+01
3.125000e+01
3.125000e+01
3.125000e+01
3.125000e+01
3.125000e+01
3.125000e+01
3.125000e+01
3.125000e+01
3.125000e+01
3.125000e+01
3.125000e+01
3.125000e+01
3.125000e+01
3.125000e+01
3.750000e+01
3.750000e+01
3.750000e+01
3.750000e+01
3.750000e+01
3.750000e+01
3.750000e+01
3.750000e+01
3.750000e+01
3.750000e+01
3.750000e+01
3.750000e+01
3.750000e+01
3.750000e+01
3.750000e+01
3.750000e+01
3.750000e+01
3.750000e+01
3.750000e+01
3.750000e+01
3.750000e+01
3.750000e+01
3.750000e+01
3.750000e+01
3.750000e+01
3.750000e+01
3.750000e+01
3.750000e+01
3.750000e+01
3.750000e+01
3.750000e+01
3.750000e+01
3.750000e+01
4.375000e+01
4.375000e+01
4.375000e+01
4.375000e+01
4.375000e+01
4.375000e+01
4.375000e+01
4.375000e+01
4.375000e+01
4.375000e+01
4.375000e+01
4.375000e+01
4.375000e+01
4.375000e+01
4.375000e+01
4.375000e+01
4.375000e+01
4.375000e+01
4.375000e+01
4.375000e+01
4.375000e+01
4.375000e+01
4.375000e+01
4.375000e+01
4.375000e+01
4.375000e+01
4.375000e+01
4.375000e+01
4.375000e+01
4.375000e+01
4.375000e+01
4.375000e+01
4.375000e+01
5.000000e+01
5.000000e+01
5.000000e+01
5.000000e+01
5.000000e+01
5.000000e+01
5.000000e+01
5.000000e+01
5.000000e+01
5.000000e+01
5.000000e+01
5.000000e+01
5.000000e+01
5.000000e+01
5.000000e+01
5.000000e+01
5.000000e+01
5.000000e+01
5.000000e+01
5.000000e+01
5.000000e+01
5.000000e+01
5.000000e+01
5.000000e+01
5.000000e+01
5.000000e+01
5.000000e+01
5.000000e+01
5.000000e+01
5.000000e+01
5.000000e+01
5.000000e+01
5.000000e+01
5.625000e+01
5.625000e+01
5.625000e+01
5.625000e+01
5.625000e+01
5.625000e+01
5.625000e+01
5.625000e+01
5.625000e+01
5.625000e+01
5.625000e+01
5.625000e+01
5.625000e+01
5.625000e+01
5.625000e+01
5.625000e+01
5.625000e+01
5.625000e+01
5.625000e+01
5.625000e+01
5.625000e+01
5.625000e+01
5.625000e+01
5.625000e+01
5.625000e+01
5.625000e+01
5.625000e+01
5.625000e+01
5.625000e+01
5.625000e+01
5.625000e+01
5.625000e+01
5.625000e+01
6.250000e+01
6.250000e+01
6.250000e+01
6.250000e+01
6.250000e+01
6.250000e+01
6.250000e+01
6.250000e+01
6.250000e+01
6.250000e+01
6.250000e+01
6.250000e+01
6.250000e+01
6.250000e+01
6.250000e+01
6.250000e+01
6.250000e+01
6.250000e+01
6.250000e+01
6.250000e+01
6.250000e+01
6.250000e+01
6.250000e+01
6.250000e+01
6.250000e+01
6.250000e+01
6.250000e+01
6.250000e+01
6.250000e+01
6.250000e+01
6.250000e+01
6.250000e+01
6.250000e+01
6.875000e+01
6.875000e+01
6.875000e+01
6.875000e+01
6.875000e+01
6.875000e+01
6.875000e+01
6.875000e+01
6.875000e+01
6.875000e+01
6.875000e+01
6.875000e+01
6.875000e+01
6.875000e+01
6.875000e+01
6.875000e+01
6.875000e+01
6.875000e+01
6.875000e+01
6.875000e+01
6.875000e+01
6.875000e+01
6.875000e+01
6.875000e+01
6.875000e+01
6.875000e+01
6.875000e+01
6.875000e+01
6.875000e+01
6.875000e+01
6.875000e+01
6.875000e+01
6.875000e+01
7.500000e+01
7.500000e+01
7.500000e+01
7.500000e+01
7.500000e+01
7.500000e+01
7.500000e+01
7.500000e+01
7.500000e+01
7.500000e+01
7.500000e+01
7.500000e+01
7.500000e+01
7.500000e+01
7.500000e+01
7.500000e+01
7.500000e+01
7.500000e+01
7.500000e+01
7.500000e+01
7.500000e+01
7.500000e+01
7.500000e+01
7.500000e+01
7.500000e+01
7.500000e+01
7.500000e+01
7.500000e+01
7.500000e+01
7.500000e+01
7.500000e+01
7.500000e+01
7.500000e+01
8.125000e+01
8.125000e+01
8.125000e+01
8.125000e+01
8.125000e+01
8.125000e+01
8.125000e+01
8.125000e+01
8.125000e+01
8.125000e+01
8.125000e+01
8.125000e+01
8.125000e+01
8.125000e+01
8.125000e+01
8.125000e+01
8.125000e+01
8.125000e+01
8.125000e+01
8.125000e+01
8.125000e+01
8.125000e+01
8.125000e+01
8.125000e+01
8.125000e+01
8.125000e+01
8.125000e+01
8.125000e+01
8.125000e+01
8.125000e+01
8.125000e+01
8.125000e+01
8.125000e+01
8.750000e+01
8.750000e+01
8.750000e+01
8.750000e+01
8.750000e+01
8.750000e+01
8.750000e+01
8.750000e+01
8.750000e+01
8.750000e+01
8.750000e+01
8.750000e+01
8.750000e+01
8.750000e+01
8.750000e+01
8.750000e+01
8.750000e+01
8.750000e+01
8.750000e+01
8.750000e+01
8.750000e+01
8.750000e+01
8.750000e+01
8.750000e+01
8.750000e+01
8.750000e+01
8.750000e+01
8.750000e+01
8.750000e+01
8.750000e+01
8.750000e+01
8.750000e+01
8.750000e+01
9.375000e+01
9.375000e+01
9.375000e+01
9.375000e+01
9.375000e+01
9.375000e+01
9.375000e+01
9.375000e+01
9.375000e+01
9.375000e+01
9.375000e+01
9.375000e+01
9.375000e+01
9.375000e+01
9.375000e+01
9.375000e+01
9.375000e+01
9.375000e+01
9.375000e+01
9.375000e+01
9.375000e+01
9.375000e+01
9.375000e+01
9.375000e+01
9.375000e+01
9.375000e+01
9.375000e+01
9.375000e+01
9.375000e+01
9.375000e+01
9.375000e+01
9.375000e+01
9.375000e+01
1.000000e+02
1.000000e+02
1.000000e+02
1.000000e+02
1.000000e+02
1.000000e+02
1.000000e+02
1.000000e+02
1.000000e+02
1.000000e+02
1.000000e+02
1.000000e+02
1.000000e+02
1.000000e+02
1.000000e+02
1.000000e+02
1.000000e+02
1.000000e+02
1.000000e+02
1.000000e+02
1.000000e+02
1.000000e+02
1.000000e+02
1.000000e+02
1.000000e+02
1.000000e+02
1.000000e+02
1.000000e+02
1.000000e+02
1.000000e+02
1.000000e+02
1.000000e+02
1.000000e+02
0.000000e+00
-4.323367e-01
-7.414636e-01
-1.065618e+00
-1.374557e+00
-1.672813e+00
-1.981506e+00
-2.280324e+00
-2.579584e+00
-2.881408e+00
-3.179819e+00
-3.479623e+00
-3.779307e+00
-4.077762e+00
-4.377032e+00
-4.675734e+00
-4.974151e+00
-5.272877e+00
-5.571249e+00
-5.869791e+00
-6.168576e+00
-6.467368e+00
-6.767201e+00
-7.068322e+00
-7.371053e+00
-7.679488e+00
-7.995025e+00
-8.316073e+00
-8.654784e+00
-9.034726e+00
-9.474757e+00
-9.881516e+00
-1.008923e+01
0.000000e+00
-2.353686e-01
-4.819969e-01
-7.454692e-01
-1.012635e+00
-1.266751e+00
-1.534263e+00
-1.795245e+00
-2.055937e+00
-2.320073e+00
-2.580671e+00
-2.842820e+00
-3.104856e+00
-3.365778e+00
-3.627485e+00
-3.888597e+00
-4.149407e+00
-4.410363e+00
-4.670815e+00
-4.931180e+00
-5.191448e+00
-5.451279e+00
-5.711363e+00
-5.971343e+00
-6.230561e+00
-6.490923e+00
-6.751386e+00
-7.008030e+00
-7.265356e+00
-7.525501e+00
-7.744249e+00
-7.834132e+00
-7.938496e+00
0.000000e+00
-1.359240e-01
-2.966293e-01
-4.963566e-01
-7.082969e-01
-9.146498e-01
-1.137593e+00
-1.357908e+00
-1.579465e+00
-1.804621e+00
-2.027540e+00
-2.252281e+00
-2.477309e+00
-2.701802e+00
-2.927157e+00
-3.152234e+00
-3.377192e+00
-3.602263e+00
-3.826840e+00
-4.051074e+00
-4.274753e+00
-4.497303e+00
-4.718611e+00
-4.937579e+00
-5.152384e+00
-5.361863e+00
-5.562820e+00
-5.749873e+00
-5.918301e+00
-6.054841e+00
-6.117909e+00
-6.118781e+00
-6.210713e+00
0.000000e+00
-1.025321e-01
-2.045535e-01
-3.477077e-01
-4.888482e-01
-6.491504e-01
-8.239397e-01
-1.000339e+00
-1.182235e+00
-1.367232e+00
-1.552747e+00
-1.740553e+00
-1.929309e+00
-2.118383e+00
-2.308480e+00
-2.498671e+00
-2.688890e+00
-2.879065e+00
-3.068526e+00
-3.256996e+00
-3.443849e+00
-3.628032e+00
-3.808411e+00
-3.983140e+00
-4.149492e+00
-4.304469e+00
-4.443904e+00
-4.561779e+00
-4.650212e+00
-4.697563e+00
-4.699091e+00
-4.708169e+00
-4.789213e+00
0.000000e+00
-8.973449e-02
-1.784770e-01
-2.761763e-01
-3.861836e-01
-5.076608e-01
-6.392728e-01
-7.757275e-01
-9.183725e-01
-1.063515e+00
-1.210575e+00
-1.359736e+00
-1.509343e+00
-1.659781e+00
-1.810546e+00
-1.961128e+00
-2.111446e+00
-2.260936e+00
-2.409088e+00
-2.555258e+00
-2.698476e+00
-2.837468e+00
-2.970591e+00
-3.095713e+00
-3.210127e+00
-3.310575e+00
-3.393076e+00
-3.452790e+00
-3.485095e+00
-3.489216e+00
-3.478205e+00
-3.505414e+00
-3.583124e+00
0.000000e+00
-7.131884e-02
-1.414697e-01
-2.152387e-01
-2.966036e-01
-3.849683e-01
-4.798284e-01
-5.804536e-01
-6.845697e-01
-7.917008e-01
-9.006454e-01
-1.010623e+00
-1.121409e+00
-1.232387e+00
-1.343295e+00
-1.453807e+00
-1.563471e+00
-1.671852e+00
-1.778323e+00
-1.882053e+00
-1.981973e+00
-2.076663e+00
-2.164350e+00
-2.242953e+00
-2.310085e+00
-2.363136e+00
-2.399366e+00
-2.416365e+00
-2.414072e+00
-2.397478e+00
-2.390530e+00
-2.422721e+00
-2.495834e+00
0.000000e+00
-4.901327e-02
-9.768249e-02
-1.479938e-01
-2.018260e-01
-2.598919e-01
-3.220476e-01
-3.876693e-01
-4.560049e-01
-5.261764e-01
-5.975579e-01
-6.695871e-01
-7.418259e-01
-8.139424e-01
-8.855864e-01
-9.564247e-01
-1.026067e+00
-1.094027e+00
-1.159688e+00
-1.222235e+00
-1.280603e+00
-1.333429e+00
-1.379058e+00
-1.415630e+00
-1.441235e+00
-1.454103e+00
-1.452887e+00
-1.437371e+00
-1.410464e+00
-1.381885e+00
-1.374294e+00
-1.407927e+00
-1.479692e+00
0.000000e+00
-2.531039e-02
-5.052553e-02
-7.634951e-02
-1.035699e-01
-1.326037e-01
-1.634568e-01
-1.958698e-01
-2.294254e-01
-2.637014e-01
-2.982871e-01
-3.328383e-01
-3.670572e-01
-4.006686e-01
-4.334043e-01
-4.649683e-01
-4.950177e-01
-5.231341e-01
-5.487873e-01
-5.712915e-01
-5.897544e-01
-6.030347e-01
-6.097441e-01
-6.083565e-01
-5.974143e-01
-5.757534e-01
-5.429950e-01
-5.010365e-01
-4.563749e-01
-4.207649e-01
-4.142812e-01
-4.493286e-01
-5.207596e-01
0.000000e+00
-1.002571e-03
-1.954534e-03
-2.814935e-03
-3.534466e-03
-4.052110e-03
-4.295235e-03
-4.179182e-03
-3.608821e-03
-2.479327e-03
-6.763596e-04
1.924621e-03
5.461277e-03
1.008935e-02
1.599037e-02
2.338056e-02
3.251955e-02
4.371989e-02
5.736423e-02
7.393449e-02
9.404530e-02
1.184845e-01
1.482385e-01
1.844030e-01
2.279626e-01
2.794209e-01
3.377795e-01
3.986082e-01
4.529951e-01
4.886090e-01
4.916335e-01
4.554328e-01
3.874799e-01
0.000000e+00
2.333899e-02
4.668025e-02
7.080782e-02
9.661041e-02
1.246244e-01
1.550027e-01
1.876538e-01
2.223492e-01
2.588743e-01
2.970429e-01
3.367546e-01
3.779769e-01
4.207303e-01
4.650885e-01
5.111622e-01
5.591025e-01
6.090947e-01
6.613616e-01
7.161791e-01
7.738714e-01
8.348150e-01
8.994605e-01
9.682277e-01
1.041229e+00
1.117663e+00
1.194598e+00
1.265902e+00
1.322493e+00
1.354257e+00
1.353498e+00
1.319599e+00
1.262454e+00
0.000000e+00
4.713920e-02
9.401255e-02
1.426979e-01
1.951640e-01
2.522518e-01
3.139588e-01
3.798338e-01
4.493115e-01
5.217165e-01
5.966477e-01
6.737744e-01
7.529042e-01
8.339617e-01
9.168716e-01
1.001619e+00
1.088199e+00
1.176617e+00
1.266924e+00
1.359216e+00
1.453568e+00
1.549954e+00
1.648141e+00
1.747432e+00
1.846528e+00
1.943187e+00
2.033136e+00
2.109805e+00
2.165974e+00
2.195496e+00
2.195377e+00
2.168796e+00
2.126616e+00
0.000000e+00
6.958437e-02
1.380555e-01
2.102649e-01
2.903485e-01
3.777424e-01
4.721580e-01
5.730195e-01
6.782180e-01
7.875282e-01
8.999551e-01
1.014974e+00
1.132606e+00
1.252459e+00
1.374474e+00
1.498489e+00
1.624216e+00
1.751418e+00
1.879816e+00
2.009201e+00
2.139259e+00
2.269404e+00
2.398771e+00
2.525747e+00
2.647808e+00
2.761629e+00
2.862537e+00
2.944884e+00
3.003717e+00
3.035992e+00
3.041546e+00
3.025047e+00
2.997611e+00
0.000000e+00
8.818169e-02
1.752836e-01
2.715990e-01
3.802073e-01
5.007231e-01
6.317676e-01
7.681869e-01
9.116538e-01
1.058562e+00
1.208681e+00
1.362446e+00
1.518493e+00
1.677504e+00
1.839119e+00
2.002914e+00
2.168673e+00
2.335551e+00
2.502860e+00
2.669874e+00
2.835378e+00
2.998129e+00
3.157086e+00
3.310398e+00
3.454800e+00
3.586078e+00
3.699590e+00
3.790895e+00
3.856862e+00
3.896169e+00
3.910041e+00
3.903898e+00
3.889202e+00
0.000000e+00
1.011349e-01
2.020753e-01
3.436802e-01
4.836357e-01
6.427129e-01
8.165818e-01
9.924314e-01
1.174212e+00
1.359869e+00
1.546950e+00
1.737594e+00
1.930803e+00
2.126297e+00
2.325090e+00
2.526353e+00
2.729807e+00
2.934731e+00
3.139881e+00
3.344119e+00
3.545440e+00
3.742152e+00
3.933308e+00
4.116375e+00
4.286427e+00
4.438041e+00
4.566644e+00
4.669044e+00
4.743778e+00
4.791088e+00
4.813317e+00
4.816223e+00
4.811242e+00
0.000000e+00
1.355608e-01
2.958416e-01
4.948752e-01
7.057426e-01
9.111863e-01
1.133204e+00
1.352663e+00
1.573556e+00
1.798255e+00
2.021054e+00
2.246176e+00
2.472280e+00
2.698785e+00
2.927329e+00
3.156987e+00
3.387841e+00
3.619715e+00
3.851678e+00
4.082972e+00
4.311799e+00
4.537209e+00
4.758965e+00
4.972846e+00
5.170151e+00
5.342708e+00
5.485708e+00
5.597420e+00
5.678377e+00
5.730796e+00
5.758501e+00
5.767586e+00
5.768574e+00
0.000000e+00
2.353069e-01
4.819517e-01
7.453522e-01
1.012347e+00
1.266327e+00
1.533636e+00
1.794342e+00
2.054755e+00
2.318498e+00
2.578590e+00
2.840129e+00
3.101363e+00
3.361269e+00
3.621678e+00
3.881167e+00
4.139905e+00
4.398123e+00
4.655227e+00
4.911178e+00
5.165168e+00
5.417522e+00
5.668619e+00
5.911850e+00
6.133954e+00
6.323900e+00
6.476651e+00
6.591715e+00
6.671582e+00
6.720989e+00
6.746470e+00
6.755793e+00
6.758053e+00
0.000000e+00
4.324600e-01
7.421254e-01
1.066731e+00
1.376511e+00
1.675595e+00
1.985045e+00
2.284619e+00
2.584493e+00
2.886763e+00
3.185301e+00
3.484831e+00
3.783567e+00
4.080138e+00
4.376283e+00
4.670294e+00
4.962273e+00
5.252691e+00
5.541211e+00
5.828348e+00
6.114267e+00
6.399987e+00
6.684537e+00
6.957449e+00
7.201409e+00
7.403809e+00
7.559495e+00
7.668425e+00
7.734361e+00
7.764722e+00
7.770724e+00
7.766514e+00
7.764035e+00
0.000000e+00
-2.598142e-01
-5.260814e-01
-8.604395e-01
-1.231910e+00
-1.644332e+00
-2.099606e+00
-2.589923e+00
-3.119391e+00
-3.686272e+00
-4.290026e+00
-4.932276e+00
-5.611852e+00
-6.329271e+00
-7.084792e+00
-7.878040e+00
-8.709456e+00
-9.579083e+00
-1.048699e+01
-1.143358e+01
-1.241897e+01
-1.344357e+01
-1.450798e+01
-1.561268e+01
-1.675931e+01
-1.795088e+01
-1.919083e+01
-2.048622e+01
-2.184954e+01
-2.329472e+01
-2.484584e+01
-2.666522e+01
-2.921794e+01
0.000000e+00
-1.639691e-01
-4.458018e-01
-7.736139e-01
-1.148941e+00
-1.560143e+00
-2.014940e+00
-2.506544e+00
-3.035182e+00
-3.602244e+00
-4.206226e+00
-4.848212e+00
-5.528025e+00
-6.245451e+00
-7.000941e+00
-7.794338e+00
-8.625748e+00
-9.495426e+00
-1.040341e+01
-1.134998e+01
-1.233545e+01
-1.336001e+01
-1.442429e+01
-1.552899e+01
-1.667520e+01
-1.786582e+01
-1.910545e+01
-2.039985e+01
-2.175986e+01
-2.320382e+01
-2.477436e+01
-2.657366e+01
-2.884826e+01
0.000000e+00
-1.344400e-01
-3.874618e-01
-7.124096e-01
-1.082663e+00
-1.491787e+00
-1.945102e+00
-2.435942e+00
-2.963878e+00
-3.530707e+00
-4.134459e+00
-4.776233e+00
-5.456071e+00
-6.173387e+00
-6.928904e+00
-7.722373e+00
-8.553836e+00
-9.423675e+00
-1.033183e+01
-1.127864e+01
-1.226445e+01
-1.328943e+01
-1.435433e+01
-1.546005e+01
-1.660752e+01
-1.779993e+01
-1.904219e+01
-2.033999e+01
-2.170621e+01
-2.317148e+01
-2.477187e+01
-2.646640e+01
-2.823709e+01
0.000000e+00
-1.505076e-01
-3.734595e-01
-6.869166e-01
-1.041844e+00
-1.444795e+00
-1.894167e+00
-2.381078e+00
-2.907605e+00
-3.473137e+00
-4.075857e+00
-4.717240e+00
-5.396634e+00
-6.113747e+00
-6.869248e+00
-7.662752e+00
-8.494440e+00
-9.364641e+00
-1.027333e+01
-1.122089e+01
-1.220774e+01
-1.323413e+01
-1.430094e+01
-1.540921e+01
-1.656015e+01
-1.775691e+01
-1.900424e+01
-2.030852e+01
-2.168460e+01
-2.316376e+01
-2.475365e+01
-2.631227e+01
-2.773402e+01
0.000000e+00
-1.695997e-01
-3.921530e-01
-6.859901e-01
-1.030287e+00
-1.422537e+00
-1.864015e+00
-2.345067e+00
-2.868243e+00
-3.431076e+00
-4.032117e+00
-4.672591e+00
-5.351192e+00
-6.068137e+00
-6.823620e+00
-7.617343e+00
-8.449593e+00
-9.320538e+00
-1.023034e+01
-1.117939e+01
-1.216815e+01
-1.319708e+01
-1.426701e+01
-1.537900e+01
-1.653449e+01
-1.773632e+01
-1.898866e+01
-2.029745e+01
-2.167469e+01
-2.314029e+01
-2.467343e+01
-2.610840e+01
-2.736450e+01
0.000000e+00
-1.779016e-01
-4.057141e-01
-6.896458e-01
-1.026083e+00
-1.411622e+00
-1.844730e+00
-2.321645e+00
-2.840755e+00
-3.400956e+00
-4.000786e+00
-4.640086e+00
-5.318375e+00
-6.035346e+00
-6.791073e+00
-7.585462e+00
-8.418632e+00
-9.290818e+00
-1.020228e+01
-1.115346e+01
-1.214487e+01
-1.317710e+01
-1.425084e+01
-1.536697e+01
-1.652676e+01
-1.773241e+01
-1.898706e+01
-2.029397e+01
-2.165771e+01
-2.308648e+01
-2.453370e+01
-2.588079e+01
-2.704542e+01
0.000000e+00
-1.818708e-01
-4.118753e-01
-6.927734e-01
-1.024468e+00
-1.405371e+00
-1.833511e+00
-2.306741e+00
-2.823197e+00
-3.381405e+00
-3.980275e+00
-4.619056e+00
-5.297266e+00
-6.014607e+00
-6.770941e+00
-7.566261e+00
-8.400671e+00
-9.274405e+00
-1.018782e+01
-1.114141e+01
-1.213574e+01
-1.317142e+01
-1.424898e+01
-1.536889e+01
-1.653173e+01
-1.773869e+01
-1.899124e+01
-2.028870e+01
-2.162778e+01
-2.300605e+01
-2.437442e+01
-2.564897e+01
-2.674975e+01
0.000000e+00
-1.835818e-01
-4.145371e-01
-6.945567e-01
-1.024097e+00
-1.402414e+00
-1.828040e+00
-2.299204e+00
-2.814184e+00
-3.371502e+00
-3.969993e+00
-4.608821e+00
-5.287411e+00
-6.005418e+00
-6.762670e+00
-7.559142e+00
-8.394947e+00
-9.270331e+00
-1.018569e+01
-1.114156e+01
-1.213857e+01
-1.317730e+01
-1.425807e+01
-1.538071e+01
-1.654477e+01
-1.774998e+01
-1.899564e+01
-2.027744e+01
-2.158595e+01
-2.291208e+01
-2.421043e+01
-2.541741e+01
-2.646075e+01
0.000000e+00
-1.840778e-01
-4.153845e-01
-6.953174e-01
-1.024406e+00
-1.402145e+00
-1.827258e+00
-2.298106e+00
-2.813025e+00
-3.370544e+00
-3.969481e+00
-4.608963e+00
-5.288393e+00
-6.007402e+00
-6.765806e+00
-7.563572e+00
-8.400801e+00
-9.277731e+00
-1.019476e+01
-1.115244e+01
-1.215143e+01
-1.319228e+01
-1.427509e+01
-1.539889e+01
-1.656192e+01
-1.776232e+01
-1.899711e+01
-2.025909e+01
-2.153555e+01
-2.281089e+01
-2.404737e+01
-2.519056e+01
-2.618097e+01
0.000000e+00
-1.836662e-01
-4.148384e-01
-6.952204e-01
-1.025286e+00
-1.404306e+00
-1.830833e+00
-2.303102e+00
-2.819400e+00
-3.378247e+00
-3.978472e+00
-4.619230e+00
-5.299940e+00
-6.020246e+00
-6.779972e+00
-7.579077e+00
-8.417640e+00
-9.295851e+00
-1.021407e+01
-1.117283e+01
-1.217276e+01
-1.321438e+01
-1.429753e+01
-1.542045e+01
-1.658007e+01
-1.777319e+01
-1.899478e+01
-2.023519e+01
-2.147986e+01
-2.270942e+01
-2.389230e+01
-2.498372e+01
-2.593725e+01
0.000000e+00
-1.820285e-01
-4.124509e-01
-6.940563e-01
-1.026777e+00
-1.409063e+00
-1.838976e+00
-2.314391e+00
-2.833449e+00
-3.394676e+00
-3.996969e+00
-4.639552e+00
-5.321922e+00
-6.043753e+00
-6.804882e+00
-7.605270e+00
-8.444948e+00
-9.324026e+00
-1.024279e+01
-1.120174e+01
-1.220137e+01
-1.324202e+01
-1.432341e+01
-1.544332e+01
-1.659784e+01
-1.778248e+01
-1.899028e+01
-2.020955e+01
-2.142471e+01
-2.261624e+01
-2.375748e+01
-2.481469e+01
-2.575245e+01
0.000000e+00
-1.781055e-01
-4.064904e-01
-6.914556e-01
-1.029364e+00
-1.416901e+00
-1.852622e+00
-2.332726e+00
-2.855658e+00
-3.420301e+00
-4.025155e+00
-4.670038e+00
-5.354398e+00
-6.077867e+00
-6.840449e+00
-7.641968e+00
-8.482420e+00
-9.361817e+00
-1.028032e+01
-1.123842e+01
-1.223634e+01
-1.327414e+01
-1.435176e+01
-1.546728e+01
-1.661624e+01
-1.779259e+01
-1.898739e+01
-2.018756e+01
-2.137741e+01
-2.253911e+01
-2.365118e+01
-2.468921e+01
-2.562762e+01
0.000000e+00
-1.697859e-01
-3.929740e-01
-6.881963e-01
-1.034241e+00
-1.429049e+00
-1.873900e+00
-2.359000e+00
-2.887127e+00
-3.455696e+00
-4.063234e+00
-4.710943e+00
-5.397375e+00
-6.122635e+00
-6.886735e+00
-7.689214e+00
-8.530125e+00
-9.409254e+00
-1.032666e+01
-1.128280e+01
-1.227756e+01
-1.331091e+01
-1.438362e+01
-1.549455e+01
-1.663862e+01
-1.780773e+01
-1.899099e+01
-2.017462e+01
-2.134367e+01
-2.248259e+01
-2.357495e+01
-2.460432e+01
-2.555489e+01
0.000000e+00
-1.505413e-01
-3.743510e-01
-6.891240e-01
-1.046150e+00
-1.451960e+00
-1.905223e+00
-2.396875e+00
-2.929162e+00
-3.501469e+00
-4.111863e+00
-4.761852e+00
-5.450590e+00
-6.177571e+00
-6.943197e+00
-7.746709e+00
-8.587883e+00
-9.466481e+00
-1.038232e+01
-1.133577e+01
-1.232651e+01
-1.335487e+01
-1.442278e+01
-1.552977e+01
-1.666966e+01
-1.783217e+01
-1.900492e+01
-2.017422e+01
-2.132624e+01
-2.244766e+01
-2.352639e+01
-2.455318e+01
-2.552251e+01
0.000000e+00
-1.346921e-01
-3.884393e-01
-7.146318e-01
-1.086900e+00
-1.498992e+00
-1.956330e+00
-2.452171e+00
-2.986194e+00
-3.560248e+00
-4.172237e+00
-4.823321e+00
-5.513367e+00
-6.241500e+00
-7.008154e+00
-7.812500e+00
-8.653964e+00
-9.532246e+00
-1.044690e+01
-1.139805e+01
-1.238547e+01
-1.341003e+01
-1.447431e+01
-1.557775e+01
-1.671285e+01
-1.786792e+01
-1.903019e+01
-2.018668e+01
-2.132465e+01
-2.243242e+01
-2.350110e+01
-2.452734e+01
-2.551623e+01
0.000000e+00
-1.642548e-01
-4.467155e-01
-7.757334e-01
-1.153029e+00
-1.567239e+00
-2.026065e+00
-2.522734e+00
-3.057558e+00
-3.631937e+00
-4.244326e+00
-4.895820e+00
-5.586091e+00
-6.314647e+00
-7.081592e+00
-7.886127e+00
-8.727624e+00
-9.605616e+00
-1.051957e+01
-1.146935e+01
-1.245501e+01
-1.347789e+01
-1.454009e+01
-1.563962e+01
-1.676799e+01
-1.791363e+01
-1.906465e+01
-2.020908e+01
-2.133509e+01
-2.243207e+01
-2.349292e+01
-2.451795e+01
-2.552047e+01
0.000000e+00
-2.601450e-01
-5.270720e-01
-8.626227e-01
-1.236108e+00
-1.651524e+00
-2.110809e+00
-2.606195e+00
-3.141830e+00
-3.715987e+00
-4.328112e+00
-4.979798e+00
-5.669718e+00
-6.398115e+00
-7.164870e+00
-7.968972e+00
-8.810107e+00
-9.687650e+00
-1.060106e+01
-1.155017e+01
-1.253522e+01
-1.355782e+01
-1.461860e+01