TITLE = "Solution"
VARIABLES = x, y, u, v, psiu, psiv, t, stress
ZONE T="structure" N=561 E=512 F=FEBLOCK ET=QUADRILATERAL VARLOCATION=([7,8]=cellcentered)
0.000000e+00
6.250000e+00
1.250000e+01
1.875000e+01
2.500000e+01
3.125000e+01
3.750000e+01
4.375000e+01
5.000000e+01
5.625000e+01
6.250000e+01
6.875000e+01
7.500000e+01
8.125000e+01
8.750000e+01
9.375000e+01
1.000000e+02
1.062500e+02
1.125000e+02
1.187500e+02
1.250000e+02
1.312500e+02
1.375000e+02
1.437500e+02
1.500000e+02
1.562500e+02
1.625000e+02
1.687500e+02
1.750000e+02
1.812500e+02
1.875000e+02
1.937500e+02
2.000000e+02
0.000000e+00
6.250000e+00
1.250000e+01
1.875000e+01
2.500000e+01
3.125000e+01
3.750000e+01
4.375000e+01
5.000000e+01
5.625000e+01
6.250000e+01
6.875000e+01
7.500000e+01
8.125000e+01
8.750000e+01
9.375000e+01
1.000000e+02
1.062500e+02
1.125000e+02
1.187500e+02
1.250000e+02
1.312500e+02
1.375000e+02
1.437500e+02
1.500000e+02
1.562500e+02
1.625000e+02
1.687500e+02
1.750000e+02
1.812500e+02
1.875000e+02
1.937500e+02
2.000000e+02
0.000000e+00
6.250000e+00
1.250000e+01
1.875000e+01
2.500000e+01
3.125000e+01
3.750000e+01
4.375000e+01
5.000000e+01
5.625000e+01
6.250000e+01
6.875000e+01
7.500000e+01
8.125000e+01
8.750000e+01
9.375000e+01
1.000000e+02
1.062500e+02
1.125000e+02
1.187500e+02
1.250000e+02
1.312500e+02
1.375000e+02
1.437500e+02
1.500000e+02
1.562500e+02
1.625000e+02
1.687500e+02
1.750000e+02
1.812500e+02
1.875000e+02
1.937500e+02
2.000000e+02
0.000000e+00
6.250000e+00
1.250000e+01
1.875000e+01
2.500000e+01
3.125000e+01
3.750000e+01
4.375000e+01
5.000000e+01
5.625000e+01
6.250000e+01
6.875000e+01
7.500000e+01
8.125000e+01
8.750000e+01
9.375000e+01
1.000000e+02
1.062500e+02
1.125000e+02
1.187500e+02
1.250000e+02
1.312500e+02
1.375000e+02
1.437500e+02
1.500000e+02
1.562500e+02
1.625000e+02
1.687500e+02
1.750000e+02
1.812500e+02
1.875000e+02
1.937500e+02
2.000000e+02
0.000000e+00
6.250000e+00
1.250000e+01
1.875000e+01
2.500000e+01
3.125000e+01
3.750000e+01
4.375000e+01
5.000000e+01
5.625000e+01
6.250000e+01
6.875000e+01
7.500000e+01
8.125000e+01
8.750000e+01
9.375000e+01
1.000000e+02
1.062500e+02
1.125000e+02
1.187500e+02
1.250000e+02
1.312500e+02
1.375000e+02
1.437500e+02
1.500000e+02
1.562500e+02
1.625000e+02
1.687500e+02
1.750000e+02
1.812500e+02
1.875000e+02
1.937500e+02
2.000000e+02
0.000000e+00
6.250000e+00
1.250000e+01
1.875000e+01
2.500000e+01
3.125000e+01
3.750000e+01
4.375000e+01
5.000000e+01
5.625000e+01
6.250000e+01
6.875000e+01
7.500000e+01
8.125000e+01
8.750000e+01
9.375000e+01
1.000000e+02
1.062500e+02
1.125000e+02
1.187500e+02
1.250000e+02
1.312500e+02
1.375000e+02
1.437500e+02
1.500000e+02
1.562500e+02
1.625000e+02
1.687500e+02
1.750000e+02
1.812500e+02
1.875000e+02
1.937500e+02
2.000000e+02
0.000000e+00
6.250000e+00
1.250000e+01
1.875000e+01
2.500000e+01
3.125000e+01
3.750000e+01
4.375000e+01
5.000000e+01
5.625000e+01
6.250000e+01
6.875000e+01
7.500000e+01
8.125000e+01
8.750000e+01
9.375000e+01
1.000000e+02
1.062500e+02
1.125000e+02
1.187500e+02
1.250000e+02
1.312500e+02
1.375000e+02
1.437500e+02
1.500000e+02
1.562500e+02
1.625000e+02
1.687500e+02
1.750000e+02
1.812500e+02
1.875000e+02
1.937500e+02
2.000000e+02
0.000000e+00
6.250000e+00
1.250000e+01
1.875000e+01
2.500000e+01
3.125000e+01
3.750000e+01
4.375000e+01
5.000000e+01
5.625000e+01
6.250000e+01
6.875000e+01
7.500000e+01
8.125000e+01
8.750000e+01
9.375000e+01
1.000000e+02
1.062500e+02
1.125000e+02
1.187500e+02
1.250000e+02
1.312500e+02
1.375000e+02
1.437500e+02
1.500000e+02
1.562500e+02
1.625000e+02
1.687500e+02
1.750000e+02
1.812500e+02
1.875000e+02
1.937500e+02
2.000000e+02
0.000000e+00
6.250000e+00
1.250000e+01
1.875000e+01
2.500000e+01
3.125000e+01
3.750000e+01
4.375000e+01
5.000000e+01
5.625000e+01
6.250000e+01
6.875000e+01
7.500000e+01
8.125000e+01
8.750000e+01
9.375000e+01
1.000000e+02
1.062500e+02
1.125000e+02
1.187500e+02
1.250000e+02
1.312500e+02
1.375000e+02
1.437500e+02
1.500000e+02
1.562500e+02
1.625000e+02
1.687500e+02
1.750000e+02
1.812500e+02
1.875000e+02
1.937500e+02
2.000000e+02
0.000000e+00
6.250000e+00
1.250000e+01
1.875000e+01
2.500000e+01
3.125000e+01
3.750000e+01
4.375000e+01
5.000000e+01
5.625000e+01
6.250000e+01
6.875000e+01
7.500000e+01
8.125000e+01
8.750000e+01
9.375000e+01
1.000000e+02
1.062500e+02
1.125000e+02
1.187500e+02
1.250000e+02
1.312500e+02
1.375000e+02
1.437500e+02
1.500000e+02
1.562500e+02
1.625000e+02
1.687500e+02
1.750000e+02
1.812500e+02
1.875000e+02
1.937500e+02
2.000000e+02
0.000000e+00
6.250000e+00
1.250000e+01
1.875000e+01
2.500000e+01
3.125000e+01
3.750000e+01
4.375000e+01
5.000000e+01
5.625000e+01
6.250000e+01
6.875000e+01
7.500000e+01
8.125000e+01
8.750000e+01
9.375000e+01
1.000000e+02
1.062500e+02
1.125000e+02
1.187500e+02
1.250000e+02
1.312500e+02
1.375000e+02
1.437500e+02
1.500000e+02
1.562500e+02
1.625000e+02
1.687500e+02
1.750000e+02
1.812500e+02
1.875000e+02
1.937500e+02
2.000000e+02
0.000000e+00
6.250000e+00
1.250000e+01
1.875000e+01
2.500000e+01
3.125000e+01
3.750000e+01
4.375000e+01
5.000000e+01
5.625000e+01
6.250000e+01
6.875000e+01
7.500000e+01
8.125000e+01
8.750000e+01
9.375000e+01
1.000000e+02
1.062500e+02
1.125000e+02
1.187500e+02
1.250000e+02
1.312500e+02
1.375000e+02
1.437500e+02
1.500000e+02
1.562500e+02
1.625000e+02
1.687500e+02
1.750000e+02
1.812500e+02
1.875000e+02
1.937500e+02
2.000000e+02
0.000000e+00
6.250000e+00
1.250000e+01
1.875000e+01
2.500000e+01
3.125000e+01
3.750000e+01
4.375000e+01
5.000000e+01
5.625000e+01
6.250000e+01
6.875000e+01
7.500000e+01
8.125000e+01
8.750000e+01
9.375000e+01
1.000000e+02
1.062500e+02
1.125000e+02
1.187500e+02
1.250000e+02
1.312500e+02
1.375000e+02
1.437500e+02
1.500000e+02
1.562500e+02
1.625000e+02
1.687500e+02
1.750000e+02
1.812500e+02
1.875000e+02
1.937500e+02
2.000000e+02
0.000000e+00
6.250000e+00
1.250000e+01
1.875000e+01
2.500000e+01
3.125000e+01
3.750000e+01
4.375000e+01
5.000000e+01
5.625000e+01
6.250000e+01
6.875000e+01
7.500000e+01
8.125000e+01
8.750000e+01
9.375000e+01
1.000000e+02
1.062500e+02
1.125000e+02
1.187500e+02
1.250000e+02
1.312500e+02
1.375000e+02
1.437500e+02
1.500000e+02
1.562500e+02
1.625000e+02
1.687500e+02
1.750000e+02
1.812500e+02
1.875000e+02
1.937500e+02
2.000000e+02
0.000000e+00
6.250000e+00
1.250000e+01
1.875000e+01
2.500000e+01
3.125000e+01
3.750000e+01
4.375000e+01
5.000000e+01
5.625000e+01
6.250000e+01
6.875000e+01
7.500000e+01
8.125000e+01
8.750000e+01
9.375000e+01
1.000000e+02
1.062500e+02
1.125000e+02
1.187500e+02
1.250000e+02
1.312500e+02
1.375000e+02
1.437500e+02
1.500000e+02
1.562500e+02
1.625000e+02
1.687500e+02
1.750000e+02
1.812500e+02
1.875000e+02
1.937500e+02
2.000000e+02
0.000000e+00
6.250000e+00
1.250000e+01
1.875000e+01
2.500000e+01
3.125000e+01
3.750000e+01
4.375000e+01
5.000000e+01
5.625000e+01
6.250000e+01
6.875000e+01
7.500000e+01
8.125000e+01
8.750000e+01
9.375000e+01
1.000000e+02
1.062500e+02
1.125000e+02
1.187500e+02
1.250000e+02
1.312500e+02
1.375000e+02
1.437500e+02
1.500000e+02
1.562500e+02
1.625000e+02
1.687500e+02
1.750000e+02
1.812500e+02
1.875000e+02
1.937500e+02
2.000000e+02
0.000000e+00
6.250000e+00
1.250000e+01
1.875000e+01
2.500000e+01
3.125000e+01
3.750000e+01
4.375000e+01
5.000000e+01
5.625000e+01
6.250000e+01
6.875000e+01
7.500000e+01
8.125000e+01
8.750000e+01
9.375000e+01
1.000000e+02
1.062500e+02
1.125000e+02
1.187500e+02
1.250000e+02
1.312500e+02
1.375000e+02
1.437500e+02
1.500000e+02
1.562500e+02
1.625000e+02
1.687500e+02
1.750000e+02
1.812500e+02
1.875000e+02
1.937500e+02
2.000000e+02
0.000000e+00
0.000000e+00
0.000000e+00
0.000000e+00
0.000000e+00
0.000000e+00
0.000000e+00
0.000000e+00
0.000000e+00
0.000000e+00
0.000000e+00
0.000000e+00
0.000000e+00
0.000000e+00
0.000000e+00
0.000000e+00
0.000000e+00
0.000000e+00
0.000000e+00
0.000000e+00
0.000000e+00
0.000000e+00
0.000000e+00
0.000000e+00
0.000000e+00
0.000000e+00
0.000000e+00
0.000000e+00
0.000000e+00
0.000000e+00
0.000000e+00
0.000000e+00
0.000000e+00
6.250000e+00
6.250000e+00
6.250000e+00
6.250000e+00
6.250000e+00
6.250000e+00
6.250000e+00
6.250000e+00
6.250000e+00
6.250000e+00
6.250000e+00
6.250000e+00
6.250000e+00
6.250000e+00
6.250000e+00
6.250000e+00
6.250000e+00
6.250000e+00
6.250000e+00
6.250000e+00
6.250000e+00
6.250000e+00
6.250000e+00
6.250000e+00
6.250000e+00
6.250000e+00
6.250000e+00
6.250000e+00
6.250000e+00
6.250000e+00
6.250000e+00
6.250000e+00
6.250000e+00
1.250000e+01
1.250000e+01
1.250000e+01
1.250000e+01
1.250000e+01
1.250000e+01
1.250000e+01
1.250000e+01
1.250000e+01
1.250000e+01
1.250000e+01
1.250000e+01
1.250000e+01
1.250000e+01
1.250000e+01
1.250000e+01
1.250000e+01
1.250000e+01
1.250000e+01
1.250000e+01
1.250000e+01
1.250000e+01
1.250000e+01
1.250000e+01
1.250000e+01
1.250000e+01
1.250000e+01
1.250000e+01
1.250000e+01
1.250000e+01
1.250000e+01
1.250000e+01
1.250000e+01
1.875000e+01
1.875000e+01
1.875000e+01
1.875000e+01
1.875000e+01
1.875000e+01
1.875000e+01
1.875000e+01
1.875000e+01
1.875000e+01
1.875000e+01
1.875000e+01
1.875000e+01
1.875000e+01
1.875000e+01
1.875000e+01
1.875000e+01
1.875000e+01
1.875000e+01
1.875000e+01
1.875000e+01
1.875000e+01
1.875000e+01
1.875000e+01
1.875000e+01
1.875000e+01
1.875000e+01
1.875000e+01
1.875000e+01
1.875000e+01
1.875000e+01
1.875000e+01
1.875000e+01
2.500000e+01
2.500000e+01
2.500000e+01
2.500000e+01
2.500000e+01
2.500000e+01
2.500000e+01
2.500000e+01
2.500000e+01
2.500000e+01
2.500000e+01
2.500000e+01
2.500000e+01
2.500000e+01
2.500000e+01
2.500000e+01
2.500000e+01
2.500000e+01
2.500000e+01
2.500000e+01
2.500000e+01
2.500000e+01
2.500000e+01
2.500000e+01
2.500000e+01
2.500000e+01
2.500000e+01
2.500000e+01
2.500000e+01
2.500000e+01
2.500000e+01
2.500000e+01
2.500000e+01
3.125000e+01
3.125000e+01
3.125000e+01
3.125000e+01
3.125000e+01
3.125000e+01
3.125000e+01
3.125000e+01
3.125000e+01
3.125000e+01
3.125000e+01
3.125000e+01
3.125000e+01
3.125000e+01
3.125000e+01
3.125000e+01
3.125000e+01
3.125000e+01
3.125000e+01
3.125000e+01
3.125000e+01
3.125000e+01
3.125000e+01
3.125000e+01
3.125000e+01
3.125000e+01
3.125000e+01
3.125000e+01
3.125000e+01
3.125000e+01
3.125000e+01
3.125000e+01
3.125000e+01
3.750000e+01
3.750000e+01
3.750000e+01
3.750000e+01
3.750000e+01
3.750000e+01
3.750000e+01
3.750000e+01
3.750000e+01
3.750000e+01
3.750000e+01
3.750000e+01
3.750000e+01
3.750000e+01
3.750000e+01
3.750000e+01
3.750000e+01
3.750000e+01
3.750000e+01
3.750000e+01
3.750000e+01
3.750000e+01
3.750000e+01
3.750000e+01
3.750000e+01
3.750000e+01
3.750000e+01
3.750000e+01
3.750000e+01
3.750000e+01
3.750000e+01
3.750000e+01
3.750000e+01
4.375000e+01
4.375000e+01
4.375000e+01
4.375000e+01
4.375000e+01
4.375000e+01
4.375000e+01
4.375000e+01
4.375000e+01
4.375000e+01
4.375000e+01
4.375000e+01
4.375000e+01
4.375000e+01
4.375000e+01
4.375000e+01
4.375000e+01
4.375000e+01
4.375000e+01
4.375000e+01
4.375000e+01
4.375000e+01
4.375000e+01
4.375000e+01
4.375000e+01
4.375000e+01
4.375000e+01
4.375000e+01
4.375000e+01
4.375000e+01
4.375000e+01
4.375000e+01
4.375000e+01
5.000000e+01
5.000000e+01
5.000000e+01
5.000000e+01
5.000000e+01
5.000000e+01
5.000000e+01
5.000000e+01
5.000000e+01
5.000000e+01
5.000000e+01
5.000000e+01
5.000000e+01
5.000000e+01
5.000000e+01
5.000000e+01
5.000000e+01
5.000000e+01
5.000000e+01
5.000000e+01
5.000000e+01
5.000000e+01
5.000000e+01
5.000000e+01
5.000000e+01
5.000000e+01
5.000000e+01
5.000000e+01
5.000000e+01
5.000000e+01
5.000000e+01
5.000000e+01
5.000000e+01
5.625000e+01
5.625000e+01
5.625000e+01
5.625000e+01
5.625000e+01
5.625000e+01
5.625000e+01
5.625000e+01
5.625000e+01
5.625000e+01
5.625000e+01
5.625000e+01
5.625000e+01
5.625000e+01
5.625000e+01
5.625000e+01
5.625000e+01
5.625000e+01
5.625000e+01
5.625000e+01
5.625000e+01
5.625000e+01
5.625000e+01
5.625000e+01
5.625000e+01
5.625000e+01
5.625000e+01
5.625000e+01
5.625000e+01
5.625000e+01
5.625000e+01
5.625000e+01
5.625000e+01
6.250000e+01
6.250000e+01
6.250000e+01
6.250000e+01
6.250000e+01
6.250000e+01
6.250000e+01
6.250000e+01
6.250000e+01
6.250000e+01
6.250000e+01
6.250000e+01
6.250000e+01
6.250000e+01
6.250000e+01
6.250000e+01
6.250000e+01
6.250000e+01
6.250000e+01
6.250000e+01
6.250000e+01
6.250000e+01
6.250000e+01
6.250000e+01
6.250000e+01
6.250000e+01
6.250000e+01
6.250000e+01
6.250000e+01
6.250000e+01
6.250000e+01
6.250000e+01
6.250000e+01
6.875000e+01
6.875000e+01
6.875000e+01
6.875000e+01
6.875000e+01
6.875000e+01
6.875000e+01
6.875000e+01
6.875000e+01
6.875000e+01
6.875000e+01
6.875000e+01
6.875000e+01
6.875000e+01
6.875000e+01
6.875000e+01
6.875000e+01
6.875000e+01
6.875000e+01
6.875000e+01
6.875000e+01
6.875000e+01
6.875000e+01
6.875000e+01
6.875000e+01
6.875000e+01
6.875000e+01
6.875000e+01
6.875000e+01
6.875000e+01
6.875000e+01
6.875000e+01
6.875000e+01
7.500000e+01
7.500000e+01
7.500000e+01
7.500000e+01
7.500000e+01
7.500000e+01
7.500000e+01
7.500000e+01
7.500000e+01
7.500000e+01
7.500000e+01
7.500000e+01
7.500000e+01
7.500000e+01
7.500000e+01
7.500000e+01
7.500000e+01
7.500000e+01
7.500000e+01
7.500000e+01
7.500000e+01
7.500000e+01
7.500000e+01
7.500000e+01
7.500000e+01
7.500000e+01
7.500000e+01
7.500000e+01
7.500000e+01
7.500000e+01
7.500000e+01
7.500000e+01
7.500000e+01
8.125000e+01
8.125000e+01
8.125000e+01
8.125000e+01
8.125000e+01
8.125000e+01
8.125000e+01
8.125000e+01
8.125000e+01
8.125000e+01
8.125000e+01
8.125000e+01
8.125000e+01
8.125000e+01
8.125000e+01
8.125000e+01
8.125000e+01
8.125000e+01
8.125000e+01
8.125000e+01
8.125000e+01
8.125000e+01
8.125000e+01
8.125000e+01
8.125000e+01
8.125000e+01
8.125000e+01
8.125000e+01
8.125000e+01
8.125000e+01
8.125000e+01
8.125000e+01
8.125000e+01
8.750000e+01
8.750000e+01
8.750000e+01
8.750000e+01
8.750000e+01
8.750000e+01
8.750000e+01
8.750000e+01
8.750000e+01
8.750000e+01
8.750000e+01
8.750000e+01
8.750000e+01
8.750000e+01
8.750000e+01
8.750000e+01
8.750000e+01
8.750000e+01
8.750000e+01
8.750000e+01
8.750000e+01
8.750000e+01
8.750000e+01
8.750000e+01
8.750000e+01
8.750000e+01
8.750000e+01
8.750000e+01
8.750000e+01
8.750000e+01
8.750000e+01
8.750000e+01
8.750000e+01
9.375000e+01
9.375000e+01
9.375000e+01
9.375000e+01
9.375000e+01
9.375000e+01
9.375000e+01
9.375000e+01
9.375000e+01
9.375000e+01
9.375000e+01
9.375000e+01
9.375000e+01
9.375000e+01
9.375000e+01
9.375000e+01
9.375000e+01
9.375000e+01
9.375000e+01
9.375000e+01
9.375000e+01
9.375000e+01
9.375000e+01
9.375000e+01
9.375000e+01
9.375000e+01
9.375000e+01
9.375000e+01
9.375000e+01
9.375000e+01
9.375000e+01
9.375000e+01
9.375000e+01
1.000000e+02
1.000000e+02
1.000000e+02
1.000000e+02
1.000000e+02
1.000000e+02
1.000000e+02
1.000000e+02
1.000000e+02
1.000000e+02
1.000000e+02
1.000000e+02
1.000000e+02
1.000000e+02
1.000000e+02
1.000000e+02
1.000000e+02
1.000000e+02
1.000000e+02
1.000000e+02
1.000000e+02
1.000000e+02
1.000000e+02
1.000000e+02
1.000000e+02
1.000000e+02
1.000000e+02
1.000000e+02
1.000000e+02
1.000000e+02
1.000000e+02
1.000000e+02
1.000000e+02
0.000000e+00
-3.856479e-01
-6.902853e-01
-9.898507e-01
-1.294734e+00
-1.588379e+00
-1.883705e+00
-2.180432e+00
-2.474486e+00
-2.768044e+00
-3.061735e+00
-3.354555e+00
-3.646507e+00
-3.937785e+00
-4.228164e+00
-4.517404e+00
-4.805338e+00
-5.091715e+00
-5.376192e+00
-5.658281e+00
-5.937202e+00
-6.211843e+00
-6.481029e+00
-6.744036e+00
-7.001118e+00
-7.253862e+00
-7.505368e+00
-7.760482e+00
-8.026697e+00
-8.315519e+00
-8.633734e+00
-8.962986e+00
-9.151147e+00
0.000000e+00
-2.387947e-01
-4.932556e-01
-7.513499e-01
-1.016710e+00
-1.273273e+00
-1.531374e+00
-1.791140e+00
-2.048668e+00
-2.305600e+00
-2.562610e+00
-2.818828e+00
-3.074199e+00
-3.328909e+00
-3.582775e+00
-3.835577e+00
-4.087153e+00
-4.337265e+00
-4.585575e+00
-4.831588e+00
-5.074493e+00
-5.313076e+00
-5.545868e+00
-5.771521e+00
-5.989179e+00
-6.198675e+00
-6.400472e+00
-6.595353e+00
-6.783219e+00
-6.957361e+00
-7.090233e+00
-7.156656e+00
-7.242746e+00
0.000000e+00
-1.710767e-01
-3.556756e-01
-5.636223e-01
-7.828317e-01
-9.993933e-01
-1.219343e+00
-1.441346e+00
-1.662407e+00
-1.883431e+00
-2.104590e+00
-2.325195e+00
-2.545141e+00
-2.764442e+00
-2.982872e+00
-3.200173e+00
-3.416084e+00
-3.630239e+00
-3.842136e+00
-4.051071e+00
-4.256022e+00
-4.455582e+00
-4.648037e+00
-4.831575e+00
-5.004471e+00
-5.165101e+00
-5.311683e+00
-5.441548e+00
-5.549324e+00
-5.622948e+00
-5.645845e+00
-5.641933e+00
-5.726164e+00
0.000000e+00
-1.289258e-01
-2.678582e-01
-4.268603e-01
-5.984621e-01
-7.741196e-01
-9.550213e-01
-1.138501e+00
-1.322611e+00
-1.507430e+00
-1.692539e+00
-1.877373e+00
-2.061728e+00
-2.245405e+00
-2.428092e+00
-2.609453e+00
-2.789091e+00
-2.966478e+00
-3.140920e+00
-3.311506e+00
-3.477036e+00
-3.635987e+00
-3.786538e+00
-3.926640e+00
-4.054065e+00
-4.166352e+00
-4.260569e+00
-4.332884e+00
-4.378089e+00
-4.390675e+00
-4.377764e+00
-4.381234e+00
-4.457098e+00
0.000000e+00
-1.048337e-01
-2.134950e-01
-3.334873e-01
-4.621039e-01
-5.981838e-01
-7.393158e-01
-8.834316e-01
-1.029486e+00
-1.176691e+00
-1.324368e+00
-1.472056e+00
-1.619398e+00
-1.766040e+00
-1.911612e+00
-2.055699e+00
-2.197794e+00
-2.337255e+00
-2.473270e+00
-2.604817e+00
-2.730634e+00
-2.849191e+00
-2.958686e+00
-3.057061e+00
-3.142012e+00
-3.211000e+00
-3.261265e+00
-3.290056e+00
-3.295675e+00
-3.281497e+00
-3.267347e+00
-3.291179e+00
-3.366289e+00
0.000000e+00
-7.961932e-02
-1.617837e-01
-2.487038e-01
-3.421470e-01
-4.411573e-01
-5.444691e-01
-6.508141e-01
-7.591830e-01
-8.687711e-01
-9.789463e-01
-1.089227e+00
-1.199205e+00
-1.308493e+00
-1.416686e+00
-1.523324e+00
-1.627853e+00
-1.729587e+00
-1.827681e+00
-1.921106e+00
-2.008638e+00
-2.088841e+00
-2.160069e+00
-2.220489e+00
-2.268142e+00
-2.301084e+00
-2.317699e+00
-2.317449e+00
-2.302633e+00
-2.282205e+00
-2.277428e+00
-2.310886e+00
-2.386220e+00
0.000000e+00
-5.338689e-02
-1.081724e-01
-1.656922e-01
-2.267793e-01
-2.914868e-01
-3.591848e-01
-4.291410e-01
-5.006560e-01
-5.731197e-01
-6.460348e-01
-7.189925e-01
-7.916293e-01
-8.635906e-01
-9.344968e-01
-1.003908e+00
-1.071292e+00
-1.135997e+00
-1.197232e+00
-1.254052e+00
-1.305361e+00
-1.349917e+00
-1.386365e+00
-1.413300e+00
-1.429410e+00
-1.433730e+00
-1.426137e+00
-1.408246e+00
-1.384965e+00
-1.366793e+00
-1.370047e+00
-1.408008e+00
-1.478990e+00
0.000000e+00
-2.677848e-02
-5.425162e-02
-8.293049e-02
-1.132209e-01
-1.451897e-01
-1.786337e-01
-2.132052e-01
-2.485403e-01
-2.843023e-01
-3.201958e-01
-3.559577e-01
-3.913370e-01
-4.260720e-01
-4.598661e-01
-4.923631e-01
-5.231237e-01
-5.516045e-01
-5.771452e-01
-5.989658e-01
-6.161807e-01
-6.278343e-01
-6.329681e-01
-6.307375e-01
-6.206037e-01
-6.026472e-01
-5.780619e-01
-5.498876e-01
-5.239500e-01
-5.095111e-01
-5.177055e-01
-5.551749e-01
-6.173237e-01
0.000000e+00
-1.407857e-04
-2.486720e-04
-3.147313e-04
-3.237380e-04
-2.555124e-04
-8.518100e-05
2.176695e-04
6.907177e-04
1.381333e-03
2.349762e-03
3.673231e-03
5.451440e-03
7.814054e-03
1.093066e-02
1.502327e-02
2.038087e-02
2.737364e-02
3.646173e-02
4.819040e-02
6.316173e-02
8.197432e-02
1.051242e-01
1.328583e-01
1.649678e-01
2.005004e-01
2.373823e-01
2.719857e-01
2.988159e-01
3.107970e-01
3.012501e-01
2.680583e-01
2.171848e-01
0.000000e+00
2.649302e-02
5.374308e-02
8.228002e-02
1.125404e-01
1.446307e-01
1.783960e-01
2.135479e-01
2.497955e-01
2.868943e-01
3.246655e-01
3.629949e-01
4.018227e-01
4.411338e-01
4.809516e-01
5.213357e-01
5.623857e-01
6.042488e-01
6.471268e-01
6.912685e-01
7.369324e-01
7.843102e-01
8.334128e-01
8.839232e-01
9.350190e-01
9.851641e-01
1.031890e+00
1.071646e+00
1.099899e+00
1.111839e+00
1.104134e+00
1.077528e+00
1.038607e+00
0.000000e+00
5.308935e-02
1.076296e-01
1.649782e-01
2.259996e-01
2.907836e-01
3.587438e-01
4.292015e-01
5.015242e-01
5.751853e-01
6.497931e-01
7.250716e-01
8.008247e-01
8.769088e-01
9.532106e-01
1.029628e+00
1.106058e+00
1.182396e+00
1.258545e+00
1.334405e+00
1.409836e+00
1.484584e+00
1.558168e+00
1.629776e+00
1.698146e+00
1.761461e+00
1.817266e+00
1.862499e+00
1.893786e+00
1.908212e+00
1.904707e+00
1.885705e+00
1.858139e+00
0.000000e+00
7.930159e-02
1.611842e-01
2.478874e-01
3.412089e-01
4.402218e-01
5.436947e-01
6.504038e-01
7.593949e-01
8.699331e-01
9.814739e-01
1.093643e+00
1.206164e+00
1.318807e+00
1.431359e+00
1.543586e+00
1.655205e+00
1.765867e+00
1.875156e+00
1.982584e+00
2.087553e+00
2.189292e+00
2.286804e+00
2.378830e+00
2.463827e+00
2.539949e+00
2.605041e+00
2.656739e+00
2.692783e+00
2.711685e+00
2.713782e+00
2.702444e+00
2.684887e+00
0.000000e+00
1.044904e-01
2.128318e-01
3.325579e-01
4.609871e-01
5.969764e-01
7.381336e-01
8.824197e-01
1.028830e+00
1.176627e+00
1.325196e+00
1.474151e+00
1.623222e+00
1.772153e+00
1.920682e+00
2.068502e+00
2.215206e+00
2.360256e+00
2.502949e+00
2.642377e+00
2.777379e+00
2.906537e+00
3.028239e+00
3.140775e+00
3.242422e+00
3.331481e+00
3.406282e+00
3.465263e+00
3.507191e+00
3.531658e+00
3.539856e+00
3.535588e+00
3.526280e+00
0.000000e+00
1.285859e-01
2.671902e-01
4.259174e-01
5.972909e-01
7.727745e-01
9.535666e-01
1.137008e+00
1.321168e+00
1.506156e+00
1.691591e+00
1.876943e+00
2.062047e+00
2.246746e+00
2.430754e+00
2.613734e+00
2.795248e+00
2.974683e+00
3.151143e+00
3.323288e+00
3.489247e+00
3.646729e+00
3.793315e+00
3.926767e+00
4.045213e+00
4.147193e+00
4.231629e+00
4.297826e+00
4.345585e+00
4.375463e+00
4.389281e+00
4.390948e+00
4.387820e+00
0.000000e+00
1.708526e-01
3.552355e-01
5.629945e-01
7.820321e-01
9.984260e-01
1.218223e+00
1.440078e+00
1.660987e+00
1.881862e+00
2.102882e+00
2.323349e+00
2.543148e+00
2.762277e+00
2.980466e+00
3.197353e+00
3.412534e+00
3.625453e+00
3.835166e+00
4.039970e+00
4.237184e+00
4.423414e+00
4.595199e+00
4.749606e+00
4.884527e+00
4.998696e+00
5.091602e+00
5.163439e+00
5.215124e+00
5.248362e+00
5.265805e+00
5.271481e+00
5.272122e+00
0.000000e+00
2.387827e-01
4.932264e-01
7.513077e-01
1.016641e+00
1.273151e+00
1.531196e+00
1.790880e+00
2.048272e+00
2.305008e+00
2.561747e+00
2.817571e+00
3.072375e+00
3.326285e+00
3.579015e+00
3.830160e+00
4.079336e+00
4.326030e+00
4.569262e+00
4.806976e+00
5.035667e+00
5.250787e+00
5.447739e+00
5.622768e+00
5.773353e+00
5.898198e+00
5.997130e+00
6.071077e+00
6.122121e+00
6.153531e+00
6.169639e+00
6.175500e+00
6.176927e+00
0.000000e+00
3.858782e-01
6.907100e-01
9.904835e-01
1.295542e+00
1.589336e+00
1.884826e+00
2.181709e+00
2.475883e+00
2.769525e+00
3.063243e+00
3.355983e+00
3.647689e+00
3.938489e+00
4.228037e+00
4.515892e+00
4.801629e+00
5.084623e+00
5.363602e+00
5.635924e+00
5.897196e+00
6.141828e+00
6.364226e+00
6.559795e+00
6.725345e+00
6.859100e+00
6.960662e+00
7.031155e+00
7.073510e+00
7.092822e+00
7.096519e+00
7.093766e+00
7.092175e+00
0.000000e+00
-2.358894e-01
-4.448582e-01
-6.970968e-01
-9.819302e-01
-1.300220e+00
-1.656133e+00
-2.047899e+00
-2.475707e+00
-2.940736e+00
-3.442909e+00
-3.982182e+00
-4.558800e+00
-5.172801e+00
-5.824085e+00
-6.512550e+00
-7.238030e+00
-8.000254e+00
-8.798844e+00
-9.633286e+00
-1.050289e+01
-1.140688e+01
-1.234457e+01
-1.331577e+01
-1.432119e+01
-1.536296e+01
-1.644538e+01
-1.757579e+01
-1.876569e+01
-2.003387e+01
-2.142595e+01
-2.307481e+01
-2.532784e+01
0.000000e+00
-1.465293e-01
-3.653557e-01
-6.133202e-01
-8.987523e-01
-1.218029e+00
-1.573145e+00
-1.965005e+00
-2.393228e+00
-2.858253e+00
-3.360520e+00
-3.900053e+00
-4.476902e+00
-5.091145e+00
-5.742748e+00
-6.431598e+00
-7.157531e+00
-7.920304e+00
-8.719576e+00
-9.554901e+00
-1.042570e+01
-1.133127e+01
-1.227093e+01
-1.324432e+01
-1.425189e+01
-1.529547e+01
-1.637904e+01
-1.750979e+01
-1.869965e+01
-1.997003e+01
-2.136652e+01
-2.298684e+01
-2.504868e+01
0.000000e+00
-1.108588e-01
-3.049407e-01
-5.477727e-01
-8.304645e-01
-1.148556e+00
-1.502660e+00
-1.894017e+00
-2.322131e+00
-2.787095e+00
-3.289395e+00
-3.829101e+00
-4.406195e+00
-5.020746e+00
-5.672747e+00
-6.362100e+00
-7.088656e+00
-7.852201e+00
-8.652444e+00
-9.489011e+00
-1.036142e+01
-1.126906e+01
-1.221129e+01
-1.318772e+01
-1.419868e+01
-1.524588e+01
-1.633331e+01
-1.746859e+01
-1.866556e+01
-1.994856e+01
-2.134730e+01
-2.287087e+01
-2.449611e+01
0.000000e+00
-1.012340e-01
-2.745481e-01
-5.044040e-01
-7.801713e-01
-1.094196e+00
-1.445956e+00
-1.835800e+00
-2.263061e+00
-2.727630e+00
-3.229797e+00
-3.769580e+00
-4.346940e+00
-4.961916e+00
-5.614500e+00
-6.304614e+00
-7.032140e+00
-7.796904e+00
-8.598666e+00
-9.437115e+00
-1.031184e+01
-1.122228e+01
-1.216787e+01
-1.314822e+01
-1.416362e+01
-1.521574e+01
-1.630848e+01
-1.744951e+01
-1.865254e+01
-1.993798e+01
-2.130760e+01
-2.270873e+01
-2.400590e+01
0.000000e+00
-1.036506e-01
-2.649822e-01
-4.823905e-01
-7.479167e-01
-1.055809e+00
-1.403705e+00
-1.790905e+00
-2.216574e+00
-2.680331e+00
-3.182140e+00
-3.721914e+00
-4.299574e+00
-4.915108e+00
-5.568492e+00
-6.259668e+00
-6.988548e+00
-7.755000e+00
-8.558829e+00
-9.399758e+00
-1.027740e+01
-1.119124e+01
-1.214070e+01
-1.312539e+01
-1.414552e+01
-1.520244e+01
-1.629946e+01
-1.744283e+01
-1.864269e+01
-1.990899e+01
-2.122309e+01
-2.250546e+01
-2.364903e+01
0.000000e+00
-1.045665e-01
-2.616115e-01
-4.706433e-01
-7.282159e-01
-1.030070e+00
-1.373898e+00
-1.758232e+00
-2.182079e+00
-2.644852e+00
-3.146224e+00
-3.685981e+00
-4.263996e+00
-4.880201e+00
-5.534558e+00
-6.227027e+00
-6.957551e+00
-7.726031e+00
-8.532302e+00
-9.376095e+00
-1.025701e+01
-1.117450e+01
-1.212793e+01
-1.311677e+01
-1.414091e+01
-1.520104e+01
-1.629908e+01
-1.743847e+01
-1.862345e+01
-1.985287e+01
-2.109550e+01
-2.228109e+01
-2.332479e+01
0.000000e+00
-1.045661e-01
-2.594732e-01
-4.640641e-01
-7.163853e-01
-1.013863e+00
-1.354346e+00
-1.736297e+00
-2.158607e+00
-2.620519e+00
-3.121542e+00
-3.661363e+00
-4.239795e+00
-4.856741e+00
-5.512157e+00
-6.206023e+00
-6.938311e+00
-7.708951e+00
-8.517789e+00
-9.364544e+00
-1.024876e+01
-1.116979e+01
-1.212684e+01
-1.311904e+01
-1.414570e+01
-1.520645e+01
-1.630127e+01
-1.743015e+01
-1.859133e+01
-1.977505e+01
-2.094800e+01
-2.205311e+01
-2.302509e+01
0.000000e+00
-1.044520e-01
-2.582054e-01
-4.605730e-01
-7.101367e-01
-1.005033e+00
-1.343464e+00
-1.723934e+00
-2.145297e+00
-2.606719e+00
-3.107624e+00
-3.647642e+00
-4.226556e+00
-4.844258e+00
-5.500714e+00
-6.195929e+00
-6.929905e+00
-7.702600e+00
-8.513865e+00
-9.363386e+00
-1.025062e+01
-1.117474e+01
-1.213465e+01
-1.312900e+01
-1.415628e+01
-1.521481e+01
-1.630249e+01
-1.741606e+01
-1.854907e+01
-1.968716e+01
-2.079968e+01
-2.184156e+01
-2.276397e+01
0.000000e+00
-1.044280e-01
-2.578450e-01
-4.595746e-01
-7.083327e-01
-1.002466e+00
-1.340302e+00
-1.720390e+00
-2.141579e+00
-2.603019e+00
-3.104118e+00
-3.644497e+00
-4.223939e+00
-4.842352e+00
-5.499725e+00
-6.196095e+00
-6.931501e+00
-7.705928e+00
-8.519235e+00
-9.371066e+00
-1.026076e+01
-1.118725e+01
-1.214905e+01
-1.314416e+01
-1.417017e+01
-1.522402e+01
-1.630174e+01
-1.739754e+01
-1.850210e+01
-1.959950e+01
-2.066335e+01
-2.165884e+01
-2.254953e+01
0.000000e+00
-1.045450e-01
-2.584033e-01
-4.609080e-01
-7.106550e-01
-1.005791e+00
-1.344528e+00
-1.725380e+00
-2.147216e+00
-2.609218e+00
-3.110835e+00
-3.651726e+00
-4.231712e+00
-4.850733e+00
-5.508815e+00
-6.206032e+00
-6.942462e+00
-7.718125e+00
-8.532898e+00
-9.386390e+00
-1.027781e+01
-1.120581e+01
-1.216844e+01
-1.316302e+01
-1.418616e+01
-1.523360e+01
-1.629986e+01
-1.737750e+01
-1.845592e+01
-1.951959e+01
-2.054664e+01
-2.151051e+01
-2.238382e+01
0.000000e+00
-1.047372e-01
-2.598416e-01
-4.646972e-01
-7.173757e-01
-1.015321e+00
-1.356399e+00
-1.739094e+00
-2.162320e+00
-2.625358e+00
-3.127759e+00
-3.669266e+00
-4.249763e+00
-4.869243e+00
-5.527772e+00
-6.225460e+00
-6.962422e+00
-7.738720e+00
-8.554263e+00
-9.408652e+00
-1.030097e+01
-1.122959e+01
-1.219206e+01
-1.318500e+01
-1.420415e+01
-1.524423e+01
-1.629869e+01
-1.735923e+01
-1.841506e+01
-1.945212e+01
-2.045277e+01
-2.139699e+01
-2.226426e+01
0.000000e+00
-1.047843e-01
-2.620949e-01
-4.715025e-01
-7.295889e-01
-1.032114e+00
-1.376793e+00
-1.762188e+00
-2.187342e+00
-2.651715e+00
-3.155041e+00
-3.697183e+00
-4.278108e+00
-4.897867e+00
-5.556570e+00
-6.254349e+00
-6.991342e+00
-7.767650e+00
-8.583239e+00
-9.437731e+00
-1.033012e+01
-1.125849e+01
-1.221990e+01
-1.321034e+01
-1.422478e+01
-1.525719e+01
-1.630035e+01
-1.734564e+01
-1.838271e+01
-1.939936e+01
-2.038179e+01
-2.131533e+01
-2.218530e+01
0.000000e+00
-1.038667e-01
-2.655005e-01
-4.833766e-01
-7.495476e-01
-1.058274e+00
-1.407228e+00
-1.795744e+00
-2.223028e+00
-2.688757e+00
-3.192970e+00
-3.735668e+00
-4.316882e+00
-4.936734e+00
-5.595369e+00
-6.292921e+00
-7.029524e+00
-7.805304e+00
-8.620288e+00
-9.474144e+00
-1.036580e+01
-1.129307e+01
-1.225259e+01
-1.323978e+01
-1.424907e+01
-1.527389e+01
-1.630669e+01
-1.733883e+01
-1.836069e+01
-1.936188e+01
-2.033192e+01
-2.126093e+01
-2.213987e+01
0.000000e+00
-1.013890e-01
-2.750219e-01
-5.054121e-01
-7.819202e-01
-1.096892e+00
-1.449849e+00
-1.841181e+00
-2.270261e+00
-2.737048e+00
-3.241917e+00
-3.784978e+00
-4.366305e+00
-4.986081e+00
-5.644472e+00
-6.341593e+00
-7.077547e+00
-7.852453e+00
-8.666364e+00
-9.518968e+00
-1.040911e+01
-1.133439e+01
-1.229107e+01
-1.327423e+01
-1.427793e+01
-1.529537e+01
-1.631885e+01
-1.733991e+01
-1.834958e+01
-1.933900e+01
-2.030045e+01
-2.122838e+01
-2.211990e+01
0.000000e+00
-1.109341e-01
-3.053509e-01
-5.487471e-01
-8.322253e-01
-1.151318e+00
-1.506682e+00
-1.899605e+00
-2.329633e+00
-2.796931e+00
-3.302074e+00
-3.845224e+00
-4.426476e+00
-5.046043e+00
-5.704088e+00
-6.400693e+00
-7.135926e+00
-7.909856e+00
-8.722477e+00
-9.573380e+00
-1.046126e+01
-1.138352e+01
-1.233623e+01
-1.331435e+01
-1.431187e+01
-1.532194e+01
-1.633696e+01
-1.734866e+01
-1.834860e+01
-1.932900e+01
-2.028410e+01
-2.121198e+01
-2.211623e+01
0.000000e+00
-1.465768e-01
-3.657433e-01
-6.142750e-01
-9.005022e-01
-1.220795e+00
-1.577187e+00
-1.970630e+00
-2.400788e+00
-2.868172e+00
-3.373309e+00
-3.916314e+00
-4.497347e+00
-5.116626e+00
-5.774268e+00
-6.470333e+00
-7.204865e+00
-7.977863e+00
-8.789149e+00
-9.638040e+00
-1.052294e+01
-1.144106e+01
-1.238850e+01
-1.336031e+01
-1.435069e+01
-1.535301e+01
-1.635987e+01
-1.736329e+01
-1.835525e+01
-1.932863e+01
-2.027879e+01
-2.120604e+01
-2.211904e+01
0.000000e+00
-2.359818e-01
-4.452748e-01
-6.980814e-01
-9.837013e-01
-1.303008e+00
-1.660201e+00
-2.053544e+00
-2.483278e+00
-2.950657e+00
-3.455682e+00
-3.998395e+00
-4.579151e+00
-5.198117e+00
-5.855326e+00
-6.550832e+00
-7.284664e+00
-8.056727e+00
-8.866579e+00
-9.713106e+00
-1.059428e+01
-1.150713e+01
-1.244786e+01