TITLE = "Solution"
VARIABLES = x, y, u, v, psiu, psiv, t, stress
ZONE T="structure" N=561 E=512 F=FEBLOCK ET=QUADRILATERAL VARLOCATION=([7,8]=cellcentered)
0.000000e+00
6.250000e+00
1.250000e+01
1.875000e+01
2.500000e+01
3.125000e+01
3.750000e+01
4.375000e+01
5.000000e+01
5.625000e+01
6.250000e+01
6.875000e+01
7.500000e+01
8.125000e+01
8.750000e+01
9.375000e+01
1.000000e+02
1.062500e+02
1.125000e+02
1.187500e+02
1.250000e+02
1.312500e+02
1.375000e+02
1.437500e+02
1.500000e+02
1.562500e+02
1.625000e+02
1.687500e+02
1.750000e+02
1.812500e+02
1.875000e+02
1.937500e+02
2.000000e+02
0.000000e+00
6.250000e+00
1.250000e+01
1.875000e+01
2.500000e+01
3.125000e+01
3.750000e+01
4.375000e+01
5.000000e+01
5.625000e+01
6.250000e+01
6.875000e+01
7.500000e+01
8.125000e+01
8.750000e+01
9.375000e+01
1.000000e+02
1.062500e+02
1.125000e+02
1.187500e+02
1.250000e+02
1.312500e+02
1.375000e+02
1.437500e+02
1.500000e+02
1.562500e+02
1.625000e+02
1.687500e+02
1.750000e+02
1.812500e+02
1.875000e+02
1.937500e+02
2.000000e+02
0.000000e+00
6.250000e+00
1.250000e+01
1.875000e+01
2.500000e+01
3.125000e+01
3.750000e+01
4.375000e+01
5.000000e+01
5.625000e+01
6.250000e+01
6.875000e+01
7.500000e+01
8.125000e+01
8.750000e+01
9.375000e+01
1.000000e+02
1.062500e+02
1.125000e+02
1.187500e+02
1.250000e+02
1.312500e+02
1.375000e+02
1.437500e+02
1.500000e+02
1.562500e+02
1.625000e+02
1.687500e+02
1.750000e+02
1.812500e+02
1.875000e+02
1.937500e+02
2.000000e+02
0.000000e+00
6.250000e+00
1.250000e+01
1.875000e+01
2.500000e+01
3.125000e+01
3.750000e+01
4.375000e+01
5.000000e+01
5.625000e+01
6.250000e+01
6.875000e+01
7.500000e+01
8.125000e+01
8.750000e+01
9.375000e+01
1.000000e+02
1.062500e+02
1.125000e+02
1.187500e+02
1.250000e+02
1.312500e+02
1.375000e+02
1.437500e+02
1.500000e+02
1.562500e+02
1.625000e+02
1.687500e+02
1.750000e+02
1.812500e+02
1.875000e+02
1.937500e+02
2.000000e+02
0.000000e+00
6.250000e+00
1.250000e+01
1.875000e+01
2.500000e+01
3.125000e+01
3.750000e+01
4.375000e+01
5.000000e+01
5.625000e+01
6.250000e+01
6.875000e+01
7.500000e+01
8.125000e+01
8.750000e+01
9.375000e+01
1.000000e+02
1.062500e+02
1.125000e+02
1.187500e+02
1.250000e+02
1.312500e+02
1.375000e+02
1.437500e+02
1.500000e+02
1.562500e+02
1.625000e+02
1.687500e+02
1.750000e+02
1.812500e+02
1.875000e+02
1.937500e+02
2.000000e+02
0.000000e+00
6.250000e+00
1.250000e+01
1.875000e+01
2.500000e+01
3.125000e+01
3.750000e+01
4.375000e+01
5.000000e+01
5.625000e+01
6.250000e+01
6.875000e+01
7.500000e+01
8.125000e+01
8.750000e+01
9.375000e+01
1.000000e+02
1.062500e+02
1.125000e+02
1.187500e+02
1.250000e+02
1.312500e+02
1.375000e+02
1.437500e+02
1.500000e+02
1.562500e+02
1.625000e+02
1.687500e+02
1.750000e+02
1.812500e+02
1.875000e+02
1.937500e+02
2.000000e+02
0.000000e+00
6.250000e+00
1.250000e+01
1.875000e+01
2.500000e+01
3.125000e+01
3.750000e+01
4.375000e+01
5.000000e+01
5.625000e+01
6.250000e+01
6.875000e+01
7.500000e+01
8.125000e+01
8.750000e+01
9.375000e+01
1.000000e+02
1.062500e+02
1.125000e+02
1.187500e+02
1.250000e+02
1.312500e+02
1.375000e+02
1.437500e+02
1.500000e+02
1.562500e+02
1.625000e+02
1.687500e+02
1.750000e+02
1.812500e+02
1.875000e+02
1.937500e+02
2.000000e+02
0.000000e+00
6.250000e+00
1.250000e+01
1.875000e+01
2.500000e+01
3.125000e+01
3.750000e+01
4.375000e+01
5.000000e+01
5.625000e+01
6.250000e+01
6.875000e+01
7.500000e+01
8.125000e+01
8.750000e+01
9.375000e+01
1.000000e+02
1.062500e+02
1.125000e+02
1.187500e+02
1.250000e+02
1.312500e+02
1.375000e+02
1.437500e+02
1.500000e+02
1.562500e+02
1.625000e+02
1.687500e+02
1.750000e+02
1.812500e+02
1.875000e+02
1.937500e+02
2.000000e+02
0.000000e+00
6.250000e+00
1.250000e+01
1.875000e+01
2.500000e+01
3.125000e+01
3.750000e+01
4.375000e+01
5.000000e+01
5.625000e+01
6.250000e+01
6.875000e+01
7.500000e+01
8.125000e+01
8.750000e+01
9.375000e+01
1.000000e+02
1.062500e+02
1.125000e+02
1.187500e+02
1.250000e+02
1.312500e+02
1.375000e+02
1.437500e+02
1.500000e+02
1.562500e+02
1.625000e+02
1.687500e+02
1.750000e+02
1.812500e+02
1.875000e+02
1.937500e+02
2.000000e+02
0.000000e+00
6.250000e+00
1.250000e+01
1.875000e+01
2.500000e+01
3.125000e+01
3.750000e+01
4.375000e+01
5.000000e+01
5.625000e+01
6.250000e+01
6.875000e+01
7.500000e+01
8.125000e+01
8.750000e+01
9.375000e+01
1.000000e+02
1.062500e+02
1.125000e+02
1.187500e+02
1.250000e+02
1.312500e+02
1.375000e+02
1.437500e+02
1.500000e+02
1.562500e+02
1.625000e+02
1.687500e+02
1.750000e+02
1.812500e+02
1.875000e+02
1.937500e+02
2.000000e+02
0.000000e+00
6.250000e+00
1.250000e+01
1.875000e+01
2.500000e+01
3.125000e+01
3.750000e+01
4.375000e+01
5.000000e+01
5.625000e+01
6.250000e+01
6.875000e+01
7.500000e+01
8.125000e+01
8.750000e+01
9.375000e+01
1.000000e+02
1.062500e+02
1.125000e+02
1.187500e+02
1.250000e+02
1.312500e+02
1.375000e+02
1.437500e+02
1.500000e+02
1.562500e+02
1.625000e+02
1.687500e+02
1.750000e+02
1.812500e+02
1.875000e+02
1.937500e+02
2.000000e+02
0.000000e+00
6.250000e+00
1.250000e+01
1.875000e+01
2.500000e+01
3.125000e+01
3.750000e+01
4.375000e+01
5.000000e+01
5.625000e+01
6.250000e+01
6.875000e+01
7.500000e+01
8.125000e+01
8.750000e+01
9.375000e+01
1.000000e+02
1.062500e+02
1.125000e+02
1.187500e+02
1.250000e+02
1.312500e+02
1.375000e+02
1.437500e+02
1.500000e+02
1.562500e+02
1.625000e+02
1.687500e+02
1.750000e+02
1.812500e+02
1.875000e+02
1.937500e+02
2.000000e+02
0.000000e+00
6.250000e+00
1.250000e+01
1.875000e+01
2.500000e+01
3.125000e+01
3.750000e+01
4.375000e+01
5.000000e+01
5.625000e+01
6.250000e+01
6.875000e+01
7.500000e+01
8.125000e+01
8.750000e+01
9.375000e+01
1.000000e+02
1.062500e+02
1.125000e+02
1.187500e+02
1.250000e+02
1.312500e+02
1.375000e+02
1.437500e+02
1.500000e+02
1.562500e+02
1.625000e+02
1.687500e+02
1.750000e+02
1.812500e+02
1.875000e+02
1.937500e+02
2.000000e+02
0.000000e+00
6.250000e+00
1.250000e+01
1.875000e+01
2.500000e+01
3.125000e+01
3.750000e+01
4.375000e+01
5.000000e+01
5.625000e+01
6.250000e+01
6.875000e+01
7.500000e+01
8.125000e+01
8.750000e+01
9.375000e+01
1.000000e+02
1.062500e+02
1.125000e+02
1.187500e+02
1.250000e+02
1.312500e+02
1.375000e+02
1.437500e+02
1.500000e+02
1.562500e+02
1.625000e+02
1.687500e+02
1.750000e+02
1.812500e+02
1.875000e+02
1.937500e+02
2.000000e+02
0.000000e+00
6.250000e+00
1.250000e+01
1.875000e+01
2.500000e+01
3.125000e+01
3.750000e+01
4.375000e+01
5.000000e+01
5.625000e+01
6.250000e+01
6.875000e+01
7.500000e+01
8.125000e+01
8.750000e+01
9.375000e+01
1.000000e+02
1.062500e+02
1.125000e+02
1.187500e+02
1.250000e+02
1.312500e+02
1.375000e+02
1.437500e+02
1.500000e+02
1.562500e+02
1.625000e+02
1.687500e+02
1.750000e+02
1.812500e+02
1.875000e+02
1.937500e+02
2.000000e+02
0.000000e+00
6.250000e+00
1.250000e+01
1.875000e+01
2.500000e+01
3.125000e+01
3.750000e+01
4.375000e+01
5.000000e+01
5.625000e+01
6.250000e+01
6.875000e+01
7.500000e+01
8.125000e+01
8.750000e+01
9.375000e+01
1.000000e+02
1.062500e+02
1.125000e+02
1.187500e+02
1.250000e+02
1.312500e+02
1.375000e+02
1.437500e+02
1.500000e+02
1.562500e+02
1.625000e+02
1.687500e+02
1.750000e+02
1.812500e+02
1.875000e+02
1.937500e+02
2.000000e+02
0.000000e+00
6.250000e+00
1.250000e+01
1.875000e+01
2.500000e+01
3.125000e+01
3.750000e+01
4.375000e+01
5.000000e+01
5.625000e+01
6.250000e+01
6.875000e+01
7.500000e+01
8.125000e+01
8.750000e+01
9.375000e+01
1.000000e+02
1.062500e+02
1.125000e+02
1.187500e+02
1.250000e+02
1.312500e+02
1.375000e+02
1.437500e+02
1.500000e+02
1.562500e+02
1.625000e+02
1.687500e+02
1.750000e+02
1.812500e+02
1.875000e+02
1.937500e+02
2.000000e+02
0.000000e+00
0.000000e+00
0.000000e+00
0.000000e+00
0.000000e+00
0.000000e+00
0.000000e+00
0.000000e+00
0.000000e+00
0.000000e+00
0.000000e+00
0.000000e+00
0.000000e+00
0.000000e+00
0.000000e+00
0.000000e+00
0.000000e+00
0.000000e+00
0.000000e+00
0.000000e+00
0.000000e+00
0.000000e+00
0.000000e+00
0.000000e+00
0.000000e+00
0.000000e+00
0.000000e+00
0.000000e+00
0.000000e+00
0.000000e+00
0.000000e+00
0.000000e+00
0.000000e+00
6.250000e+00
6.250000e+00
6.250000e+00
6.250000e+00
6.250000e+00
6.250000e+00
6.250000e+00
6.250000e+00
6.250000e+00
6.250000e+00
6.250000e+00
6.250000e+00
6.250000e+00
6.250000e+00
6.250000e+00
6.250000e+00
6.250000e+00
6.250000e+00
6.250000e+00
6.250000e+00
6.250000e+00
6.250000e+00
6.250000e+00
6.250000e+00
6.250000e+00
6.250000e+00
6.250000e+00
6.250000e+00
6.250000e+00
6.250000e+00
6.250000e+00
6.250000e+00
6.250000e+00
1.250000e+01
1.250000e+01
1.250000e+01
1.250000e+01
1.250000e+01
1.250000e+01
1.250000e+01
1.250000e+01
1.250000e+01
1.250000e+01
1.250000e+01
1.250000e+01
1.250000e+01
1.250000e+01
1.250000e+01
1.250000e+01
1.250000e+01
1.250000e+01
1.250000e+01
1.250000e+01
1.250000e+01
1.250000e+01
1.250000e+01
1.250000e+01
1.250000e+01
1.250000e+01
1.250000e+01
1.250000e+01
1.250000e+01
1.250000e+01
1.250000e+01
1.250000e+01
1.250000e+01
1.875000e+01
1.875000e+01
1.875000e+01
1.875000e+01
1.875000e+01
1.875000e+01
1.875000e+01
1.875000e+01
1.875000e+01
1.875000e+01
1.875000e+01
1.875000e+01
1.875000e+01
1.875000e+01
1.875000e+01
1.875000e+01
1.875000e+01
1.875000e+01
1.875000e+01
1.875000e+01
1.875000e+01
1.875000e+01
1.875000e+01
1.875000e+01
1.875000e+01
1.875000e+01
1.875000e+01
1.875000e+01
1.875000e+01
1.875000e+01
1.875000e+01
1.875000e+01
1.875000e+01
2.500000e+01
2.500000e+01
2.500000e+01
2.500000e+01
2.500000e+01
2.500000e+01
2.500000e+01
2.500000e+01
2.500000e+01
2.500000e+01
2.500000e+01
2.500000e+01
2.500000e+01
2.500000e+01
2.500000e+01
2.500000e+01
2.500000e+01
2.500000e+01
2.500000e+01
2.500000e+01
2.500000e+01
2.500000e+01
2.500000e+01
2.500000e+01
2.500000e+01
2.500000e+01
2.500000e+01
2.500000e+01
2.500000e+01
2.500000e+01
2.500000e+01
2.500000e+01
2.500000e+01
3.125000e+01
3.125000e+01
3.125000e+01
3.125000e+01
3.125000e+01
3.125000e+01
3.125000e+01
3.125000e+01
3.125000e+01
3.125000e+01
3.125000e+01
3.125000e+01
3.125000e+01
3.125000e+01
3.125000e+01
3.125000e+01
3.125000e+01
3.125000e+01
3.125000e+01
3.125000e+01
3.125000e+01
3.125000e+01
3.125000e+01
3.125000e+01
3.125000e+01
3.125000e+01
3.125000e+01
3.125000e+01
3.125000e+01
3.125000e+01
3.125000e+01
3.125000e+01
3.125000e+01
3.750000e+01
3.750000e+01
3.750000e+01
3.750000e+01
3.750000e+01
3.750000e+01
3.750000e+01
3.750000e+01
3.750000e+01
3.750000e+01
3.750000e+01
3.750000e+01
3.750000e+01
3.750000e+01
3.750000e+01
3.750000e+01
3.750000e+01
3.750000e+01
3.750000e+01
3.750000e+01
3.750000e+01
3.750000e+01
3.750000e+01
3.750000e+01
3.750000e+01
3.750000e+01
3.750000e+01
3.750000e+01
3.750000e+01
3.750000e+01
3.750000e+01
3.750000e+01
3.750000e+01
4.375000e+01
4.375000e+01
4.375000e+01
4.375000e+01
4.375000e+01
4.375000e+01
4.375000e+01
4.375000e+01
4.375000e+01
4.375000e+01
4.375000e+01
4.375000e+01
4.375000e+01
4.375000e+01
4.375000e+01
4.375000e+01
4.375000e+01
4.375000e+01
4.375000e+01
4.375000e+01
4.375000e+01
4.375000e+01
4.375000e+01
4.375000e+01
4.375000e+01
4.375000e+01
4.375000e+01
4.375000e+01
4.375000e+01
4.375000e+01
4.375000e+01
4.375000e+01
4.375000e+01
5.000000e+01
5.000000e+01
5.000000e+01
5.000000e+01
5.000000e+01
5.000000e+01
5.000000e+01
5.000000e+01
5.000000e+01
5.000000e+01
5.000000e+01
5.000000e+01
5.000000e+01
5.000000e+01
5.000000e+01
5.000000e+01
5.000000e+01
5.000000e+01
5.000000e+01
5.000000e+01
5.000000e+01
5.000000e+01
5.000000e+01
5.000000e+01
5.000000e+01
5.000000e+01
5.000000e+01
5.000000e+01
5.000000e+01
5.000000e+01
5.000000e+01
5.000000e+01
5.000000e+01
5.625000e+01
5.625000e+01
5.625000e+01
5.625000e+01
5.625000e+01
5.625000e+01
5.625000e+01
5.625000e+01
5.625000e+01
5.625000e+01
5.625000e+01
5.625000e+01
5.625000e+01
5.625000e+01
5.625000e+01
5.625000e+01
5.625000e+01
5.625000e+01
5.625000e+01
5.625000e+01
5.625000e+01
5.625000e+01
5.625000e+01
5.625000e+01
5.625000e+01
5.625000e+01
5.625000e+01
5.625000e+01
5.625000e+01
5.625000e+01
5.625000e+01
5.625000e+01
5.625000e+01
6.250000e+01
6.250000e+01
6.250000e+01
6.250000e+01
6.250000e+01
6.250000e+01
6.250000e+01
6.250000e+01
6.250000e+01
6.250000e+01
6.250000e+01
6.250000e+01
6.250000e+01
6.250000e+01
6.250000e+01
6.250000e+01
6.250000e+01
6.250000e+01
6.250000e+01
6.250000e+01
6.250000e+01
6.250000e+01
6.250000e+01
6.250000e+01
6.250000e+01
6.250000e+01
6.250000e+01
6.250000e+01
6.250000e+01
6.250000e+01
6.250000e+01
6.250000e+01
6.250000e+01
6.875000e+01
6.875000e+01
6.875000e+01
6.875000e+01
6.875000e+01
6.875000e+01
6.875000e+01
6.875000e+01
6.875000e+01
6.875000e+01
6.875000e+01
6.875000e+01
6.875000e+01
6.875000e+01
6.875000e+01
6.875000e+01
6.875000e+01
6.875000e+01
6.875000e+01
6.875000e+01
6.875000e+01
6.875000e+01
6.875000e+01
6.875000e+01
6.875000e+01
6.875000e+01
6.875000e+01
6.875000e+01
6.875000e+01
6.875000e+01
6.875000e+01
6.875000e+01
6.875000e+01
7.500000e+01
7.500000e+01
7.500000e+01
7.500000e+01
7.500000e+01
7.500000e+01
7.500000e+01
7.500000e+01
7.500000e+01
7.500000e+01
7.500000e+01
7.500000e+01
7.500000e+01
7.500000e+01
7.500000e+01
7.500000e+01
7.500000e+01
7.500000e+01
7.500000e+01
7.500000e+01
7.500000e+01
7.500000e+01
7.500000e+01
7.500000e+01
7.500000e+01
7.500000e+01
7.500000e+01
7.500000e+01
7.500000e+01
7.500000e+01
7.500000e+01
7.500000e+01
7.500000e+01
8.125000e+01
8.125000e+01
8.125000e+01
8.125000e+01
8.125000e+01
8.125000e+01
8.125000e+01
8.125000e+01
8.125000e+01
8.125000e+01
8.125000e+01
8.125000e+01
8.125000e+01
8.125000e+01
8.125000e+01
8.125000e+01
8.125000e+01
8.125000e+01
8.125000e+01
8.125000e+01
8.125000e+01
8.125000e+01
8.125000e+01
8.125000e+01
8.125000e+01
8.125000e+01
8.125000e+01
8.125000e+01
8.125000e+01
8.125000e+01
8.125000e+01
8.125000e+01
8.125000e+01
8.750000e+01
8.750000e+01
8.750000e+01
8.750000e+01
8.750000e+01
8.750000e+01
8.750000e+01
8.750000e+01
8.750000e+01
8.750000e+01
8.750000e+01
8.750000e+01
8.750000e+01
8.750000e+01
8.750000e+01
8.750000e+01
8.750000e+01
8.750000e+01
8.750000e+01
8.750000e+01
8.750000e+01
8.750000e+01
8.750000e+01
8.750000e+01
8.750000e+01
8.750000e+01
8.750000e+01
8.750000e+01
8.750000e+01
8.750000e+01
8.750000e+01
8.750000e+01
8.750000e+01
9.375000e+01
9.375000e+01
9.375000e+01
9.375000e+01
9.375000e+01
9.375000e+01
9.375000e+01
9.375000e+01
9.375000e+01
9.375000e+01
9.375000e+01
9.375000e+01
9.375000e+01
9.375000e+01
9.375000e+01
9.375000e+01
9.375000e+01
9.375000e+01
9.375000e+01
9.375000e+01
9.375000e+01
9.375000e+01
9.375000e+01
9.375000e+01
9.375000e+01
9.375000e+01
9.375000e+01
9.375000e+01
9.375000e+01
9.375000e+01
9.375000e+01
9.375000e+01
9.375000e+01
1.000000e+02
1.000000e+02
1.000000e+02
1.000000e+02
1.000000e+02
1.000000e+02
1.000000e+02
1.000000e+02
1.000000e+02
1.000000e+02
1.000000e+02
1.000000e+02
1.000000e+02
1.000000e+02
1.000000e+02
1.000000e+02
1.000000e+02
1.000000e+02
1.000000e+02
1.000000e+02
1.000000e+02
1.000000e+02
1.000000e+02
1.000000e+02
1.000000e+02
1.000000e+02
1.000000e+02
1.000000e+02
1.000000e+02
1.000000e+02
1.000000e+02
1.000000e+02
1.000000e+02
0.000000e+00
-4.427607e-01
-7.517538e-01
-1.079971e+00
-1.387177e+00
-1.685388e+00
-1.994412e+00
-2.291323e+00
-2.591498e+00
-2.892379e+00
-3.190565e+00
-3.491045e+00
-3.790502e+00
-4.089484e+00
-4.389407e+00
-4.688449e+00
-4.987655e+00
-5.287080e+00
-5.586058e+00
-5.885356e+00
-6.184809e+00
-6.484101e+00
-6.783855e+00
-7.085054e+00
-7.387090e+00
-7.693429e+00
-8.009027e+00
-8.328900e+00
-8.661889e+00
-9.042667e+00
-9.499993e+00
-9.912559e+00
-1.012013e+01
0.000000e+00
-2.342163e-01
-4.787841e-01
-7.426187e-01
-1.009742e+00
-1.263717e+00
-1.531970e+00
-1.792519e+00
-2.053975e+00
-2.318342e+00
-2.578716e+00
-2.841786e+00
-3.103669e+00
-3.364971e+00
-3.627224e+00
-3.888411e+00
-4.149786e+00
-4.411165e+00
-4.671983e+00
-4.932847e+00
-5.193647e+00
-5.453980e+00
-5.714361e+00
-5.975219e+00
-6.235008e+00
-6.495255e+00
-6.757386e+00
-7.014893e+00
-7.271056e+00
-7.535852e+00
-7.767354e+00
-7.860333e+00
-7.965437e+00
0.000000e+00
-1.271420e-01
-2.829440e-01
-4.816165e-01
-6.940647e-01
-8.997212e-01
-1.123793e+00
-1.344421e+00
-1.566716e+00
-1.792416e+00
-2.015038e+00
-2.240296e+00
-2.464897e+00
-2.689257e+00
-2.914584e+00
-3.139266e+00
-3.364262e+00
-3.589387e+00
-3.814097e+00
-4.038761e+00
-4.263173e+00
-4.486825e+00
-4.709628e+00
-4.931025e+00
-5.148733e+00
-5.361098e+00
-5.565706e+00
-5.756380e+00
-5.928505e+00
-6.071092e+00
-6.140862e+00
-6.142686e+00
-6.235059e+00
0.000000e+00
-1.022303e-01
-1.988049e-01
-3.425188e-01
-4.766990e-01
-6.355102e-01
-8.095594e-01
-9.842485e-01
-1.166386e+00
-1.350039e+00
-1.534759e+00
-1.721853e+00
-1.909507e+00
-2.097845e+00
-2.287362e+00
-2.477049e+00
-2.667307e+00
-2.857897e+00
-3.048227e+00
-3.238204e+00
-3.427182e+00
-3.614213e+00
-3.798022e+00
-3.976880e+00
-4.147787e+00
-4.307201e+00
-4.451237e+00
-4.573884e+00
-4.667038e+00
-4.719137e+00
-4.724466e+00
-4.735420e+00
-4.816822e+00
0.000000e+00
-8.994498e-02
-1.788330e-01
-2.736334e-01
-3.826357e-01
-5.020283e-01
-6.326436e-01
-7.681147e-01
-9.102616e-01
-1.054683e+00
-1.201047e+00
-1.349709e+00
-1.498472e+00
-1.648471e+00
-1.798755e+00
-1.949078e+00
-2.099543e+00
-2.249420e+00
-2.398488e+00
-2.545998e+00
-2.691060e+00
-2.832408e+00
-2.968312e+00
-3.096665e+00
-3.214715e+00
-3.319202e+00
-3.406179e+00
-3.470805e+00
-3.508177e+00
-3.517409e+00
-3.509148e+00
-3.537183e+00
-3.613821e+00
0.000000e+00
-7.169304e-02
-1.416750e-01
-2.152820e-01
-2.959847e-01
-3.838038e-01
-4.781221e-01
-5.784766e-01
-6.823147e-01
-7.893214e-01
-8.980405e-01
-1.007733e+00
-1.118273e+00
-1.228910e+00
-1.339596e+00
-1.449988e+00
-1.559708e+00
-1.668448e+00
-1.775589e+00
-1.880381e+00
-1.981753e+00
-2.078293e+00
-2.168216e+00
-2.249433e+00
-2.319632e+00
-2.376306e+00
-2.416836e+00
-2.438760e+00
-2.441660e+00
-2.428401e+00
-2.422286e+00
-2.453420e+00
-2.524648e+00
0.000000e+00
-4.937106e-02
-9.835446e-02
-1.488339e-01
-2.027762e-01
-2.608386e-01
-3.230317e-01
-3.887181e-01
-4.571805e-01
-5.274778e-01
-5.989569e-01
-6.710308e-01
-7.432565e-01
-8.153368e-01
-8.869439e-01
-9.578114e-01
-1.027611e+00
-1.095929e+00
-1.162228e+00
-1.225739e+00
-1.285431e+00
-1.339946e+00
-1.387633e+00
-1.426642e+00
-1.455081e+00
-1.471236e+00
-1.473763e+00
-1.461822e+00
-1.436878e+00
-1.408269e+00
-1.399548e+00
-1.431203e+00
-1.501862e+00
0.000000e+00
-2.572400e-02
-5.135215e-02
-7.758659e-02
-1.051841e-01
-1.345800e-01
-1.657854e-01
-1.985682e-01
-2.325016e-01
-2.671527e-01
-3.020863e-01
-3.369457e-01
-3.714316e-01
-4.052751e-01
-4.382333e-01
-4.700463e-01
-5.004279e-01
-5.290314e-01
-5.554026e-01
-5.789243e-01
-5.987452e-01
-6.137407e-01
-6.225354e-01
-6.236079e-01
-6.154398e-01
-5.966835e-01
-5.662814e-01
-5.247782e-01
-4.787338e-01
-4.397540e-01
-4.300267e-01
-4.630054e-01
-5.340656e-01
0.000000e+00
-1.404475e-03
-2.811621e-03
-4.169871e-03
-5.421867e-03
-6.498612e-03
-7.318807e-03
-7.788467e-03
-7.804584e-03
-7.256940e-03
-6.028590e-03
-3.994493e-03
-1.017220e-03
3.057990e-03
8.408287e-03
1.523484e-02
2.376385e-02
3.425354e-02
4.701683e-02
6.246552e-02
8.116874e-02
1.039042e-01
1.316680e-01
1.655960e-01
2.068881e-01
2.568097e-01
3.156108e-01
3.792714e-01
4.376907e-01
4.771319e-01
4.833883e-01
4.484746e-01
3.793834e-01
0.000000e+00
2.296679e-02
4.583138e-02
6.939677e-02
9.453788e-02
1.218249e-01
1.514372e-01
1.833305e-01
2.172817e-01
2.530718e-01
2.904862e-01
3.294003e-01
3.697640e-01
4.115909e-01
4.549660e-01
5.000146e-01
5.469014e-01
5.958147e-01
6.469651e-01
7.006072e-01
7.570592e-01
8.167265e-01
8.801268e-01
9.479439e-01
1.020886e+00
1.098702e+00
1.178737e+00
1.254694e+00
1.315776e+00
1.350543e+00
1.350822e+00
1.316245e+00
1.257863e+00
0.000000e+00
4.676510e-02
9.312165e-02
1.410724e-01
1.926828e-01
2.487639e-01
3.094960e-01
3.744490e-01
4.431082e-01
5.147351e-01
5.888812e-01
6.651435e-01
7.432636e-01
8.231336e-01
9.046476e-01
9.878191e-01
1.072701e+00
1.159414e+00
1.248168e+00
1.339232e+00
1.432875e+00
1.529199e+00
1.628089e+00
1.729105e+00
1.831060e+00
1.931546e+00
2.025913e+00
2.106703e+00
2.165811e+00
2.196347e+00
2.195747e+00
2.168193e+00
2.125135e+00
0.000000e+00
6.931529e-02
1.368870e-01
2.081287e-01
2.867020e-01
3.726549e-01
4.656894e-01
5.655298e-01
6.698231e-01
7.785290e-01
8.903673e-01
1.004798e+00
1.121825e+00
1.240790e+00
1.361695e+00
1.484239e+00
1.608144e+00
1.733391e+00
1.859971e+00
1.988161e+00
2.118226e+00
2.249866e+00
2.381941e+00
2.512406e+00
2.638547e+00
2.756644e+00
2.861301e+00
2.946324e+00
3.006387e+00
3.038850e+00
3.044106e+00
3.027110e+00
2.999189e+00
0.000000e+00
8.790384e-02
1.745356e-01
2.673049e-01
3.740638e-01
4.917753e-01
6.211597e-01
7.560959e-01
8.988308e-01
1.045063e+00
1.194855e+00
1.348749e+00
1.504804e+00
1.664230e+00
1.826049e+00
1.989801e+00
2.155311e+00
2.321618e+00
2.488441e+00
2.655438e+00
2.821844e+00
2.986384e+00
3.147548e+00
3.303308e+00
3.450543e+00
3.584890e+00
3.701118e+00
3.794358e+00
3.861524e+00
3.901402e+00
3.915398e+00
3.909125e+00
3.894234e+00
0.000000e+00
1.005887e-01
1.958768e-01
3.373021e-01
4.696571e-01
6.264671e-01
7.990256e-01
9.727906e-01
1.154668e+00
1.339250e+00
1.526206e+00
1.717292e+00
1.910995e+00
2.107770e+00
2.308110e+00
2.510748e+00
2.715704e+00
2.922043e+00
3.128643e+00
3.334770e+00
3.538189e+00
3.736737e+00
3.929200e+00
4.113462e+00
4.285406e+00
4.439608e+00
4.570851e+00
4.675416e+00
4.751646e+00
4.799819e+00
4.822433e+00
4.825411e+00
4.820401e+00
0.000000e+00
1.270669e-01
2.826245e-01
4.803917e-01
6.911292e-01
8.952837e-01
1.117831e+00
1.337119e+00
1.558438e+00
1.783606e+00
2.006307e+00
2.232519e+00
2.459136e+00
2.686876e+00
2.917047e+00
3.147845e+00
3.380143e+00
3.613154e+00
3.846005e+00
4.078561e+00
4.308548e+00
4.534601e+00
4.756971e+00
4.972433e+00
5.172569e+00
5.348454e+00
5.494377e+00
5.608314e+00
5.690804e+00
5.744151e+00
5.772320e+00
5.781562e+00
5.782596e+00
0.000000e+00
2.342747e-01
4.789567e-01
7.427523e-01
1.009690e+00
1.263529e+00
1.531513e+00
1.791722e+00
2.052876e+00
2.316761e+00
2.576555e+00
2.838967e+00
3.099948e+00
3.360178e+00
3.621112e+00
3.880534e+00
4.139811e+00
4.398385e+00
4.655527e+00
4.911993e+00
5.166477e+00
5.419005e+00
5.670988e+00
5.916827e+00
6.142623e+00
6.336086e+00
6.491618e+00
6.608673e+00
6.689831e+00
6.739972e+00
6.765794e+00
6.775228e+00
6.777521e+00
0.000000e+00
4.425789e-01
7.521051e-01
1.080954e+00
1.389519e+00
1.689183e+00
1.999504e+00
2.297663e+00
2.598881e+00
2.900356e+00
3.198584e+00
3.498449e+00
3.796079e+00
4.091968e+00
4.387184e+00
4.679735e+00
4.970933e+00
5.260630e+00
5.548317e+00
5.835366e+00
6.121520e+00
6.407675e+00
6.693943e+00
6.970468e+00
7.218530e+00
7.424330e+00
7.582447e+00
7.692903e+00
7.759603e+00
7.790174e+00
7.796081e+00
7.791720e+00
7.789186e+00
0.000000e+00
-2.652967e-01
-5.436617e-01
-8.943177e-01
-1.281727e+00
-1.709974e+00
-2.180817e+00
-2.686030e+00
-3.230254e+00
-3.811086e+00
-4.428714e+00
-5.084728e+00
-5.777704e+00
-6.508738e+00
-7.277688e+00
-8.084321e+00
-8.929202e+00
-9.812119e+00
-1.073326e+01
-1.169303e+01
-1.269148e+01
-1.372895e+01
-1.480603e+01
-1.592309e+01
-1.708117e+01
-1.828343e+01
-1.953348e+01
-2.083726e+01
-2.220778e+01
-2.366076e+01
-2.521541e+01
-2.703507e+01
-2.959366e+01
0.000000e+00
-1.684104e-01
-4.635560e-01
-8.071989e-01
-1.199060e+00
-1.625565e+00
-2.096257e+00
-2.602710e+00
-3.145903e+00
-3.727207e+00
-4.344799e+00
-5.000616e+00
-5.693886e+00
-6.424794e+00
-7.193791e+00
-8.000540e+00
-8.845367e+00
-9.728367e+00
-1.064956e+01
-1.160928e+01
-1.260779e+01
-1.364528e+01
-1.472217e+01
-1.583923e+01
-1.699715e+01
-1.819827e+01
-1.944777e+01
-2.075129e+01
-2.211818e+01
-2.356701e+01
-2.514249e+01
-2.694439e+01
-2.921871e+01
0.000000e+00
-1.408401e-01
-4.055596e-01
-7.472359e-01
-1.132673e+00
-1.557141e+00
-2.026324e+00
-2.531879e+00
-3.074546e+00
-3.655618e+00
-4.273064e+00
-4.928728e+00
-5.622094e+00
-6.352882e+00
-7.121967e+00
-7.928757e+00
-8.773599e+00
-9.656742e+00
-1.057803e+01
-1.153788e+01
-1.253662e+01
-1.357436e+01
-1.465159e+01
-1.576945e+01
-1.692857e+01
-1.813131e+01
-1.938345e+01
-2.069036e+01
-2.206277e+01
-2.353277e+01
-2.514208e+01
-2.683874e+01
-2.860757e+01
0.000000e+00
-1.646209e-01
-3.957167e-01
-7.270235e-01
-1.093105e+00
-1.511055e+00
-1.976120e+00
-2.477006e+00
-3.018761e+00
-3.598324e+00
-4.214904e+00
-4.870371e+00
-5.563239e+00
-6.293954e+00
-7.062998e+00
-7.869744e+00
-8.714740e+00
-9.598071e+00
-1.051972e+01
-1.148009e+01
-1.247956e+01
-1.351839e+01
-1.459718e+01
-1.571724e+01
-1.687959e+01
-1.808676e+01
-1.934399e+01
-2.065719e+01
-2.203975e+01
-2.352462e+01
-2.512562e+01
-2.668529e+01
-2.810372e+01
0.000000e+00
-1.837549e-01
-4.193697e-01
-7.269767e-01
-1.084894e+00
-1.490416e+00
-1.947095e+00
-2.442023e+00
-2.980180e+00
-3.557265e+00
-4.172224e+00
-4.827001e+00
-5.519120e+00
-6.249799e+00
-7.018766e+00
-7.825653e+00
-8.671065e+00
-9.554853e+00
-1.047736e+01
-1.143888e+01
-1.243990e+01
-1.348089e+01
-1.456251e+01
-1.568592e+01
-1.685246e+01
-1.806468e+01
-1.932689e+01
-2.064476e+01
-2.202911e+01
-2.350127e+01
-2.504202e+01
-2.648145e+01
-2.773891e+01
0.000000e+00
-1.919532e-01
-4.337260e-01
-7.314663e-01
-1.081527e+00
-1.480936e+00
-1.928297e+00
-2.419580e+00
-2.953218e+00
-3.527866e+00
-4.141929e+00
-4.795420e+00
-5.487624e+00
-6.218312e+00
-6.987548e+00
-7.795122e+00
-8.641242e+00
-9.526098e+00
-1.044997e+01
-1.141334e+01
-1.241673e+01
-1.346072e+01
-1.454594e+01
-1.567323e+01
-1.684373e+01
-1.805952e+01
-1.932397e+01
-2.064045e+01
-2.201167e+01
-2.344705e+01
-2.489763e+01
-2.625362e+01
-2.742767e+01
0.000000e+00
-1.959260e-01
-4.399124e-01
-7.347102e-01
-1.080269e+00
-1.475144e+00
-1.917488e+00
-2.405111e+00
-2.936085e+00
-3.508816e+00
-4.122138e+00
-4.775233e+00
-5.467560e+00
-6.198765e+00
-6.968656e+00
-7.777185e+00
-8.624434e+00
-9.510648e+00
-1.043623e+01
-1.140173e+01
-1.240778e+01
-1.345501e+01
-1.454390e+01
-1.567482e+01
-1.684817e+01
-1.806497e+01
-1.932722e+01
-2.063479e+01
-2.198090e+01
-2.336574e+01
-2.473798e+01
-2.602224e+01
-2.713510e+01
0.000000e+00
-1.975443e-01
-4.424477e-01
-7.364002e-01
-1.079899e+00
-1.472287e+00
-1.912164e+00
-2.397769e+00
-2.927333e+00
-3.499297e+00
-4.112404e+00
-4.765736e+00
-5.458635e+00
-6.190673e+00
-6.961599e+00
-7.771317e+00
-8.619897e+00
-9.507594e+00
-1.043487e+01
-1.140238e+01
-1.241087e+01
-1.346097e+01
-1.455296e+01
-1.568659e+01
-1.686113e+01
-1.807593e+01
-1.933093e+01
-2.062255e+01
-2.193740e+01
-2.327042e+01
-2.457566e+01
-2.579222e+01
-2.684688e+01
0.000000e+00
-1.979438e-01
-4.431430e-01
-7.369941e-01
-1.080065e+00
-1.471918e+00
-1.911338e+00
-2.396702e+00
-2.926309e+00
-3.498611e+00
-4.112339e+00
-4.766521e+00
-5.460464e+00
-6.193696e+00
-6.965927e+00
-7.777020e+00
-8.627003e+00
-9.516105e+00
-1.044481e+01
-1.141384e+01
-1.242407e+01
-1.347618e+01
-1.457015e+01
-1.570494e+01
-1.687840e+01
-1.808790e+01
-1.933102e+01
-2.060185e+01
-2.188545e+01
-2.316746e+01
-2.441285e+01
-2.556393e+01
-2.656084e+01
0.000000e+00
-1.974538e-01
-4.424573e-01
-7.367061e-01
-1.080713e+00
-1.473841e+00
-1.914719e+00
-2.401599e+00
-2.932717e+00
-3.506507e+00
-4.121700e+00
-4.777352e+00
-5.472777e+00
-6.207511e+00
-6.981248e+00
-7.793810e+00
-8.645158e+00
-9.535447e+00
-1.046512e+01
-1.143496e+01
-1.244593e+01
-1.349872e+01
-1.459300e+01
-1.572667e+01
-1.689606e+01
-1.809737e+01
-1.932634e+01
-2.057509e+01
-2.182795e+01
-2.306507e+01
-2.425608e+01
-2.535353e+01
-2.631118e+01
0.000000e+00
-1.957380e-01
-4.399169e-01
-7.352950e-01
-1.081845e+00
-1.478182e+00
-1.922512e+00
-2.412670e+00
-2.946732e+00
-3.523089e+00
-4.140535e+00
-4.798196e+00
-5.495463e+00
-6.231908e+00
-7.007233e+00
-7.821227e+00
-8.673760e+00
-9.564883e+00
-1.049496e+01
-1.146478e+01
-1.247529e+01
-1.352705e+01
-1.461924e+01
-1.574896e+01
-1.691202e+01
-1.810406e+01
-1.931910e+01
-2.054662e+01
-2.177071e+01
-2.297022e+01
-2.411860e+01
-2.518128e+01
-2.612292e+01
0.000000e+00
-1.916472e-01
-4.336744e-01
-7.322731e-01
-1.083742e+00
-1.485273e+00
-1.935605e+00
-2.430643e+00
-2.968880e+00
-3.548924e+00
-4.169088e+00
-4.829294e+00
-5.528687e+00
-6.266908e+00
-7.043845e+00
-7.859030e+00
-8.712366e+00
-9.603765e+00
-1.053347e+01
-1.150230e+01
-1.251100e+01
-1.355957e+01
-1.464709e+01
-1.577107e+01
-1.692748e+01
-1.811105e+01
-1.931350e+01
-2.052234e+01
-2.172120e+01
-2.289103e+01
-2.400997e+01
-2.505353e+01
-2.599601e+01
0.000000e+00
-1.832720e-01
-4.191451e-01
-7.279216e-01
-1.087432e+00
-1.495730e+00
-1.956325e+00
-2.456121e+00
-3.000381e+00
-3.584571e+00
-4.207554e+00
-4.871118e+00
-5.572549e+00
-6.312810e+00
-7.091368e+00
-7.907401e+00
-8.761140e+00
-9.652079e+00
-1.058045e+01
-1.154716e+01
-1.255241e+01
-1.359578e+01
-1.467722e+01
-1.579550e+01
-1.694663e+01
-1.812349e+01
-1.931533e+01
-2.050806e+01
-2.168607e+01
-2.283303e+01
-2.393222e+01
-2.496726e+01
-2.592227e+01
0.000000e+00
-1.638589e-01
-3.955176e-01
-7.276216e-01
-1.095713e+00
-1.516757e+00
-1.986444e+00
-2.493195e+00
-3.042244e+00
-3.630419e+00
-4.256681e+00
-4.922812e+00
-5.626876e+00
-6.368996e+00
-7.149168e+00
-7.966067e+00
-8.819836e+00
-9.710014e+00
-1.063646e+01
-1.160013e+01
-1.260078e+01
-1.363816e+01
-1.471379e+01
-1.582782e+01
-1.697538e+01
-1.814670e+01
-1.932882e+01
-2.050735e+01
-2.166808e+01
-2.279730e+01
-2.388279e+01
-2.491537e+01
-2.588961e+01
0.000000e+00
-1.405450e-01
-4.055094e-01
-7.478229e-01
-1.134993e+00
-1.562692e+00
-2.036679e+00
-2.548509e+00
-3.099005e+00
-3.689398e+00
-4.317365e+00
-4.984701e+00
-5.690399e+00
-6.433691e+00
-7.214887e+00
-8.032468e+00
-8.886296e+00
-9.775981e+00
-1.070101e+01
-1.166205e+01
-1.265878e+01
-1.369158e+01
-1.476322e+01
-1.587426e+01
-1.701807e+01
-1.818268e+01
-1.935449e+01
-2.052005e+01
-2.166642e+01
-2.278174e+01
-2.385708e+01
-2.488918e+01
-2.588341e+01
0.000000e+00
-1.682805e-01
-4.634264e-01
-8.076324e-01
-1.201121e+00
-1.630896e+00
-2.106410e+00
-2.619255e+00
-3.170451e+00
-3.761254e+00
-4.389648e+00
-5.057449e+00
-5.763420e+00
-6.507202e+00
-7.288586e+00
-8.106287e+00
-8.960030e+00
-9.849256e+00
-1.077350e+01
-1.173298e+01
-1.272759e+01
-1.375850e+01
-1.482840e+01
-1.593633e+01
-1.707402e+01
-1.822926e+01
-1.938961e+01
-2.054286e+01
-2.167703e+01
-2.278136e+01
-2.384876e+01
-2.487969e+01
-2.588780e+01
0.000000e+00
-2.652104e-01
-5.436304e-01
-8.948611e-01
-1.283993e+00
-1.715481e+00
-2.191113e+00
-2.702727e+00
-3.254919e+00
-3.845173e+00
-4.473556e+00
-5.141430e+00
-5.846937e+00
-6.590648e+00
-7.371684e+00
-8.188968e+00
-9.042401e+00
-9.931087e+00
-1.085482e+01
-1.181368e+01
-1.280760e+01
-1.383836e+01
-1.490740e+01