TITLE = "Solution"
VARIABLES = x, y, u, v, psiu, psiv, t, stress
ZONE T="structure" N=561 E=512 F=FEBLOCK ET=QUADRILATERAL VARLOCATION=([7,8]=cellcentered)
0.000000e+00
6.250000e+00
1.250000e+01
1.875000e+01
2.500000e+01
3.125000e+01
3.750000e+01
4.375000e+01
5.000000e+01
5.625000e+01
6.250000e+01
6.875000e+01
7.500000e+01
8.125000e+01
8.750000e+01
9.375000e+01
1.000000e+02
1.062500e+02
1.125000e+02
1.187500e+02
1.250000e+02
1.312500e+02
1.375000e+02
1.437500e+02
1.500000e+02
1.562500e+02
1.625000e+02
1.687500e+02
1.750000e+02
1.812500e+02
1.875000e+02
1.937500e+02
2.000000e+02
0.000000e+00
6.250000e+00
1.250000e+01
1.875000e+01
2.500000e+01
3.125000e+01
3.750000e+01
4.375000e+01
5.000000e+01
5.625000e+01
6.250000e+01
6.875000e+01
7.500000e+01
8.125000e+01
8.750000e+01
9.375000e+01
1.000000e+02
1.062500e+02
1.125000e+02
1.187500e+02
1.250000e+02
1.312500e+02
1.375000e+02
1.437500e+02
1.500000e+02
1.562500e+02
1.625000e+02
1.687500e+02
1.750000e+02
1.812500e+02
1.875000e+02
1.937500e+02
2.000000e+02
0.000000e+00
6.250000e+00
1.250000e+01
1.875000e+01
2.500000e+01
3.125000e+01
3.750000e+01
4.375000e+01
5.000000e+01
5.625000e+01
6.250000e+01
6.875000e+01
7.500000e+01
8.125000e+01
8.750000e+01
9.375000e+01
1.000000e+02
1.062500e+02
1.125000e+02
1.187500e+02
1.250000e+02
1.312500e+02
1.375000e+02
1.437500e+02
1.500000e+02
1.562500e+02
1.625000e+02
1.687500e+02
1.750000e+02
1.812500e+02
1.875000e+02
1.937500e+02
2.000000e+02
0.000000e+00
6.250000e+00
1.250000e+01
1.875000e+01
2.500000e+01
3.125000e+01
3.750000e+01
4.375000e+01
5.000000e+01
5.625000e+01
6.250000e+01
6.875000e+01
7.500000e+01
8.125000e+01
8.750000e+01
9.375000e+01
1.000000e+02
1.062500e+02
1.125000e+02
1.187500e+02
1.250000e+02
1.312500e+02
1.375000e+02
1.437500e+02
1.500000e+02
1.562500e+02
1.625000e+02
1.687500e+02
1.750000e+02
1.812500e+02
1.875000e+02
1.937500e+02
2.000000e+02
0.000000e+00
6.250000e+00
1.250000e+01
1.875000e+01
2.500000e+01
3.125000e+01
3.750000e+01
4.375000e+01
5.000000e+01
5.625000e+01
6.250000e+01
6.875000e+01
7.500000e+01
8.125000e+01
8.750000e+01
9.375000e+01
1.000000e+02
1.062500e+02
1.125000e+02
1.187500e+02
1.250000e+02
1.312500e+02
1.375000e+02
1.437500e+02
1.500000e+02
1.562500e+02
1.625000e+02
1.687500e+02
1.750000e+02
1.812500e+02
1.875000e+02
1.937500e+02
2.000000e+02
0.000000e+00
6.250000e+00
1.250000e+01
1.875000e+01
2.500000e+01
3.125000e+01
3.750000e+01
4.375000e+01
5.000000e+01
5.625000e+01
6.250000e+01
6.875000e+01
7.500000e+01
8.125000e+01
8.750000e+01
9.375000e+01
1.000000e+02
1.062500e+02
1.125000e+02
1.187500e+02
1.250000e+02
1.312500e+02
1.375000e+02
1.437500e+02
1.500000e+02
1.562500e+02
1.625000e+02
1.687500e+02
1.750000e+02
1.812500e+02
1.875000e+02
1.937500e+02
2.000000e+02
0.000000e+00
6.250000e+00
1.250000e+01
1.875000e+01
2.500000e+01
3.125000e+01
3.750000e+01
4.375000e+01
5.000000e+01
5.625000e+01
6.250000e+01
6.875000e+01
7.500000e+01
8.125000e+01
8.750000e+01
9.375000e+01
1.000000e+02
1.062500e+02
1.125000e+02
1.187500e+02
1.250000e+02
1.312500e+02
1.375000e+02
1.437500e+02
1.500000e+02
1.562500e+02
1.625000e+02
1.687500e+02
1.750000e+02
1.812500e+02
1.875000e+02
1.937500e+02
2.000000e+02
0.000000e+00
6.250000e+00
1.250000e+01
1.875000e+01
2.500000e+01
3.125000e+01
3.750000e+01
4.375000e+01
5.000000e+01
5.625000e+01
6.250000e+01
6.875000e+01
7.500000e+01
8.125000e+01
8.750000e+01
9.375000e+01
1.000000e+02
1.062500e+02
1.125000e+02
1.187500e+02
1.250000e+02
1.312500e+02
1.375000e+02
1.437500e+02
1.500000e+02
1.562500e+02
1.625000e+02
1.687500e+02
1.750000e+02
1.812500e+02
1.875000e+02
1.937500e+02
2.000000e+02
0.000000e+00
6.250000e+00
1.250000e+01
1.875000e+01
2.500000e+01
3.125000e+01
3.750000e+01
4.375000e+01
5.000000e+01
5.625000e+01
6.250000e+01
6.875000e+01
7.500000e+01
8.125000e+01
8.750000e+01
9.375000e+01
1.000000e+02
1.062500e+02
1.125000e+02
1.187500e+02
1.250000e+02
1.312500e+02
1.375000e+02
1.437500e+02
1.500000e+02
1.562500e+02
1.625000e+02
1.687500e+02
1.750000e+02
1.812500e+02
1.875000e+02
1.937500e+02
2.000000e+02
0.000000e+00
6.250000e+00
1.250000e+01
1.875000e+01
2.500000e+01
3.125000e+01
3.750000e+01
4.375000e+01
5.000000e+01
5.625000e+01
6.250000e+01
6.875000e+01
7.500000e+01
8.125000e+01
8.750000e+01
9.375000e+01
1.000000e+02
1.062500e+02
1.125000e+02
1.187500e+02
1.250000e+02
1.312500e+02
1.375000e+02
1.437500e+02
1.500000e+02
1.562500e+02
1.625000e+02
1.687500e+02
1.750000e+02
1.812500e+02
1.875000e+02
1.937500e+02
2.000000e+02
0.000000e+00
6.250000e+00
1.250000e+01
1.875000e+01
2.500000e+01
3.125000e+01
3.750000e+01
4.375000e+01
5.000000e+01
5.625000e+01
6.250000e+01
6.875000e+01
7.500000e+01
8.125000e+01
8.750000e+01
9.375000e+01
1.000000e+02
1.062500e+02
1.125000e+02
1.187500e+02
1.250000e+02
1.312500e+02
1.375000e+02
1.437500e+02
1.500000e+02
1.562500e+02
1.625000e+02
1.687500e+02
1.750000e+02
1.812500e+02
1.875000e+02
1.937500e+02
2.000000e+02
0.000000e+00
6.250000e+00
1.250000e+01
1.875000e+01
2.500000e+01
3.125000e+01
3.750000e+01
4.375000e+01
5.000000e+01
5.625000e+01
6.250000e+01
6.875000e+01
7.500000e+01
8.125000e+01
8.750000e+01
9.375000e+01
1.000000e+02
1.062500e+02
1.125000e+02
1.187500e+02
1.250000e+02
1.312500e+02
1.375000e+02
1.437500e+02
1.500000e+02
1.562500e+02
1.625000e+02
1.687500e+02
1.750000e+02
1.812500e+02
1.875000e+02
1.937500e+02
2.000000e+02
0.000000e+00
6.250000e+00
1.250000e+01
1.875000e+01
2.500000e+01
3.125000e+01
3.750000e+01
4.375000e+01
5.000000e+01
5.625000e+01
6.250000e+01
6.875000e+01
7.500000e+01
8.125000e+01
8.750000e+01
9.375000e+01
1.000000e+02
1.062500e+02
1.125000e+02
1.187500e+02
1.250000e+02
1.312500e+02
1.375000e+02
1.437500e+02
1.500000e+02
1.562500e+02
1.625000e+02
1.687500e+02
1.750000e+02
1.812500e+02
1.875000e+02
1.937500e+02
2.000000e+02
0.000000e+00
6.250000e+00
1.250000e+01
1.875000e+01
2.500000e+01
3.125000e+01
3.750000e+01
4.375000e+01
5.000000e+01
5.625000e+01
6.250000e+01
6.875000e+01
7.500000e+01
8.125000e+01
8.750000e+01
9.375000e+01
1.000000e+02
1.062500e+02
1.125000e+02
1.187500e+02
1.250000e+02
1.312500e+02
1.375000e+02
1.437500e+02
1.500000e+02
1.562500e+02
1.625000e+02
1.687500e+02
1.750000e+02
1.812500e+02
1.875000e+02
1.937500e+02
2.000000e+02
0.000000e+00
6.250000e+00
1.250000e+01
1.875000e+01
2.500000e+01
3.125000e+01
3.750000e+01
4.375000e+01
5.000000e+01
5.625000e+01
6.250000e+01
6.875000e+01
7.500000e+01
8.125000e+01
8.750000e+01
9.375000e+01
1.000000e+02
1.062500e+02
1.125000e+02
1.187500e+02
1.250000e+02
1.312500e+02
1.375000e+02
1.437500e+02
1.500000e+02
1.562500e+02
1.625000e+02
1.687500e+02
1.750000e+02
1.812500e+02
1.875000e+02
1.937500e+02
2.000000e+02
0.000000e+00
6.250000e+00
1.250000e+01
1.875000e+01
2.500000e+01
3.125000e+01
3.750000e+01
4.375000e+01
5.000000e+01
5.625000e+01
6.250000e+01
6.875000e+01
7.500000e+01
8.125000e+01
8.750000e+01
9.375000e+01
1.000000e+02
1.062500e+02
1.125000e+02
1.187500e+02
1.250000e+02
1.312500e+02
1.375000e+02
1.437500e+02
1.500000e+02
1.562500e+02
1.625000e+02
1.687500e+02
1.750000e+02
1.812500e+02
1.875000e+02
1.937500e+02
2.000000e+02
0.000000e+00
6.250000e+00
1.250000e+01
1.875000e+01
2.500000e+01
3.125000e+01
3.750000e+01
4.375000e+01
5.000000e+01
5.625000e+01
6.250000e+01
6.875000e+01
7.500000e+01
8.125000e+01
8.750000e+01
9.375000e+01
1.000000e+02
1.062500e+02
1.125000e+02
1.187500e+02
1.250000e+02
1.312500e+02
1.375000e+02
1.437500e+02
1.500000e+02
1.562500e+02
1.625000e+02
1.687500e+02
1.750000e+02
1.812500e+02
1.875000e+02
1.937500e+02
2.000000e+02
0.000000e+00
0.000000e+00
0.000000e+00
0.000000e+00
0.000000e+00
0.000000e+00
0.000000e+00
0.000000e+00
0.000000e+00
0.000000e+00
0.000000e+00
0.000000e+00
0.000000e+00
0.000000e+00
0.000000e+00
0.000000e+00
0.000000e+00
0.000000e+00
0.000000e+00
0.000000e+00
0.000000e+00
0.000000e+00
0.000000e+00
0.000000e+00
0.000000e+00
0.000000e+00
0.000000e+00
0.000000e+00
0.000000e+00
0.000000e+00
0.000000e+00
0.000000e+00
0.000000e+00
6.250000e+00
6.250000e+00
6.250000e+00
6.250000e+00
6.250000e+00
6.250000e+00
6.250000e+00
6.250000e+00
6.250000e+00
6.250000e+00
6.250000e+00
6.250000e+00
6.250000e+00
6.250000e+00
6.250000e+00
6.250000e+00
6.250000e+00
6.250000e+00
6.250000e+00
6.250000e+00
6.250000e+00
6.250000e+00
6.250000e+00
6.250000e+00
6.250000e+00
6.250000e+00
6.250000e+00
6.250000e+00
6.250000e+00
6.250000e+00
6.250000e+00
6.250000e+00
6.250000e+00
1.250000e+01
1.250000e+01
1.250000e+01
1.250000e+01
1.250000e+01
1.250000e+01
1.250000e+01
1.250000e+01
1.250000e+01
1.250000e+01
1.250000e+01
1.250000e+01
1.250000e+01
1.250000e+01
1.250000e+01
1.250000e+01
1.250000e+01
1.250000e+01
1.250000e+01
1.250000e+01
1.250000e+01
1.250000e+01
1.250000e+01
1.250000e+01
1.250000e+01
1.250000e+01
1.250000e+01
1.250000e+01
1.250000e+01
1.250000e+01
1.250000e+01
1.250000e+01
1.250000e+01
1.875000e+01
1.875000e+01
1.875000e+01
1.875000e+01
1.875000e+01
1.875000e+01
1.875000e+01
1.875000e+01
1.875000e+01
1.875000e+01
1.875000e+01
1.875000e+01
1.875000e+01
1.875000e+01
1.875000e+01
1.875000e+01
1.875000e+01
1.875000e+01
1.875000e+01
1.875000e+01
1.875000e+01
1.875000e+01
1.875000e+01
1.875000e+01
1.875000e+01
1.875000e+01
1.875000e+01
1.875000e+01
1.875000e+01
1.875000e+01
1.875000e+01
1.875000e+01
1.875000e+01
2.500000e+01
2.500000e+01
2.500000e+01
2.500000e+01
2.500000e+01
2.500000e+01
2.500000e+01
2.500000e+01
2.500000e+01
2.500000e+01
2.500000e+01
2.500000e+01
2.500000e+01
2.500000e+01
2.500000e+01
2.500000e+01
2.500000e+01
2.500000e+01
2.500000e+01
2.500000e+01
2.500000e+01
2.500000e+01
2.500000e+01
2.500000e+01
2.500000e+01
2.500000e+01
2.500000e+01
2.500000e+01
2.500000e+01
2.500000e+01
2.500000e+01
2.500000e+01
2.500000e+01
3.125000e+01
3.125000e+01
3.125000e+01
3.125000e+01
3.125000e+01
3.125000e+01
3.125000e+01
3.125000e+01
3.125000e+01
3.125000e+01
3.125000e+01
3.125000e+01
3.125000e+01
3.125000e+01
3.125000e+01
3.125000e+01
3.125000e+01
3.125000e+01
3.125000e+01
3.125000e+01
3.125000e+01
3.125000e+01
3.125000e+01
3.125000e+01
3.125000e+01
3.125000e+01
3.125000e+01
3.125000e+01
3.125000e+01
3.125000e+01
3.125000e+01
3.125000e+01
3.125000e+01
3.750000e+01
3.750000e+01
3.750000e+01
3.750000e+01
3.750000e+01
3.750000e+01
3.750000e+01
3.750000e+01
3.750000e+01
3.750000e+01
3.750000e+01
3.750000e+01
3.750000e+01
3.750000e+01
3.750000e+01
3.750000e+01
3.750000e+01
3.750000e+01
3.750000e+01
3.750000e+01
3.750000e+01
3.750000e+01
3.750000e+01
3.750000e+01
3.750000e+01
3.750000e+01
3.750000e+01
3.750000e+01
3.750000e+01
3.750000e+01
3.750000e+01
3.750000e+01
3.750000e+01
4.375000e+01
4.375000e+01
4.375000e+01
4.375000e+01
4.375000e+01
4.375000e+01
4.375000e+01
4.375000e+01
4.375000e+01
4.375000e+01
4.375000e+01
4.375000e+01
4.375000e+01
4.375000e+01
4.375000e+01
4.375000e+01
4.375000e+01
4.375000e+01
4.375000e+01
4.375000e+01
4.375000e+01
4.375000e+01
4.375000e+01
4.375000e+01
4.375000e+01
4.375000e+01
4.375000e+01
4.375000e+01
4.375000e+01
4.375000e+01
4.375000e+01
4.375000e+01
4.375000e+01
5.000000e+01
5.000000e+01
5.000000e+01
5.000000e+01
5.000000e+01
5.000000e+01
5.000000e+01
5.000000e+01
5.000000e+01
5.000000e+01
5.000000e+01
5.000000e+01
5.000000e+01
5.000000e+01
5.000000e+01
5.000000e+01
5.000000e+01
5.000000e+01
5.000000e+01
5.000000e+01
5.000000e+01
5.000000e+01
5.000000e+01
5.000000e+01
5.000000e+01
5.000000e+01
5.000000e+01
5.000000e+01
5.000000e+01
5.000000e+01
5.000000e+01
5.000000e+01
5.000000e+01
5.625000e+01
5.625000e+01
5.625000e+01
5.625000e+01
5.625000e+01
5.625000e+01
5.625000e+01
5.625000e+01
5.625000e+01
5.625000e+01
5.625000e+01
5.625000e+01
5.625000e+01
5.625000e+01
5.625000e+01
5.625000e+01
5.625000e+01
5.625000e+01
5.625000e+01
5.625000e+01
5.625000e+01
5.625000e+01
5.625000e+01
5.625000e+01
5.625000e+01
5.625000e+01
5.625000e+01
5.625000e+01
5.625000e+01
5.625000e+01
5.625000e+01
5.625000e+01
5.625000e+01
6.250000e+01
6.250000e+01
6.250000e+01
6.250000e+01
6.250000e+01
6.250000e+01
6.250000e+01
6.250000e+01
6.250000e+01
6.250000e+01
6.250000e+01
6.250000e+01
6.250000e+01
6.250000e+01
6.250000e+01
6.250000e+01
6.250000e+01
6.250000e+01
6.250000e+01
6.250000e+01
6.250000e+01
6.250000e+01
6.250000e+01
6.250000e+01
6.250000e+01
6.250000e+01
6.250000e+01
6.250000e+01
6.250000e+01
6.250000e+01
6.250000e+01
6.250000e+01
6.250000e+01
6.875000e+01
6.875000e+01
6.875000e+01
6.875000e+01
6.875000e+01
6.875000e+01
6.875000e+01
6.875000e+01
6.875000e+01
6.875000e+01
6.875000e+01
6.875000e+01
6.875000e+01
6.875000e+01
6.875000e+01
6.875000e+01
6.875000e+01
6.875000e+01
6.875000e+01
6.875000e+01
6.875000e+01
6.875000e+01
6.875000e+01
6.875000e+01
6.875000e+01
6.875000e+01
6.875000e+01
6.875000e+01
6.875000e+01
6.875000e+01
6.875000e+01
6.875000e+01
6.875000e+01
7.500000e+01
7.500000e+01
7.500000e+01
7.500000e+01
7.500000e+01
7.500000e+01
7.500000e+01
7.500000e+01
7.500000e+01
7.500000e+01
7.500000e+01
7.500000e+01
7.500000e+01
7.500000e+01
7.500000e+01
7.500000e+01
7.500000e+01
7.500000e+01
7.500000e+01
7.500000e+01
7.500000e+01
7.500000e+01
7.500000e+01
7.500000e+01
7.500000e+01
7.500000e+01
7.500000e+01
7.500000e+01
7.500000e+01
7.500000e+01
7.500000e+01
7.500000e+01
7.500000e+01
8.125000e+01
8.125000e+01
8.125000e+01
8.125000e+01
8.125000e+01
8.125000e+01
8.125000e+01
8.125000e+01
8.125000e+01
8.125000e+01
8.125000e+01
8.125000e+01
8.125000e+01
8.125000e+01
8.125000e+01
8.125000e+01
8.125000e+01
8.125000e+01
8.125000e+01
8.125000e+01
8.125000e+01
8.125000e+01
8.125000e+01
8.125000e+01
8.125000e+01
8.125000e+01
8.125000e+01
8.125000e+01
8.125000e+01
8.125000e+01
8.125000e+01
8.125000e+01
8.125000e+01
8.750000e+01
8.750000e+01
8.750000e+01
8.750000e+01
8.750000e+01
8.750000e+01
8.750000e+01
8.750000e+01
8.750000e+01
8.750000e+01
8.750000e+01
8.750000e+01
8.750000e+01
8.750000e+01
8.750000e+01
8.750000e+01
8.750000e+01
8.750000e+01
8.750000e+01
8.750000e+01
8.750000e+01
8.750000e+01
8.750000e+01
8.750000e+01
8.750000e+01
8.750000e+01
8.750000e+01
8.750000e+01
8.750000e+01
8.750000e+01
8.750000e+01
8.750000e+01
8.750000e+01
9.375000e+01
9.375000e+01
9.375000e+01
9.375000e+01
9.375000e+01
9.375000e+01
9.375000e+01
9.375000e+01
9.375000e+01
9.375000e+01
9.375000e+01
9.375000e+01
9.375000e+01
9.375000e+01
9.375000e+01
9.375000e+01
9.375000e+01
9.375000e+01
9.375000e+01
9.375000e+01
9.375000e+01
9.375000e+01
9.375000e+01
9.375000e+01
9.375000e+01
9.375000e+01
9.375000e+01
9.375000e+01
9.375000e+01
9.375000e+01
9.375000e+01
9.375000e+01
9.375000e+01
1.000000e+02
1.000000e+02
1.000000e+02
1.000000e+02
1.000000e+02
1.000000e+02
1.000000e+02
1.000000e+02
1.000000e+02
1.000000e+02
1.000000e+02
1.000000e+02
1.000000e+02
1.000000e+02
1.000000e+02
1.000000e+02
1.000000e+02
1.000000e+02
1.000000e+02
1.000000e+02
1.000000e+02
1.000000e+02
1.000000e+02
1.000000e+02
1.000000e+02
1.000000e+02
1.000000e+02
1.000000e+02
1.000000e+02
1.000000e+02
1.000000e+02
1.000000e+02
1.000000e+02
0.000000e+00
-4.587685e-01
-7.692479e-01
-1.103952e+00
-1.408252e+00
-1.704651e+00
-2.013534e+00
-2.305988e+00
-2.607472e+00
-2.904097e+00
-3.202498e+00
-3.502302e+00
-3.800831e+00
-4.101160e+00
-4.401057e+00
-4.701325e+00
-5.002085e+00
-5.302688e+00
-5.603533e+00
-5.904660e+00
-6.205551e+00
-6.506751e+00
-6.807299e+00
-7.106175e+00
-7.408037e+00
-7.709935e+00
-8.019373e+00
-8.343888e+00
-8.668781e+00
-9.036601e+00
-9.510100e+00
-9.925879e+00
-1.013236e+01
0.000000e+00
-2.329212e-01
-4.740558e-01
-7.383327e-01
-1.005021e+00
-1.258801e+00
-1.527789e+00
-1.788057e+00
-2.050497e+00
-2.315125e+00
-2.575290e+00
-2.839753e+00
-3.100869e+00
-3.363332e+00
-3.625752e+00
-3.886943e+00
-4.149385e+00
-4.410618e+00
-4.672085e+00
-4.933712e+00
-5.194302e+00
-5.455734e+00
-5.716449e+00
-5.976853e+00
-6.238903e+00
-6.498245e+00
-6.759672e+00
-7.021955e+00
-7.276934e+00
-7.539385e+00
-7.783325e+00
-7.880316e+00
-7.985908e+00
0.000000e+00
-1.130453e-01
-2.588346e-01
-4.554826e-01
-6.702304e-01
-8.764467e-01
-1.103030e+00
-1.325868e+00
-1.550146e+00
-1.778533e+00
-2.001097e+00
-2.227967e+00
-2.451568e+00
-2.675979e+00
-2.900447e+00
-3.123704e+00
-3.348169e+00
-3.571725e+00
-3.795687e+00
-4.019989e+00
-4.243500e+00
-4.467901e+00
-4.692429e+00
-4.916901e+00
-5.140647e+00
-5.358399e+00
-5.568057e+00
-5.764739e+00
-5.941721e+00
-6.089463e+00
-6.168510e+00
-6.172122e+00
-6.264866e+00
0.000000e+00
-1.026552e-01
-1.912625e-01
-3.383078e-01
-4.638960e-01
-6.218634e-01
-7.968892e-01
-9.687892e-01
-1.154204e+00
-1.335230e+00
-1.519968e+00
-1.704893e+00
-1.890273e+00
-2.076463e+00
-2.263210e+00
-2.450589e+00
-2.639009e+00
-2.828246e+00
-3.018238e+00
-3.209216e+00
-3.400117e+00
-3.591010e+00
-3.781063e+00
-3.967091e+00
-4.146790e+00
-4.314321e+00
-4.464601e+00
-4.594025e+00
-4.693207e+00
-4.752053e+00
-4.763584e+00
-4.778287e+00
-4.859506e+00
0.000000e+00
-9.128424e-02
-1.812849e-01
-2.729860e-01
-3.828849e-01
-5.000064e-01
-6.307233e-01
-7.655447e-01
-9.076757e-01
-1.051400e+00
-1.196394e+00
-1.344005e+00
-1.490377e+00
-1.638843e+00
-1.787018e+00
-1.935665e+00
-2.085208e+00
-2.234357e+00
-2.383873e+00
-2.532677e+00
-2.679886e+00
-2.824751e+00
-2.965061e+00
-3.098750e+00
-3.222745e+00
-3.333592e+00
-3.427262e+00
-3.498853e+00
-3.544033e+00
-3.562659e+00
-3.560650e+00
-3.589861e+00
-3.663887e+00
0.000000e+00
-7.290706e-02
-1.433940e-01
-2.175294e-01
-2.981121e-01
-3.861954e-01
-4.804618e-01
-5.811025e-01
-6.848770e-01
-7.918730e-01
-9.001446e-01
-1.009031e+00
-1.118689e+00
-1.228090e+00
-1.337782e+00
-1.447250e+00
-1.556372e+00
-1.665062e+00
-1.772608e+00
-1.878530e+00
-1.981744e+00
-2.080763e+00
-2.173952e+00
-2.259124e+00
-2.333990e+00
-2.396234e+00
-2.443641e+00
-2.474038e+00
-2.487694e+00
-2.481715e+00
-2.477080e+00
-2.505959e+00
-2.574129e+00
0.000000e+00
-5.028046e-02
-1.001292e-01
-1.512657e-01
-2.058490e-01
-2.643946e-01
-3.271083e-01
-3.932037e-01
-4.620278e-01
-5.325119e-01
-6.039704e-01
-6.758075e-01
-7.476031e-01
-8.192047e-01
-8.903436e-01
-9.608963e-01
-1.030620e+00
-1.099198e+00
-1.166202e+00
-1.230929e+00
-1.292384e+00
-1.349222e+00
-1.399857e+00
-1.442580e+00
-1.475642e+00
-1.497277e+00
-1.506671e+00
-1.503258e+00
-1.482966e+00
-1.454458e+00
-1.444643e+00
-1.472598e+00
-1.540631e+00
0.000000e+00
-2.645827e-02
-5.281699e-02
-7.977816e-02
-1.080565e-01
-1.381133e-01
-1.699290e-01
-2.032866e-01
-2.377128e-01
-2.727539e-01
-3.079415e-01
-3.429300e-01
-3.774756e-01
-4.113766e-01
-4.444738e-01
-4.765619e-01
-5.074172e-01
-5.367691e-01
-5.642663e-01
-5.893967e-01
-6.113616e-01
-6.290294e-01
-6.410537e-01
-6.462348e-01
-6.432635e-01
-6.311803e-01
-6.079993e-01
-5.690229e-01
-5.218010e-01
-4.767624e-01
-4.593710e-01
-4.877748e-01
-5.573483e-01
0.000000e+00
-1.885028e-03
-3.823769e-03
-5.747145e-03
-7.583131e-03
-9.251169e-03
-1.066313e-02
-1.171767e-02
-1.230550e-02
-1.230836e-02
-1.161535e-02
-1.012750e-02
-7.753288e-03
-4.385526e-03
1.212019e-04
5.958919e-03
1.334619e-02
2.249169e-02
3.359221e-02
4.688590e-02
6.280986e-02
8.212777e-02
1.059111e-01
1.353626e-01
1.708269e-01
2.149535e-01
2.722430e-01
3.396880e-01
4.055240e-01
4.509744e-01
4.625049e-01
4.297294e-01
3.570614e-01
0.000000e+00
2.277462e-02
4.534772e-02
6.856238e-02
9.328618e-02
1.201398e-01
1.492854e-01
1.806850e-01
2.140649e-01
2.491529e-01
2.856650e-01
3.234175e-01
3.623488e-01
4.024952e-01
4.440166e-01
4.871131e-01
5.320069e-01
5.788730e-01
6.278275e-01
6.789310e-01
7.321934e-01
7.879358e-01
8.467084e-01
9.093666e-01
9.796351e-01
1.059529e+00
1.144170e+00
1.227915e+00
1.296733e+00
1.336829e+00
1.337269e+00
1.299022e+00
1.238531e+00
0.000000e+00
4.684196e-02
9.315838e-02
1.408333e-01
1.921894e-01
2.479428e-01
3.084569e-01
3.731565e-01
4.414652e-01
5.124354e-01
5.853864e-01
6.597652e-01
7.352542e-01
8.119331e-01
8.899283e-01
9.695667e-01
1.051022e+00
1.134455e+00
1.220146e+00
1.308327e+00
1.399314e+00
1.493095e+00
1.589519e+00
1.690529e+00
1.795324e+00
1.902482e+00
2.005709e+00
2.092733e+00
2.155921e+00
2.186211e+00
2.182910e+00
2.153624e+00
2.109736e+00
0.000000e+00
6.982763e-02
1.371460e-01
2.082072e-01
2.860452e-01
3.719239e-01
4.648641e-01
5.650487e-01
6.696071e-01
7.782314e-01
8.891568e-01
1.001489e+00
1.115262e+00
1.229781e+00
1.345747e+00
1.462976e+00
1.581484e+00
1.701216e+00
1.822401e+00
1.946274e+00
2.074575e+00
2.208745e+00
2.346941e+00
2.483843e+00
2.616029e+00
2.740280e+00
2.850761e+00
2.939577e+00
2.999222e+00
3.030158e+00
3.034422e+00
3.016817e+00
2.988836e+00
0.000000e+00
8.868338e-02
1.758270e-01
2.648515e-01
3.723466e-01
4.880994e-01
6.181377e-01
7.543691e-01
8.983397e-01
1.045704e+00
1.194894e+00
1.347181e+00
1.499643e+00
1.655169e+00
1.812122e+00
1.971491e+00
2.132931e+00
2.295683e+00
2.460167e+00
2.625433e+00
2.792957e+00
2.960752e+00
3.126497e+00
3.287785e+00
3.439304e+00
3.577010e+00
3.695768e+00
3.789778e+00
3.857575e+00
3.897536e+00
3.911238e+00
3.904849e+00
3.890085e+00
0.000000e+00
1.006359e-01
1.871849e-01
3.310784e-01
4.544285e-01
6.106213e-01
7.856929e-01
9.587974e-01
1.147636e+00
1.332253e+00
1.521603e+00
1.710459e+00
1.901046e+00
2.094848e+00
2.291814e+00
2.491943e+00
2.694838e+00
2.900812e+00
3.109448e+00
3.319166e+00
3.526594e+00
3.728101e+00
3.921074e+00
4.105665e+00
4.280123e+00
4.436843e+00
4.570757e+00
4.677122e+00
4.754193e+00
4.802664e+00
4.825321e+00
4.828306e+00
4.823434e+00
0.000000e+00
1.127224e-01
2.573469e-01
4.514610e-01
6.634473e-01
8.670247e-01
1.091799e+00
1.314487e+00
1.539594e+00
1.770433e+00
1.995605e+00
2.224643e+00
2.450821e+00
2.679114e+00
2.909238e+00
3.139708e+00
3.371413e+00
3.603110e+00
3.836182e+00
4.069863e+00
4.301864e+00
4.528902e+00
4.750690e+00
4.968002e+00
5.173025e+00
5.354012e+00
5.502915e+00
5.618264e+00
5.701366e+00
5.754882e+00
5.783044e+00
5.792281e+00
5.793385e+00
0.000000e+00
2.333805e-01
4.748115e-01
7.389921e-01
1.005378e+00
1.258962e+00
1.527392e+00
1.787292e+00
2.049283e+00
2.313302e+00
2.573004e+00
2.836619e+00
3.096821e+00
3.358034e+00
3.618791e+00
3.878171e+00
4.138035e+00
4.396041e+00
4.653215e+00
4.909484e+00
5.163647e+00
5.416779e+00
5.670533e+00
5.922340e+00
6.154961e+00
6.352558e+00
6.510076e+00
6.627846e+00
6.709074e+00
6.759041e+00
6.784660e+00
6.793974e+00
6.796255e+00
0.000000e+00
4.589102e-01
7.709324e-01
1.107914e+00
1.414925e+00
1.713869e+00
2.024821e+00
2.317700e+00
2.619127e+00
2.913787e+00
3.210046e+00
3.507675e+00
3.803255e+00
4.099188e+00
4.392441e+00
4.683998e+00
4.975088e+00
5.264814e+00
5.552357e+00
5.839734e+00
6.125373e+00
6.413332e+00
6.704049e+00
6.988568e+00
7.243362e+00
7.452199e+00
7.611208e+00
7.721522e+00
7.787620e+00
7.817514e+00
7.822926e+00
7.818345e+00
7.815772e+00
0.000000e+00
-2.734952e-01
-5.705907e-01
-9.473968e-01
-1.360738e+00
-1.813654e+00
-2.307737e+00
-2.834177e+00
-3.398509e+00
-3.997080e+00
-4.631576e+00
-5.303456e+00
-6.011491e+00
-6.757879e+00
-7.541604e+00
-8.363575e+00
-9.224031e+00
-1.012268e+01
-1.106032e+01
-1.203663e+01
-1.305219e+01
-1.410750e+01
-1.520228e+01
-1.633698e+01
-1.751150e+01
-1.872726e+01
-1.998949e+01
-2.130419e+01
-2.268166e+01
-2.414095e+01
-2.569817e+01
-2.751128e+01
-3.006194e+01
0.000000e+00
-1.751313e-01
-4.903988e-01
-8.599194e-01
-1.278749e+00
-1.729154e+00
-2.223428e+00
-2.751067e+00
-3.314082e+00
-3.913655e+00
-4.547422e+00
-5.219538e+00
-5.927624e+00
-6.673788e+00
-7.457757e+00
-8.279563e+00
-9.140091e+00
-1.003878e+01
-1.097633e+01
-1.195276e+01
-1.296819e+01
-1.402347e+01
-1.511846e+01
-1.625288e+01
-1.742748e+01
-1.864288e+01
-1.990327e+01
-2.121768e+01
-2.259376e+01
-2.404608e+01
-2.562388e+01
-2.742192e+01
-2.968452e+01
0.000000e+00
-1.510531e-01
-4.324920e-01
-8.020211e-01
-1.212028e+00
-1.660370e+00
-2.153121e+00
-2.679380e+00
-3.242433e+00
-3.841570e+00
-4.475655e+00
-5.147606e+00
-5.856110e+00
-6.602174e+00
-7.386440e+00
-8.208280e+00
-9.068877e+00
-9.967732e+00
-1.090520e+01
-1.188184e+01
-1.289713e+01
-1.395220e+01
-1.504711e+01
-1.618139e+01
-1.735714e+01
-1.857415e+01
-1.983705e+01
-2.115524e+01
-2.253618e+01
-2.400933e+01
-2.562619e+01
-2.731696e+01
-2.907463e+01
0.000000e+00
-1.875916e-01
-4.292882e-01
-7.912161e-01
-1.174361e+00
-1.614840e+00
-2.104071e+00
-2.623143e+00
-3.187162e+00
-3.783855e+00
-4.418079e+00
-5.090109e+00
-5.798248e+00
-6.544762e+00
-7.328940e+00
-8.150824e+00
-9.011581e+00
-9.910370e+00
-1.084794e+01
-1.182479e+01
-1.284023e+01
-1.389547e+01
-1.499089e+01
-1.612646e+01
-1.730477e+01
-1.852634e+01
-1.979511e+01
-2.111964e+01
-2.251040e+01
-2.400013e+01
-2.561054e+01
-2.716473e+01
-2.857221e+01
0.000000e+00
-2.055929e-01
-4.610877e-01
-7.901211e-01
-1.170429e+00
-1.595146e+00
-2.075220e+00
-2.588870e+00
-3.148323e+00
-3.743941e+00
-4.376413e+00
-5.048923e+00
-5.756425e+00
-6.503452e+00
-7.287663e+00
-8.109640e+00
-8.970690e+00
-9.869502e+00
-1.080750e+01
-1.178474e+01
-1.280103e+01
-1.385753e+01
-1.495456e+01
-1.609300e+01
-1.727448e+01
-1.850070e+01
-1.977524e+01
-2.110430e+01
-2.249705e+01
-2.397735e+01
-2.551797e+01
-2.696176e+01
-2.822241e+01
0.000000e+00
-2.132441e-01
-4.763236e-01
-7.953567e-01
-1.166708e+00
-1.587166e+00
-2.055623e+00
-2.567447e+00
-3.121295e+00
-3.715326e+00
-4.347674e+00
-5.018767e+00
-5.727550e+00
-6.474285e+00
-7.259102e+00
-8.081826e+00
-8.943073e+00
-9.842875e+00
-1.078170e+01
-1.176009e+01
-1.277835e+01
-1.383716e+01
-1.493714e+01
-1.607898e+01
-1.726371e+01
-1.849274e+01
-1.976935e+01
-2.109765e+01
-2.247764e+01
-2.392046e+01
-2.536653e+01
-2.673078e+01
-2.792124e+01
0.000000e+00
-2.170594e-01
-4.823413e-01
-7.984982e-01
-1.165373e+00
-1.581452e+00
-2.044879e+00
-2.553289e+00
-3.104639e+00
-3.697060e+00
-4.329223e+00
-5.000225e+00
-5.709553e+00
-6.456981e+00
-7.242466e+00
-8.066145e+00
-8.928243e+00
-9.829115e+00
-1.076926e+01
-1.174928e+01
-1.276983e+01
-1.383147e+01
-1.493464e+01
-1.607968e+01
-1.726691e+01
-1.849654e+01
-1.976997e+01
-2.109141e+01
-2.244349e+01
-2.383522e+01
-2.520874e+01
-2.650240e+01
-2.763218e+01
0.000000e+00
-2.184964e-01
-4.846265e-01
-7.999424e-01
-1.164835e+00
-1.578569e+00
-2.039683e+00
-2.546317e+00
-3.096536e+00
-3.688561e+00
-4.320904e+00
-4.992494e+00
-5.702640e+00
-6.451008e+00
-7.237521e+00
-8.062276e+00
-8.925499e+00
-9.827548e+00
-1.076899e+01
-1.175061e+01
-1.277326e+01
-1.383754e+01
-1.494350e+01
-1.609091e+01
-1.727922e+01
-1.850729e+01
-1.977247e+01
-2.107636e+01
-2.239550e+01
-2.373453e+01
-2.505060e+01
-2.628055e+01
-2.735205e+01
0.000000e+00
-2.187756e-01
-4.851469e-01
-8.003751e-01
-1.164918e+00
-1.578256e+00
-2.039113e+00
-2.545772e+00
-3.096375e+00
-3.689127e+00
-4.322468e+00
-4.995195e+00
-5.706537e+00
-6.456115e+00
-7.243848e+00
-8.069841e+00
-8.934274e+00
-9.837446e+00
-1.077992e+01
-1.176264e+01
-1.278671e+01
-1.385291e+01
-1.496096e+01
-1.610928e+01
-1.729675e+01
-1.851911e+01
-1.977016e+01
-2.104917e+01
-2.234055e+01
-2.362846e+01
-2.488626e+01
-2.604654e+01
-2.704636e+01
0.000000e+00
-2.182456e-01
-4.844201e-01
-8.000824e-01
-1.165645e+00
-1.580404e+00
-2.042934e+00
-2.551404e+00
-3.103880e+00
-3.698518e+00
-4.333669e+00
-5.008079e+00
-5.720953e+00
-6.471945e+00
-7.261035e+00
-8.088362e+00
-8.954040e+00
-9.858204e+00
-1.080132e+01
-1.178435e+01
-1.280877e+01
-1.387575e+01
-1.498460e+01
-1.613240e+01
-1.731350e+01
-1.852540e+01
-1.976082e+01
-2.101676e+01
-2.227928e+01
-2.352651e+01
-2.472634e+01
-2.582794e+01
-2.678813e+01
0.000000e+00
-2.165622e-01
-4.819350e-01
-7.987866e-01
-1.167010e+00
-1.585149e+00
-2.051415e+00
-2.563491e+00
-3.119311e+00
-3.716878e+00
-4.354533e+00
-5.031008e+00
-5.745601e+00
-6.498091e+00
-7.288575e+00
-8.117273e+00
-8.984150e+00
-9.889135e+00
-1.083253e+01
-1.181514e+01
-1.283862e+01
-1.390497e+01
-1.501182e+01
-1.615429e+01
-1.732589e+01
-1.852579e+01
-1.974881e+01
-2.098377e+01
-2.221903e+01
-2.342856e+01
-2.458401e+01
-2.565121e+01
-2.659711e+01
0.000000e+00
-2.124823e-01
-4.757013e-01
-7.957834e-01
-1.169159e+00
-1.592788e+00
-2.065509e+00
-2.582917e+00
-3.143392e+00
-3.744954e+00
-4.385359e+00
-5.064210e+00
-5.780442e+00
-6.534335e+00
-7.326197e+00
-8.156072e+00
-9.023861e+00
-9.929141e+00
-1.087227e+01
-1.185366e+01
-1.287548e+01
-1.393815e+01
-1.503872e+01
-1.617283e+01
-1.733609e+01
-1.852655e+01
-1.973824e+01
-2.095736e+01
-2.216665e+01
-2.334648e+01
-2.447257e+01
-2.552195e+01
-2.646995e+01
0.000000e+00
-2.044626e-01
-4.601479e-01
-7.905842e-01
-1.173520e+00
-1.602778e+00
-2.088431e+00
-2.610023e+00
-3.177915e+00
-3.783475e+00
-4.426345e+00
-5.108387e+00
-5.825398e+00
-6.581318e+00
-7.374322e+00
-8.205203e+00
-9.073391e+00
-9.977802e+00
-1.091959e+01
-1.189857e+01
-1.291710e+01
-1.397349e+01
-1.506547e+01
-1.619192e+01
-1.734971e+01
-1.853463e+01
-1.973792e+01
-2.094221e+01
-2.213086e+01
-2.328693e+01
-2.439373e+01
-2.543540e+01
-2.639697e+01
0.000000e+00
-1.859128e-01
-4.278824e-01
-7.911197e-01
-1.177763e+00
-1.623692e+00
-2.120795e+00
-2.649183e+00
-3.224221e+00
-3.832246e+00
-4.478527e+00
-5.161590e+00
-5.880778e+00
-6.638133e+00
-7.432714e+00
-8.264304e+00
-9.132161e+00
-1.003561e+01
-1.097510e+01
-1.195107e+01
-1.296413e+01
-1.401292e+01
-1.509691e+01
-1.621824e+01
-1.737506e+01
-1.855723e+01
-1.975217e+01
-2.094203e+01
-2.211279e+01
-2.325072e+01
-2.434391e+01
-2.538364e+01
-2.636512e+01
0.000000e+00
-1.492628e-01
-4.303926e-01
-8.010132e-01
-1.214654e+00
-1.669231e+00
-2.170910e+00
-2.707849e+00
-3.282932e+00
-3.894336e+00
-4.540538e+00
-5.224263e+00
-5.944680e+00
-6.702807e+00
-7.498449e+00
-8.329966e+00
-9.197563e+00
-1.010047e+01
-1.103858e+01
-1.201195e+01
-1.301998e+01
-1.406237e+01
-1.514152e+01
-1.626178e+01
-1.741790e+01
-1.859538e+01
-1.977909e+01
-2.095533e+01
-2.211118e+01
-2.323499e+01
-2.431809e+01
-2.535763e+01
-2.635947e+01
0.000000e+00
-1.734567e-01
-4.880189e-01
-8.584997e-01
-1.280915e+00
-1.737851e+00
-2.241314e+00
-2.780186e+00
-3.355488e+00
-3.967691e+00
-4.613490e+00
-5.297591e+00
-6.017926e+00
-6.776496e+00
-7.572060e+00
-8.403269e+00
-9.270387e+00
-1.017264e+01
-1.110997e+01
-1.208171e+01
-1.308711e+01
-1.412712e+01
-1.520566e+01
-1.632496e+01
-1.747592e+01
-1.864361e+01
-1.981509e+01
-2.097845e+01
-2.212180e+01
-2.323451e+01
-2.430972e+01
-2.534824e+01
-2.636409e+01
0.000000e+00
-2.720603e-01
-5.685499e-01
-9.463210e-01
-1.363304e+00
-1.822699e+00
-2.325828e+00
-2.863370e+00
-3.439859e+00
-4.050854e+00
-4.697425e+00
-5.381252e+00
-6.101417e+00
-6.859889e+00
-7.654793e+00
-8.485763e+00
-9.352424e+00
-1.025410e+01
-1.119080e+01
-1.216184e+01
-1.316657e+01
-1.420703e+01