TITLE = "Solution"
VARIABLES = x, y, u, v, psiu, psiv, t, stress
ZONE T="structure" N=561 E=512 F=FEBLOCK ET=QUADRILATERAL VARLOCATION=([7,8]=cellcentered)
0.000000e+00
6.250000e+00
1.250000e+01
1.875000e+01
2.500000e+01
3.125000e+01
3.750000e+01
4.375000e+01
5.000000e+01
5.625000e+01
6.250000e+01
6.875000e+01
7.500000e+01
8.125000e+01
8.750000e+01
9.375000e+01
1.000000e+02
1.062500e+02
1.125000e+02
1.187500e+02
1.250000e+02
1.312500e+02
1.375000e+02
1.437500e+02
1.500000e+02
1.562500e+02
1.625000e+02
1.687500e+02
1.750000e+02
1.812500e+02
1.875000e+02
1.937500e+02
2.000000e+02
0.000000e+00
6.250000e+00
1.250000e+01
1.875000e+01
2.500000e+01
3.125000e+01
3.750000e+01
4.375000e+01
5.000000e+01
5.625000e+01
6.250000e+01
6.875000e+01
7.500000e+01
8.125000e+01
8.750000e+01
9.375000e+01
1.000000e+02
1.062500e+02
1.125000e+02
1.187500e+02
1.250000e+02
1.312500e+02
1.375000e+02
1.437500e+02
1.500000e+02
1.562500e+02
1.625000e+02
1.687500e+02
1.750000e+02
1.812500e+02
1.875000e+02
1.937500e+02
2.000000e+02
0.000000e+00
6.250000e+00
1.250000e+01
1.875000e+01
2.500000e+01
3.125000e+01
3.750000e+01
4.375000e+01
5.000000e+01
5.625000e+01
6.250000e+01
6.875000e+01
7.500000e+01
8.125000e+01
8.750000e+01
9.375000e+01
1.000000e+02
1.062500e+02
1.125000e+02
1.187500e+02
1.250000e+02
1.312500e+02
1.375000e+02
1.437500e+02
1.500000e+02
1.562500e+02
1.625000e+02
1.687500e+02
1.750000e+02
1.812500e+02
1.875000e+02
1.937500e+02
2.000000e+02
0.000000e+00
6.250000e+00
1.250000e+01
1.875000e+01
2.500000e+01
3.125000e+01
3.750000e+01
4.375000e+01
5.000000e+01
5.625000e+01
6.250000e+01
6.875000e+01
7.500000e+01
8.125000e+01
8.750000e+01
9.375000e+01
1.000000e+02
1.062500e+02
1.125000e+02
1.187500e+02
1.250000e+02
1.312500e+02
1.375000e+02
1.437500e+02
1.500000e+02
1.562500e+02
1.625000e+02
1.687500e+02
1.750000e+02
1.812500e+02
1.875000e+02
1.937500e+02
2.000000e+02
0.000000e+00
6.250000e+00
1.250000e+01
1.875000e+01
2.500000e+01
3.125000e+01
3.750000e+01
4.375000e+01
5.000000e+01
5.625000e+01
6.250000e+01
6.875000e+01
7.500000e+01
8.125000e+01
8.750000e+01
9.375000e+01
1.000000e+02
1.062500e+02
1.125000e+02
1.187500e+02
1.250000e+02
1.312500e+02
1.375000e+02
1.437500e+02
1.500000e+02
1.562500e+02
1.625000e+02
1.687500e+02
1.750000e+02
1.812500e+02
1.875000e+02
1.937500e+02
2.000000e+02
0.000000e+00
6.250000e+00
1.250000e+01
1.875000e+01
2.500000e+01
3.125000e+01
3.750000e+01
4.375000e+01
5.000000e+01
5.625000e+01
6.250000e+01
6.875000e+01
7.500000e+01
8.125000e+01
8.750000e+01
9.375000e+01
1.000000e+02
1.062500e+02
1.125000e+02
1.187500e+02
1.250000e+02
1.312500e+02
1.375000e+02
1.437500e+02
1.500000e+02
1.562500e+02
1.625000e+02
1.687500e+02
1.750000e+02
1.812500e+02
1.875000e+02
1.937500e+02
2.000000e+02
0.000000e+00
6.250000e+00
1.250000e+01
1.875000e+01
2.500000e+01
3.125000e+01
3.750000e+01
4.375000e+01
5.000000e+01
5.625000e+01
6.250000e+01
6.875000e+01
7.500000e+01
8.125000e+01
8.750000e+01
9.375000e+01
1.000000e+02
1.062500e+02
1.125000e+02
1.187500e+02
1.250000e+02
1.312500e+02
1.375000e+02
1.437500e+02
1.500000e+02
1.562500e+02
1.625000e+02
1.687500e+02
1.750000e+02
1.812500e+02
1.875000e+02
1.937500e+02
2.000000e+02
0.000000e+00
6.250000e+00
1.250000e+01
1.875000e+01
2.500000e+01
3.125000e+01
3.750000e+01
4.375000e+01
5.000000e+01
5.625000e+01
6.250000e+01
6.875000e+01
7.500000e+01
8.125000e+01
8.750000e+01
9.375000e+01
1.000000e+02
1.062500e+02
1.125000e+02
1.187500e+02
1.250000e+02
1.312500e+02
1.375000e+02
1.437500e+02
1.500000e+02
1.562500e+02
1.625000e+02
1.687500e+02
1.750000e+02
1.812500e+02
1.875000e+02
1.937500e+02
2.000000e+02
0.000000e+00
6.250000e+00
1.250000e+01
1.875000e+01
2.500000e+01
3.125000e+01
3.750000e+01
4.375000e+01
5.000000e+01
5.625000e+01
6.250000e+01
6.875000e+01
7.500000e+01
8.125000e+01
8.750000e+01
9.375000e+01
1.000000e+02
1.062500e+02
1.125000e+02
1.187500e+02
1.250000e+02
1.312500e+02
1.375000e+02
1.437500e+02
1.500000e+02
1.562500e+02
1.625000e+02
1.687500e+02
1.750000e+02
1.812500e+02
1.875000e+02
1.937500e+02
2.000000e+02
0.000000e+00
6.250000e+00
1.250000e+01
1.875000e+01
2.500000e+01
3.125000e+01
3.750000e+01
4.375000e+01
5.000000e+01
5.625000e+01
6.250000e+01
6.875000e+01
7.500000e+01
8.125000e+01
8.750000e+01
9.375000e+01
1.000000e+02
1.062500e+02
1.125000e+02
1.187500e+02
1.250000e+02
1.312500e+02
1.375000e+02
1.437500e+02
1.500000e+02
1.562500e+02
1.625000e+02
1.687500e+02
1.750000e+02
1.812500e+02
1.875000e+02
1.937500e+02
2.000000e+02
0.000000e+00
6.250000e+00
1.250000e+01
1.875000e+01
2.500000e+01
3.125000e+01
3.750000e+01
4.375000e+01
5.000000e+01
5.625000e+01
6.250000e+01
6.875000e+01
7.500000e+01
8.125000e+01
8.750000e+01
9.375000e+01
1.000000e+02
1.062500e+02
1.125000e+02
1.187500e+02
1.250000e+02
1.312500e+02
1.375000e+02
1.437500e+02
1.500000e+02
1.562500e+02
1.625000e+02
1.687500e+02
1.750000e+02
1.812500e+02
1.875000e+02
1.937500e+02
2.000000e+02
0.000000e+00
6.250000e+00
1.250000e+01
1.875000e+01
2.500000e+01
3.125000e+01
3.750000e+01
4.375000e+01
5.000000e+01
5.625000e+01
6.250000e+01
6.875000e+01
7.500000e+01
8.125000e+01
8.750000e+01
9.375000e+01
1.000000e+02
1.062500e+02
1.125000e+02
1.187500e+02
1.250000e+02
1.312500e+02
1.375000e+02
1.437500e+02
1.500000e+02
1.562500e+02
1.625000e+02
1.687500e+02
1.750000e+02
1.812500e+02
1.875000e+02
1.937500e+02
2.000000e+02
0.000000e+00
6.250000e+00
1.250000e+01
1.875000e+01
2.500000e+01
3.125000e+01
3.750000e+01
4.375000e+01
5.000000e+01
5.625000e+01
6.250000e+01
6.875000e+01
7.500000e+01
8.125000e+01
8.750000e+01
9.375000e+01
1.000000e+02
1.062500e+02
1.125000e+02
1.187500e+02
1.250000e+02
1.312500e+02
1.375000e+02
1.437500e+02
1.500000e+02
1.562500e+02
1.625000e+02
1.687500e+02
1.750000e+02
1.812500e+02
1.875000e+02
1.937500e+02
2.000000e+02
0.000000e+00
6.250000e+00
1.250000e+01
1.875000e+01
2.500000e+01
3.125000e+01
3.750000e+01
4.375000e+01
5.000000e+01
5.625000e+01
6.250000e+01
6.875000e+01
7.500000e+01
8.125000e+01
8.750000e+01
9.375000e+01
1.000000e+02
1.062500e+02
1.125000e+02
1.187500e+02
1.250000e+02
1.312500e+02
1.375000e+02
1.437500e+02
1.500000e+02
1.562500e+02
1.625000e+02
1.687500e+02
1.750000e+02
1.812500e+02
1.875000e+02
1.937500e+02
2.000000e+02
0.000000e+00
6.250000e+00
1.250000e+01
1.875000e+01
2.500000e+01
3.125000e+01
3.750000e+01
4.375000e+01
5.000000e+01
5.625000e+01
6.250000e+01
6.875000e+01
7.500000e+01
8.125000e+01
8.750000e+01
9.375000e+01
1.000000e+02
1.062500e+02
1.125000e+02
1.187500e+02
1.250000e+02
1.312500e+02
1.375000e+02
1.437500e+02
1.500000e+02
1.562500e+02
1.625000e+02
1.687500e+02
1.750000e+02
1.812500e+02
1.875000e+02
1.937500e+02
2.000000e+02
0.000000e+00
6.250000e+00
1.250000e+01
1.875000e+01
2.500000e+01
3.125000e+01
3.750000e+01
4.375000e+01
5.000000e+01
5.625000e+01
6.250000e+01
6.875000e+01
7.500000e+01
8.125000e+01
8.750000e+01
9.375000e+01
1.000000e+02
1.062500e+02
1.125000e+02
1.187500e+02
1.250000e+02
1.312500e+02
1.375000e+02
1.437500e+02
1.500000e+02
1.562500e+02
1.625000e+02
1.687500e+02
1.750000e+02
1.812500e+02
1.875000e+02
1.937500e+02
2.000000e+02
0.000000e+00
6.250000e+00
1.250000e+01
1.875000e+01
2.500000e+01
3.125000e+01
3.750000e+01
4.375000e+01
5.000000e+01
5.625000e+01
6.250000e+01
6.875000e+01
7.500000e+01
8.125000e+01
8.750000e+01
9.375000e+01
1.000000e+02
1.062500e+02
1.125000e+02
1.187500e+02
1.250000e+02
1.312500e+02
1.375000e+02
1.437500e+02
1.500000e+02
1.562500e+02
1.625000e+02
1.687500e+02
1.750000e+02
1.812500e+02
1.875000e+02
1.937500e+02
2.000000e+02
0.000000e+00
0.000000e+00
0.000000e+00
0.000000e+00
0.000000e+00
0.000000e+00
0.000000e+00
0.000000e+00
0.000000e+00
0.000000e+00
0.000000e+00
0.000000e+00
0.000000e+00
0.000000e+00
0.000000e+00
0.000000e+00
0.000000e+00
0.000000e+00
0.000000e+00
0.000000e+00
0.000000e+00
0.000000e+00
0.000000e+00
0.000000e+00
0.000000e+00
0.000000e+00
0.000000e+00
0.000000e+00
0.000000e+00
0.000000e+00
0.000000e+00
0.000000e+00
0.000000e+00
6.250000e+00
6.250000e+00
6.250000e+00
6.250000e+00
6.250000e+00
6.250000e+00
6.250000e+00
6.250000e+00
6.250000e+00
6.250000e+00
6.250000e+00
6.250000e+00
6.250000e+00
6.250000e+00
6.250000e+00
6.250000e+00
6.250000e+00
6.250000e+00
6.250000e+00
6.250000e+00
6.250000e+00
6.250000e+00
6.250000e+00
6.250000e+00
6.250000e+00
6.250000e+00
6.250000e+00
6.250000e+00
6.250000e+00
6.250000e+00
6.250000e+00
6.250000e+00
6.250000e+00
1.250000e+01
1.250000e+01
1.250000e+01
1.250000e+01
1.250000e+01
1.250000e+01
1.250000e+01
1.250000e+01
1.250000e+01
1.250000e+01
1.250000e+01
1.250000e+01
1.250000e+01
1.250000e+01
1.250000e+01
1.250000e+01
1.250000e+01
1.250000e+01
1.250000e+01
1.250000e+01
1.250000e+01
1.250000e+01
1.250000e+01
1.250000e+01
1.250000e+01
1.250000e+01
1.250000e+01
1.250000e+01
1.250000e+01
1.250000e+01
1.250000e+01
1.250000e+01
1.250000e+01
1.875000e+01
1.875000e+01
1.875000e+01
1.875000e+01
1.875000e+01
1.875000e+01
1.875000e+01
1.875000e+01
1.875000e+01
1.875000e+01
1.875000e+01
1.875000e+01
1.875000e+01
1.875000e+01
1.875000e+01
1.875000e+01
1.875000e+01
1.875000e+01
1.875000e+01
1.875000e+01
1.875000e+01
1.875000e+01
1.875000e+01
1.875000e+01
1.875000e+01
1.875000e+01
1.875000e+01
1.875000e+01
1.875000e+01
1.875000e+01
1.875000e+01
1.875000e+01
1.875000e+01
2.500000e+01
2.500000e+01
2.500000e+01
2.500000e+01
2.500000e+01
2.500000e+01
2.500000e+01
2.500000e+01
2.500000e+01
2.500000e+01
2.500000e+01
2.500000e+01
2.500000e+01
2.500000e+01
2.500000e+01
2.500000e+01
2.500000e+01
2.500000e+01
2.500000e+01
2.500000e+01
2.500000e+01
2.500000e+01
2.500000e+01
2.500000e+01
2.500000e+01
2.500000e+01
2.500000e+01
2.500000e+01
2.500000e+01
2.500000e+01
2.500000e+01
2.500000e+01
2.500000e+01
3.125000e+01
3.125000e+01
3.125000e+01
3.125000e+01
3.125000e+01
3.125000e+01
3.125000e+01
3.125000e+01
3.125000e+01
3.125000e+01
3.125000e+01
3.125000e+01
3.125000e+01
3.125000e+01
3.125000e+01
3.125000e+01
3.125000e+01
3.125000e+01
3.125000e+01
3.125000e+01
3.125000e+01
3.125000e+01
3.125000e+01
3.125000e+01
3.125000e+01
3.125000e+01
3.125000e+01
3.125000e+01
3.125000e+01
3.125000e+01
3.125000e+01
3.125000e+01
3.125000e+01
3.750000e+01
3.750000e+01
3.750000e+01
3.750000e+01
3.750000e+01
3.750000e+01
3.750000e+01
3.750000e+01
3.750000e+01
3.750000e+01
3.750000e+01
3.750000e+01
3.750000e+01
3.750000e+01
3.750000e+01
3.750000e+01
3.750000e+01
3.750000e+01
3.750000e+01
3.750000e+01
3.750000e+01
3.750000e+01
3.750000e+01
3.750000e+01
3.750000e+01
3.750000e+01
3.750000e+01
3.750000e+01
3.750000e+01
3.750000e+01
3.750000e+01
3.750000e+01
3.750000e+01
4.375000e+01
4.375000e+01
4.375000e+01
4.375000e+01
4.375000e+01
4.375000e+01
4.375000e+01
4.375000e+01
4.375000e+01
4.375000e+01
4.375000e+01
4.375000e+01
4.375000e+01
4.375000e+01
4.375000e+01
4.375000e+01
4.375000e+01
4.375000e+01
4.375000e+01
4.375000e+01
4.375000e+01
4.375000e+01
4.375000e+01
4.375000e+01
4.375000e+01
4.375000e+01
4.375000e+01
4.375000e+01
4.375000e+01
4.375000e+01
4.375000e+01
4.375000e+01
4.375000e+01
5.000000e+01
5.000000e+01
5.000000e+01
5.000000e+01
5.000000e+01
5.000000e+01
5.000000e+01
5.000000e+01
5.000000e+01
5.000000e+01
5.000000e+01
5.000000e+01
5.000000e+01
5.000000e+01
5.000000e+01
5.000000e+01
5.000000e+01
5.000000e+01
5.000000e+01
5.000000e+01
5.000000e+01
5.000000e+01
5.000000e+01
5.000000e+01
5.000000e+01
5.000000e+01
5.000000e+01
5.000000e+01
5.000000e+01
5.000000e+01
5.000000e+01
5.000000e+01
5.000000e+01
5.625000e+01
5.625000e+01
5.625000e+01
5.625000e+01
5.625000e+01
5.625000e+01
5.625000e+01
5.625000e+01
5.625000e+01
5.625000e+01
5.625000e+01
5.625000e+01
5.625000e+01
5.625000e+01
5.625000e+01
5.625000e+01
5.625000e+01
5.625000e+01
5.625000e+01
5.625000e+01
5.625000e+01
5.625000e+01
5.625000e+01
5.625000e+01
5.625000e+01
5.625000e+01
5.625000e+01
5.625000e+01
5.625000e+01
5.625000e+01
5.625000e+01
5.625000e+01
5.625000e+01
6.250000e+01
6.250000e+01
6.250000e+01
6.250000e+01
6.250000e+01
6.250000e+01
6.250000e+01
6.250000e+01
6.250000e+01
6.250000e+01
6.250000e+01
6.250000e+01
6.250000e+01
6.250000e+01
6.250000e+01
6.250000e+01
6.250000e+01
6.250000e+01
6.250000e+01
6.250000e+01
6.250000e+01
6.250000e+01
6.250000e+01
6.250000e+01
6.250000e+01
6.250000e+01
6.250000e+01
6.250000e+01
6.250000e+01
6.250000e+01
6.250000e+01
6.250000e+01
6.250000e+01
6.875000e+01
6.875000e+01
6.875000e+01
6.875000e+01
6.875000e+01
6.875000e+01
6.875000e+01
6.875000e+01
6.875000e+01
6.875000e+01
6.875000e+01
6.875000e+01
6.875000e+01
6.875000e+01
6.875000e+01
6.875000e+01
6.875000e+01
6.875000e+01
6.875000e+01
6.875000e+01
6.875000e+01
6.875000e+01
6.875000e+01
6.875000e+01
6.875000e+01
6.875000e+01
6.875000e+01
6.875000e+01
6.875000e+01
6.875000e+01
6.875000e+01
6.875000e+01
6.875000e+01
7.500000e+01
7.500000e+01
7.500000e+01
7.500000e+01
7.500000e+01
7.500000e+01
7.500000e+01
7.500000e+01
7.500000e+01
7.500000e+01
7.500000e+01
7.500000e+01
7.500000e+01
7.500000e+01
7.500000e+01
7.500000e+01
7.500000e+01
7.500000e+01
7.500000e+01
7.500000e+01
7.500000e+01
7.500000e+01
7.500000e+01
7.500000e+01
7.500000e+01
7.500000e+01
7.500000e+01
7.500000e+01
7.500000e+01
7.500000e+01
7.500000e+01
7.500000e+01
7.500000e+01
8.125000e+01
8.125000e+01
8.125000e+01
8.125000e+01
8.125000e+01
8.125000e+01
8.125000e+01
8.125000e+01
8.125000e+01
8.125000e+01
8.125000e+01
8.125000e+01
8.125000e+01
8.125000e+01
8.125000e+01
8.125000e+01
8.125000e+01
8.125000e+01
8.125000e+01
8.125000e+01
8.125000e+01
8.125000e+01
8.125000e+01
8.125000e+01
8.125000e+01
8.125000e+01
8.125000e+01
8.125000e+01
8.125000e+01
8.125000e+01
8.125000e+01
8.125000e+01
8.125000e+01
8.750000e+01
8.750000e+01
8.750000e+01
8.750000e+01
8.750000e+01
8.750000e+01
8.750000e+01
8.750000e+01
8.750000e+01
8.750000e+01
8.750000e+01
8.750000e+01
8.750000e+01
8.750000e+01
8.750000e+01
8.750000e+01
8.750000e+01
8.750000e+01
8.750000e+01
8.750000e+01
8.750000e+01
8.750000e+01
8.750000e+01
8.750000e+01
8.750000e+01
8.750000e+01
8.750000e+01
8.750000e+01
8.750000e+01
8.750000e+01
8.750000e+01
8.750000e+01
8.750000e+01
9.375000e+01
9.375000e+01
9.375000e+01
9.375000e+01
9.375000e+01
9.375000e+01
9.375000e+01
9.375000e+01
9.375000e+01
9.375000e+01
9.375000e+01
9.375000e+01
9.375000e+01
9.375000e+01
9.375000e+01
9.375000e+01
9.375000e+01
9.375000e+01
9.375000e+01
9.375000e+01
9.375000e+01
9.375000e+01
9.375000e+01
9.375000e+01
9.375000e+01
9.375000e+01
9.375000e+01
9.375000e+01
9.375000e+01
9.375000e+01
9.375000e+01
9.375000e+01
9.375000e+01
1.000000e+02
1.000000e+02
1.000000e+02
1.000000e+02
1.000000e+02
1.000000e+02
1.000000e+02
1.000000e+02
1.000000e+02
1.000000e+02
1.000000e+02
1.000000e+02
1.000000e+02
1.000000e+02
1.000000e+02
1.000000e+02
1.000000e+02
1.000000e+02
1.000000e+02
1.000000e+02
1.000000e+02
1.000000e+02
1.000000e+02
1.000000e+02
1.000000e+02
1.000000e+02
1.000000e+02
1.000000e+02
1.000000e+02
1.000000e+02
1.000000e+02
1.000000e+02
1.000000e+02
0.000000e+00
-3.728182e-01
-6.709494e-01
-9.611021e-01
-1.257583e+00
-1.547756e+00
-1.836234e+00
-2.125428e+00
-2.413525e+00
-2.699972e+00
-2.985065e+00
-3.268611e+00
-3.550141e+00
-3.829214e+00
-4.105307e+00
-4.377691e+00
-4.645400e+00
-4.907255e+00
-5.161965e+00
-5.408321e+00
-5.645433e+00
-5.872935e+00
-6.091148e+00
-6.301173e+00
-6.504983e+00
-6.705522e+00
-6.906860e+00
-7.114531e+00
-7.336363e+00
-7.583257e+00
-7.862275e+00
-8.160666e+00
-8.334513e+00
0.000000e+00
-2.372828e-01
-4.920628e-01
-7.463806e-01
-1.006896e+00
-1.261975e+00
-1.514960e+00
-1.768381e+00
-2.020750e+00
-2.271505e+00
-2.520946e+00
-2.768967e+00
-3.015182e+00
-3.259221e+00
-3.500654e+00
-3.738870e+00
-3.973042e+00
-4.202138e+00
-4.424987e+00
-4.640432e+00
-4.847511e+00
-5.045615e+00
-5.234587e+00
-5.414745e+00
-5.586846e+00
-5.752004e+00
-5.911521e+00
-6.066542e+00
-6.216954e+00
-6.356971e+00
-6.465584e+00
-6.523006e+00
-6.598379e+00
0.000000e+00
-1.780605e-01
-3.693605e-01
-5.785484e-01
-7.967872e-01
-1.013535e+00
-1.230165e+00
-1.447454e+00
-1.664096e+00
-1.879609e+00
-2.094035e+00
-2.307165e+00
-2.518638e+00
-2.728083e+00
-2.935062e+00
-3.138986e+00
-3.339091e+00
-3.534439e+00
-3.723961e+00
-3.906555e+00
-4.081195e+00
-4.247026e+00
-4.403402e+00
-4.549844e+00
-4.685929e+00
-4.811086e+00
-4.924237e+00
-5.023132e+00
-5.102955e+00
-5.153949e+00
-5.165510e+00
-5.158289e+00
-5.237597e+00
0.000000e+00
-1.388997e-01
-2.878682e-01
-4.518035e-01
-6.259123e-01
-8.028763e-01
-9.820632e-01
-1.162487e+00
-1.342934e+00
-1.522887e+00
-1.702060e+00
-1.880088e+00
-2.056580e+00
-2.231129e+00
-2.403260e+00
-2.572382e+00
-2.737774e+00
-2.898583e+00
-3.053839e+00
-3.202501e+00
-3.343512e+00
-3.475831e+00
-3.598435e+00
-3.710253e+00
-3.810051e+00
-3.896233e+00
-3.966579e+00
-4.017932e+00
-4.046126e+00
-4.047796e+00
-4.031237e+00
-4.032720e+00
-4.106967e+00
0.000000e+00
-1.111305e-01
-2.275922e-01
-3.532118e-01
-4.860881e-01
-6.241248e-01
-7.653535e-01
-9.082866e-01
-1.051916e+00
-1.195580e+00
-1.338756e+00
-1.480987e+00
-1.621852e+00
-1.760911e+00
-1.897674e+00
-2.031567e+00
-2.161924e+00
-2.287970e+00
-2.408828e+00
-2.523524e+00
-2.631004e+00
-2.730142e+00
-2.819724e+00
-2.898412e+00
-2.964673e+00
-3.016725e+00
-3.052545e+00
-3.070168e+00
-3.068875e+00
-3.052925e+00
-3.040049e+00
-3.062683e+00
-3.134039e+00
0.000000e+00
-8.356296e-02
-1.705344e-01
-2.623113e-01
-3.593718e-01
-4.606798e-01
-5.649973e-01
-6.711346e-01
-7.782067e-01
-8.855452e-01
-9.926060e-01
-1.098928e+00
-1.204089e+00
-1.307661e+00
-1.409177e+00
-1.508112e+00
-1.603863e+00
-1.695739e+00
-1.782951e+00
-1.864611e+00
-1.939725e+00
-2.007202e+00
-2.065850e+00
-2.114387e+00
-2.151465e+00
-2.175780e+00
-2.186355e+00
-2.183261e+00
-2.169200e+00
-2.152547e+00
-2.150712e+00
-2.182276e+00
-2.250268e+00
0.000000e+00
-5.574070e-02
-1.135132e-01
-1.741298e-01
-2.378894e-01
-3.044983e-01
-3.732717e-01
-4.434778e-01
-5.144750e-01
-5.857362e-01
-6.568210e-01
-7.273458e-01
-7.969512e-01
-8.652704e-01
-9.319045e-01
-9.964037e-01
-1.058252e+00
-1.116855e+00
-1.171531e+00
-1.221505e+00
-1.265912e+00
-1.303809e+00
-1.334205e+00
-1.356119e+00
-1.368699e+00
-1.371441e+00
-1.364623e+00
-1.350069e+00
-1.332370e+00
-1.320338e+00
-1.326443e+00
-1.360663e+00
-1.421239e+00
0.000000e+00
-2.791331e-02
-5.682480e-02
-8.706431e-02
-1.187818e-01
-1.518751e-01
-1.860649e-01
-2.209981e-01
-2.563360e-01
-2.917797e-01
-3.270658e-01
-3.619514e-01
-3.961944e-01
-4.295353e-01
-4.616804e-01
-4.922876e-01
-5.209544e-01
-5.472086e-01
-5.705040e-01
-5.902224e-01
-6.056865e-01
-6.161909e-01
-6.210594e-01
-6.197432e-01
-6.119851e-01
-5.980836e-01
-5.792991e-01
-5.584164e-01
-5.403536e-01
-5.322965e-01
-5.421677e-01
-5.743364e-01
-6.249143e-01
0.000000e+00
-1.615095e-04
-3.226801e-04
-4.765354e-04
-6.139077e-04
-7.232769e-04
-7.898250e-04
-7.938710e-04
-7.088166e-04
-4.985069e-04
-1.137994e-04
5.119156e-04
1.468440e-03
2.875779e-03
4.892233e-03
7.722880e-03
1.162695e-02
1.692192e-02
2.398165e-02
3.322519e-02
4.509181e-02
5.999600e-02
7.825381e-02
9.996860e-02
1.248625e-01
1.520430e-01
1.797114e-01
2.048738e-01
2.232350e-01
2.296491e-01
2.196864e-01
1.923418e-01
1.522947e-01
0.000000e+00
2.759450e-02
5.618712e-02
8.612189e-02
1.175667e-01
1.504416e-01
1.844956e-01
2.194133e-01
2.549067e-01
2.907457e-01
3.267608e-01
3.628348e-01
3.988950e-01
4.349078e-01
4.708768e-01
5.068453e-01
5.428989e-01
5.791647e-01
6.158046e-01
6.529974e-01
6.909087e-01
7.296410e-01
7.691599e-01
8.091887e-01
8.490664e-01
8.875790e-01
9.227968e-01
9.520018e-01
9.718569e-01
9.790400e-01
9.715225e-01
9.502385e-01
9.201675e-01
0.000000e+00
5.543462e-02
1.128988e-01
1.732198e-01
2.367129e-01
3.031040e-01
3.717327e-01
4.418997e-01
5.130073e-01
5.845875e-01
6.562797e-01
7.278063e-01
7.989483e-01
8.695239e-01
9.393769e-01
1.008372e+00
1.076393e+00
1.143340e+00
1.209119e+00
1.273630e+00
1.336735e+00
1.398222e+00
1.457748e+00
1.514755e+00
1.568374e+00
1.617317e+00
1.659811e+00
1.693649e+00
1.716461e+00
1.726332e+00
1.722782e+00
1.707854e+00
1.686751e+00
0.000000e+00
8.327921e-02
1.699613e-01
2.614591e-01
3.582642e-01
4.593555e-01
5.635125e-01
6.695701e-01
7.766766e-01
8.842080e-01
9.916787e-01
1.098704e+00
1.204959e+00
1.310142e+00
1.413947e+00
1.516055e+00
1.616124e+00
1.713789e+00
1.808653e+00
1.900283e+00
1.988209e+00
2.071903e+00
2.150756e+00
2.224030e+00
2.290796e+00
2.349877e+00
2.399837e+00
2.439065e+00
2.466052e+00
2.479902e+00
2.481085e+00
2.472265e+00
2.458888e+00
0.000000e+00
1.108832e-01
2.270879e-01
3.524581e-01
4.850989e-01
6.229240e-01
7.639746e-01
9.067768e-01
1.050343e+00
1.194037e+00
1.337370e+00
1.479928e+00
1.621337e+00
1.761216e+00
1.899139e+00
2.034611e+00
2.167052e+00
2.295786e+00
2.420051e+00
2.539022e+00
2.651842e+00
2.757653e+00
2.855608e+00
2.944858e+00
3.024519e+00
3.093646e+00
3.151237e+00
3.196316e+00
3.228135e+00
3.246559e+00
3.252637e+00
3.249324e+00
3.242259e+00
0.000000e+00
1.387151e-01
2.874847e-01
4.512246e-01
6.251389e-01
8.019126e-01
9.809199e-01
1.161176e+00
1.341471e+00
1.521296e+00
1.700374e+00
1.878346e+00
2.054823e+00
2.229393e+00
2.401552e+00
2.570656e+00
2.735876e+00
2.896188e+00
3.050391e+00
3.197185e+00
3.335262e+00
3.463395e+00
3.580494e+00
3.685618e+00
3.777973e+00
3.856895e+00
3.921864e+00
3.972557e+00
4.008982e+00
4.031692e+00
4.042165e+00
4.043421e+00
4.041063e+00
0.000000e+00
1.779781e-01
3.691815e-01
5.782663e-01
7.963915e-01
1.013013e+00
1.229513e+00
1.446660e+00
1.663136e+00
1.878451e+00
2.092634e+00
2.305454e+00
2.516510e+00
2.725373e+00
2.931502e+00
3.134135e+00
3.332211e+00
3.524333e+00
3.708811e+00
3.883797e+00
4.047460e+00
4.198142e+00
4.334459e+00
4.455334e+00
4.560011e+00
4.648061e+00
4.719411e+00
4.774401e+00
4.813860e+00
4.839184e+00
4.852454e+00
4.856774e+00
4.857276e+00
0.000000e+00
2.373164e-01
4.921148e-01
7.464486e-01
1.006972e+00
1.262042e+00
1.515018e+00
1.768419e+00
2.020736e+00
2.271391e+00
2.520661e+00
2.768399e+00
3.014158e+00
3.257471e+00
3.497753e+00
3.734126e+00
3.965297e+00
4.189506e+00
4.404574e+00
4.608096e+00
4.797696e+00
4.971236e+00
5.126950e+00
5.263501e+00
5.380010e+00
5.476097e+00
5.551966e+00
5.608516e+00
5.647456e+00
5.671367e+00
5.683605e+00
5.688049e+00
5.689135e+00
0.000000e+00
3.729052e-01
6.711626e-01
9.614694e-01
1.258109e+00
1.548438e+00
1.837094e+00
2.126488e+00
2.414787e+00
2.701435e+00
2.986713e+00
3.270392e+00
3.551945e+00
3.830832e+00
4.106351e+00
4.377444e+00
4.642552e+00
4.899556e+00
5.145841e+00
5.378522e+00
5.594721e+00
5.791808e+00
5.967532e+00
6.120091e+00
6.248187e+00
6.351118e+00
6.428952e+00
6.482772e+00
6.514978e+00
6.529573e+00
6.532294e+00
6.530152e+00
6.528932e+00
0.000000e+00
-2.297862e-01
-4.229596e-01
-6.502538e-01
-9.070530e-01
-1.195106e+00
-1.518290e+00
-1.877011e+00
-2.271198e+00
-2.701364e+00
-3.167724e+00
-3.670157e+00
-4.208461e+00
-4.782354e+00
-5.391397e+00
-6.034973e+00
-6.712269e+00
-7.422279e+00
-8.163832e+00
-8.935654e+00
-9.736480e+00
-1.056518e+01
-1.142092e+01
-1.230343e+01
-1.321328e+01
-1.415241e+01
-1.512482e+01
-1.613767e+01
-1.720314e+01
-1.834258e+01
-1.960388e+01
-2.110914e+01
-2.315562e+01
0.000000e+00
-1.430394e-01
-3.448255e-01
-5.684424e-01
-8.249816e-01
-1.114017e+00
-1.437200e+00
-1.795906e+00
-2.190479e+00
-2.621071e+00
-3.087843e+00
-3.590788e+00
-4.129737e+00
-4.704410e+00
-5.314408e+00
-5.959176e+00
-6.637969e+00
-7.349835e+00
-8.093616e+00
-8.867998e+00
-9.671611e+00
-1.050318e+01
-1.136170e+01
-1.224670e+01
-1.315856e+01
-1.409904e+01
-1.507195e+01
-1.608437e+01
-1.714870e+01
-1.828799e+01
-1.954895e+01
-2.102658e+01
-2.291885e+01
0.000000e+00
-1.069937e-01
-2.842852e-01
-5.027922e-01
-7.566076e-01
-1.044914e+00
-1.367699e+00
-1.726182e+00
-2.120861e+00
-2.551743e+00
-3.018893e+00
-3.522330e+00
-4.061910e+00
-4.637363e+00
-5.248319e+00
-5.894269e+00
-6.574523e+00
-7.288175e+00
-8.034094e+00
-8.810958e+00
-9.617354e+00
-1.045193e+01
-1.131361e+01
-1.220185e+01
-1.311697e+01
-1.406071e+01
-1.503698e+01
-1.605320e+01
-1.712288e+01
-1.826961e+01
-1.952564e+01
-2.091163e+01
-2.240666e+01
0.000000e+00
-9.275056e-02
-2.500773e-01
-4.563773e-01
-7.043902e-01
-9.895414e-01
-1.310741e+00
-1.668411e+00
-2.062758e+00
-2.493668e+00
-2.961103e+00
-3.465024e+00
-4.005273e+00
-4.581588e+00
-5.193612e+00
-5.840863e+00
-6.522683e+00
-7.238204e+00
-7.986327e+00
-8.765755e+00
-9.575083e+00
-1.041296e+01
-1.127829e+01
-1.217053e+01
-1.308998e+01
-1.403836e+01
-1.501952e+01
-1.604066e+01
-1.711421e+01
-1.825831e+01
-1.948028e+01
-2.074629e+01
-2.191913e+01
0.000000e+00
-8.839265e-02
-2.329445e-01
-4.280607e-01
-6.679683e-01
-9.482646e-01
-1.266729e+00
-1.622876e+00
-2.016426e+00
-2.447091e+00
-2.914689e+00
-3.419068e+00
-3.960027e+00
-4.537289e+00
-5.150498e+00
-5.799177e+00
-6.482685e+00
-7.200181e+00
-7.950601e+00
-8.732690e+00
-9.545082e+00
-1.038645e+01
-1.125571e+01
-1.215225e+01
-1.307630e+01
-1.402927e+01
-1.501436e+01
-1.603717e+01
-1.710614e+01
-1.822925e+01
-1.939493e+01
-2.054350e+01
-2.157123e+01
0.000000e+00
-8.547829e-02
-2.233600e-01
-4.106702e-01
-6.438064e-01
-9.191917e-01
-1.234638e+00
-1.588973e+00
-1.981518e+00
-2.411800e+00
-2.879480e+00
-3.384292e+00
-3.925972e+00
-4.504221e+00
-5.118671e+00
-5.768842e+00
-6.454104e+00
-7.173632e+00
-7.926396e+00
-8.711178e+00
-9.526648e+00
-1.037148e+01
-1.124455e+01
-1.214509e+01
-1.307299e+01
-1.402902e+01
-1.501501e+01
-1.603384e+01
-1.708837e+01
-1.817664e+01
-1.927618e+01
-2.033302e+01
-2.127294e+01
0.000000e+00
-8.337212e-02
-2.174432e-01
-4.000032e-01
-6.284408e-01
-9.001221e-01
-1.213011e+00
-1.565738e+00
-1.957385e+00
-2.387315e+00
-2.855071e+00
-3.360294e+00
-3.902671e+00
-4.481879e+00
-5.097540e+00
-5.749174e+00
-6.436158e+00
-7.157682e+00
-7.912736e+00
-8.700122e+00
-9.518504e+00
-1.036651e+01
-1.124286e+01
-1.214650e+01
-1.307677e+01
-1.403342e+01
-1.501651e+01
-1.602583e+01
-1.705909e+01
-1.810739e+01
-1.914614e+01
-2.013227e+01
-2.101344e+01
0.000000e+00
-8.214505e-02
-2.141325e-01
-3.941078e-01
-6.199080e-01
-8.893623e-01
-1.200634e+00
-1.552319e+00
-1.943403e+00
-2.373154e+00
-2.841041e+00
-3.346661e+00
-3.889671e+00
-4.469738e+00
-5.086487e+00
-5.739447e+00
-6.428006e+00
-7.151367e+00
-7.908524e+00
-8.698264e+00
-9.519199e+00
-1.036983e+01
-1.124862e+01
-1.215411e+01
-1.308489e+01
-1.403958e+01
-1.501641e+01
-1.601245e+01
-1.702182e+01
-1.803242e+01
-1.902151e+01
-1.995595e+01
-2.079890e+01
0.000000e+00
-8.174257e-02
-2.130661e-01
-3.922333e-01
-6.172102e-01
-8.859684e-01
-1.196745e+00
-1.548146e+00
-1.939135e+00
-2.368959e+00
-2.837072e+00
-3.343065e+00
-3.886601e+00
-4.467360e+00
-5.084986e+00
-5.739031e+00
-6.428902e+00
-7.153810e+00
-7.912740e+00
-8.704430e+00
-9.527387e+00
-1.037991e+01
-1.126015e+01
-1.216612e+01
-1.309563e+01
-1.404618e+01
-1.501446e+01
-1.599560e+01
-1.698176e+01
-1.796021e+01
-1.891139e+01
-1.981007e+01
-2.062954e+01
0.000000e+00
-8.214039e-02
-2.141456e-01
-3.941687e-01
-6.200523e-01
-8.896323e-01
-1.201080e+00
-1.553004e+00
-1.944404e+00
-2.374570e+00
-2.842998e+00
-3.349319e+00
-3.893234e+00
-4.474460e+00
-5.092678e+00
-5.747477e+00
-6.438291e+00
-7.164341e+00
-7.924586e+00
-8.717691e+00
-9.542013e+00
-1.039561e+01
-1.127626e+01
-1.218144e+01
-1.310823e+01
-1.405316e+01
-1.501179e+01
-1.597808e+01
-1.694352e+01
-1.789607e+01
-1.881958e+01
-1.969476e+01
-2.050164e+01
0.000000e+00
-8.335808e-02
-2.174613e-01
-4.001134e-01
-6.287128e-01
-9.006373e-01
-1.213867e+00
-1.567054e+00
-1.959310e+00
-2.390040e+00
-2.858834e+00
-3.365403e+00
-3.909514e+00
-4.490941e+00
-5.109415e+00
-5.764571e+00
-6.455879e+00
-7.182572e+00
-7.943575e+00
-8.737459e+00
-9.562414e+00
-1.041624e+01
-1.129633e+01
-1.219967e+01
-1.312271e+01
-1.406124e+01
-1.501007e+01
-1.596262e+01
-1.691045e+01
-1.784286e+01
-1.874681e+01
-1.960766e+01
-2.041033e+01
0.000000e+00
-8.544556e-02
-2.233678e-01
-4.108083e-01
-6.441748e-01
-9.199046e-01
-1.235832e+00
-1.590816e+00
-1.984221e+00
-2.415626e+00
-2.884765e+00
-3.391461e+00
-3.935563e+00
-4.516907e+00
-5.135281e+00
-5.790368e+00
-6.481677e+00
-7.208451e+00
-7.969581e+00
-8.763539e+00
-9.588341e+00
-1.044154e+01
-1.132019e+01
-1.222086e+01
-1.313952e+01
-1.407142e+01
-1.501094e+01
-1.595135e+01
-1.688469e+01
-1.780172e+01
-1.869220e+01
-1.954536e+01
-2.035030e+01
0.000000e+00
-8.832901e-02
-2.329238e-01
-4.282004e-01
-6.683921e-01
-9.491107e-01
-1.268163e+00
-1.625104e+00
-2.019702e+00
-2.451735e+00
-2.921105e+00
-3.427768e+00
-3.971655e+00
-4.552652e+00
-5.170589e+00
-5.825194e+00
-6.516006e+00
-7.242274e+00
-8.002849e+00
-8.796110e+00
-9.619920e+00
-1.047162e+01
-1.134801e+01
-1.224535e+01
-1.315926e+01
-1.408466e+01
-1.501571e+01
-1.594572e+01
-1.686733e+01
-1.777268e+01
-1.865398e+01
-1.950395e+01
-2.031589e+01
0.000000e+00
-9.264760e-02
-2.500181e-01
-4.564976e-01
-7.048289e-01
-9.904521e-01
-1.312309e+00
-1.670864e+00
-2.066379e+00
-2.498811e+00
-2.968214e+00
-3.474666e+00
-4.018153e+00
-4.598586e+00
-5.215817e+00
-5.869587e+00
-6.559442e+00
-7.284616e+00
-8.043917e+00
-8.835643e+00
-9.657547e+00
-1.050683e+01
-1.138013e+01
-1.227352e+01
-1.318241e+01
-1.410158e+01
-1.502508e+01
-1.594636e+01
-1.685857e+01
-1.775501e+01
-1.862991e+01
-1.947920e+01
-2.030083e+01
0.000000e+00
-1.068686e-01
-2.842033e-01
-5.028925e-01
-7.570381e-01
-1.045838e+00
-1.369309e+00
-1.728719e+00
-2.124622e+00
-2.557095e+00
-3.026300e+00
-3.532377e+00
-4.075325e+00
-4.655053e+00
-5.271396e+00
-5.924070e+00
-6.612580e+00
-7.336108e+00
-8.093403e+00
-8.882703e+00
-9.701705e+00
-1.054756e+01
-1.141686e+01
-1.230561e+01
-1.320918e+01
-1.412229e+01
-1.503901e+01
-1.595298e+01
-1.685771e+01
-1.774728e+01
-1.861742e+01
-1.946676e+01
-2.029813e+01
0.000000e+00
-1.429279e-01
-3.447473e-01
-5.685400e-01
-8.254085e-01
-1.114942e+00
-1.438820e+00
-1.798463e+00
-2.194270e+00
-2.626466e+00
-3.095306e+00
-3.600902e+00
-4.143225e+00
-4.722164e+00
-5.337513e+00
-5.988912e+00
-6.675766e+00
-7.397155e+00
-8.151744e+00
-8.937727e+00
-9.752804e+00
-1.059416e+01
-1.145844e+01
-1.234170e+01
-1.323938e+01
-1.414627e+01
-1.505659e+01
-1.596413e+01
-1.686273e+01
-1.774696e+01
-1.861336e+01
-1.946225e+01
-2.030031e+01
0.000000e+00
-2.297085e-01
-4.229097e-01
-6.503800e-01
-9.075058e-01
-1.196058e+00
-1.519943e+00
-1.879602e+00
-2.275022e+00
-2.706787e+00
-3.175206e+00
-3.680266e+00
-4.221901e+00
-4.799983e+00
-5.414240e+00
-6.064194e+00
-6.749107e+00
-7.467909e+00
-8.219156e+00
-9.001003e+00
-9.811185e+00
-1.064697e+01
-1.150512e+01