TITLE = "Solution"
VARIABLES = x, y, u, v, psiu, psiv, t, stress
ZONE T="structure" N=561 E=512 F=FEBLOCK ET=QUADRILATERAL VARLOCATION=([7,8]=cellcentered)
0.000000e+00
6.250000e+00
1.250000e+01
1.875000e+01
2.500000e+01
3.125000e+01
3.750000e+01
4.375000e+01
5.000000e+01
5.625000e+01
6.250000e+01
6.875000e+01
7.500000e+01
8.125000e+01
8.750000e+01
9.375000e+01
1.000000e+02
1.062500e+02
1.125000e+02
1.187500e+02
1.250000e+02
1.312500e+02
1.375000e+02
1.437500e+02
1.500000e+02
1.562500e+02
1.625000e+02
1.687500e+02
1.750000e+02
1.812500e+02
1.875000e+02
1.937500e+02
2.000000e+02
0.000000e+00
6.250000e+00
1.250000e+01
1.875000e+01
2.500000e+01
3.125000e+01
3.750000e+01
4.375000e+01
5.000000e+01
5.625000e+01
6.250000e+01
6.875000e+01
7.500000e+01
8.125000e+01
8.750000e+01
9.375000e+01
1.000000e+02
1.062500e+02
1.125000e+02
1.187500e+02
1.250000e+02
1.312500e+02
1.375000e+02
1.437500e+02
1.500000e+02
1.562500e+02
1.625000e+02
1.687500e+02
1.750000e+02
1.812500e+02
1.875000e+02
1.937500e+02
2.000000e+02
0.000000e+00
6.250000e+00
1.250000e+01
1.875000e+01
2.500000e+01
3.125000e+01
3.750000e+01
4.375000e+01
5.000000e+01
5.625000e+01
6.250000e+01
6.875000e+01
7.500000e+01
8.125000e+01
8.750000e+01
9.375000e+01
1.000000e+02
1.062500e+02
1.125000e+02
1.187500e+02
1.250000e+02
1.312500e+02
1.375000e+02
1.437500e+02
1.500000e+02
1.562500e+02
1.625000e+02
1.687500e+02
1.750000e+02
1.812500e+02
1.875000e+02
1.937500e+02
2.000000e+02
0.000000e+00
6.250000e+00
1.250000e+01
1.875000e+01
2.500000e+01
3.125000e+01
3.750000e+01
4.375000e+01
5.000000e+01
5.625000e+01
6.250000e+01
6.875000e+01
7.500000e+01
8.125000e+01
8.750000e+01
9.375000e+01
1.000000e+02
1.062500e+02
1.125000e+02
1.187500e+02
1.250000e+02
1.312500e+02
1.375000e+02
1.437500e+02
1.500000e+02
1.562500e+02
1.625000e+02
1.687500e+02
1.750000e+02
1.812500e+02
1.875000e+02
1.937500e+02
2.000000e+02
0.000000e+00
6.250000e+00
1.250000e+01
1.875000e+01
2.500000e+01
3.125000e+01
3.750000e+01
4.375000e+01
5.000000e+01
5.625000e+01
6.250000e+01
6.875000e+01
7.500000e+01
8.125000e+01
8.750000e+01
9.375000e+01
1.000000e+02
1.062500e+02
1.125000e+02
1.187500e+02
1.250000e+02
1.312500e+02
1.375000e+02
1.437500e+02
1.500000e+02
1.562500e+02
1.625000e+02
1.687500e+02
1.750000e+02
1.812500e+02
1.875000e+02
1.937500e+02
2.000000e+02
0.000000e+00
6.250000e+00
1.250000e+01
1.875000e+01
2.500000e+01
3.125000e+01
3.750000e+01
4.375000e+01
5.000000e+01
5.625000e+01
6.250000e+01
6.875000e+01
7.500000e+01
8.125000e+01
8.750000e+01
9.375000e+01
1.000000e+02
1.062500e+02
1.125000e+02
1.187500e+02
1.250000e+02
1.312500e+02
1.375000e+02
1.437500e+02
1.500000e+02
1.562500e+02
1.625000e+02
1.687500e+02
1.750000e+02
1.812500e+02
1.875000e+02
1.937500e+02
2.000000e+02
0.000000e+00
6.250000e+00
1.250000e+01
1.875000e+01
2.500000e+01
3.125000e+01
3.750000e+01
4.375000e+01
5.000000e+01
5.625000e+01
6.250000e+01
6.875000e+01
7.500000e+01
8.125000e+01
8.750000e+01
9.375000e+01
1.000000e+02
1.062500e+02
1.125000e+02
1.187500e+02
1.250000e+02
1.312500e+02
1.375000e+02
1.437500e+02
1.500000e+02
1.562500e+02
1.625000e+02
1.687500e+02
1.750000e+02
1.812500e+02
1.875000e+02
1.937500e+02
2.000000e+02
0.000000e+00
6.250000e+00
1.250000e+01
1.875000e+01
2.500000e+01
3.125000e+01
3.750000e+01
4.375000e+01
5.000000e+01
5.625000e+01
6.250000e+01
6.875000e+01
7.500000e+01
8.125000e+01
8.750000e+01
9.375000e+01
1.000000e+02
1.062500e+02
1.125000e+02
1.187500e+02
1.250000e+02
1.312500e+02
1.375000e+02
1.437500e+02
1.500000e+02
1.562500e+02
1.625000e+02
1.687500e+02
1.750000e+02
1.812500e+02
1.875000e+02
1.937500e+02
2.000000e+02
0.000000e+00
6.250000e+00
1.250000e+01
1.875000e+01
2.500000e+01
3.125000e+01
3.750000e+01
4.375000e+01
5.000000e+01
5.625000e+01
6.250000e+01
6.875000e+01
7.500000e+01
8.125000e+01
8.750000e+01
9.375000e+01
1.000000e+02
1.062500e+02
1.125000e+02
1.187500e+02
1.250000e+02
1.312500e+02
1.375000e+02
1.437500e+02
1.500000e+02
1.562500e+02
1.625000e+02
1.687500e+02
1.750000e+02
1.812500e+02
1.875000e+02
1.937500e+02
2.000000e+02
0.000000e+00
6.250000e+00
1.250000e+01
1.875000e+01
2.500000e+01
3.125000e+01
3.750000e+01
4.375000e+01
5.000000e+01
5.625000e+01
6.250000e+01
6.875000e+01
7.500000e+01
8.125000e+01
8.750000e+01
9.375000e+01
1.000000e+02
1.062500e+02
1.125000e+02
1.187500e+02
1.250000e+02
1.312500e+02
1.375000e+02
1.437500e+02
1.500000e+02
1.562500e+02
1.625000e+02
1.687500e+02
1.750000e+02
1.812500e+02
1.875000e+02
1.937500e+02
2.000000e+02
0.000000e+00
6.250000e+00
1.250000e+01
1.875000e+01
2.500000e+01
3.125000e+01
3.750000e+01
4.375000e+01
5.000000e+01
5.625000e+01
6.250000e+01
6.875000e+01
7.500000e+01
8.125000e+01
8.750000e+01
9.375000e+01
1.000000e+02
1.062500e+02
1.125000e+02
1.187500e+02
1.250000e+02
1.312500e+02
1.375000e+02
1.437500e+02
1.500000e+02
1.562500e+02
1.625000e+02
1.687500e+02
1.750000e+02
1.812500e+02
1.875000e+02
1.937500e+02
2.000000e+02
0.000000e+00
6.250000e+00
1.250000e+01
1.875000e+01
2.500000e+01
3.125000e+01
3.750000e+01
4.375000e+01
5.000000e+01
5.625000e+01
6.250000e+01
6.875000e+01
7.500000e+01
8.125000e+01
8.750000e+01
9.375000e+01
1.000000e+02
1.062500e+02
1.125000e+02
1.187500e+02
1.250000e+02
1.312500e+02
1.375000e+02
1.437500e+02
1.500000e+02
1.562500e+02
1.625000e+02
1.687500e+02
1.750000e+02
1.812500e+02
1.875000e+02
1.937500e+02
2.000000e+02
0.000000e+00
6.250000e+00
1.250000e+01
1.875000e+01
2.500000e+01
3.125000e+01
3.750000e+01
4.375000e+01
5.000000e+01
5.625000e+01
6.250000e+01
6.875000e+01
7.500000e+01
8.125000e+01
8.750000e+01
9.375000e+01
1.000000e+02
1.062500e+02
1.125000e+02
1.187500e+02
1.250000e+02
1.312500e+02
1.375000e+02
1.437500e+02
1.500000e+02
1.562500e+02
1.625000e+02
1.687500e+02
1.750000e+02
1.812500e+02
1.875000e+02
1.937500e+02
2.000000e+02
0.000000e+00
6.250000e+00
1.250000e+01
1.875000e+01
2.500000e+01
3.125000e+01
3.750000e+01
4.375000e+01
5.000000e+01
5.625000e+01
6.250000e+01
6.875000e+01
7.500000e+01
8.125000e+01
8.750000e+01
9.375000e+01
1.000000e+02
1.062500e+02
1.125000e+02
1.187500e+02
1.250000e+02
1.312500e+02
1.375000e+02
1.437500e+02
1.500000e+02
1.562500e+02
1.625000e+02
1.687500e+02
1.750000e+02
1.812500e+02
1.875000e+02
1.937500e+02
2.000000e+02
0.000000e+00
6.250000e+00
1.250000e+01
1.875000e+01
2.500000e+01
3.125000e+01
3.750000e+01
4.375000e+01
5.000000e+01
5.625000e+01
6.250000e+01
6.875000e+01
7.500000e+01
8.125000e+01
8.750000e+01
9.375000e+01
1.000000e+02
1.062500e+02
1.125000e+02
1.187500e+02
1.250000e+02
1.312500e+02
1.375000e+02
1.437500e+02
1.500000e+02
1.562500e+02
1.625000e+02
1.687500e+02
1.750000e+02
1.812500e+02
1.875000e+02
1.937500e+02
2.000000e+02
0.000000e+00
6.250000e+00
1.250000e+01
1.875000e+01
2.500000e+01
3.125000e+01
3.750000e+01
4.375000e+01
5.000000e+01
5.625000e+01
6.250000e+01
6.875000e+01
7.500000e+01
8.125000e+01
8.750000e+01
9.375000e+01
1.000000e+02
1.062500e+02
1.125000e+02
1.187500e+02
1.250000e+02
1.312500e+02
1.375000e+02
1.437500e+02
1.500000e+02
1.562500e+02
1.625000e+02
1.687500e+02
1.750000e+02
1.812500e+02
1.875000e+02
1.937500e+02
2.000000e+02
0.000000e+00
6.250000e+00
1.250000e+01
1.875000e+01
2.500000e+01
3.125000e+01
3.750000e+01
4.375000e+01
5.000000e+01
5.625000e+01
6.250000e+01
6.875000e+01
7.500000e+01
8.125000e+01
8.750000e+01
9.375000e+01
1.000000e+02
1.062500e+02
1.125000e+02
1.187500e+02
1.250000e+02
1.312500e+02
1.375000e+02
1.437500e+02
1.500000e+02
1.562500e+02
1.625000e+02
1.687500e+02
1.750000e+02
1.812500e+02
1.875000e+02
1.937500e+02
2.000000e+02
0.000000e+00
0.000000e+00
0.000000e+00
0.000000e+00
0.000000e+00
0.000000e+00
0.000000e+00
0.000000e+00
0.000000e+00
0.000000e+00
0.000000e+00
0.000000e+00
0.000000e+00
0.000000e+00
0.000000e+00
0.000000e+00
0.000000e+00
0.000000e+00
0.000000e+00
0.000000e+00
0.000000e+00
0.000000e+00
0.000000e+00
0.000000e+00
0.000000e+00
0.000000e+00
0.000000e+00
0.000000e+00
0.000000e+00
0.000000e+00
0.000000e+00
0.000000e+00
0.000000e+00
6.250000e+00
6.250000e+00
6.250000e+00
6.250000e+00
6.250000e+00
6.250000e+00
6.250000e+00
6.250000e+00
6.250000e+00
6.250000e+00
6.250000e+00
6.250000e+00
6.250000e+00
6.250000e+00
6.250000e+00
6.250000e+00
6.250000e+00
6.250000e+00
6.250000e+00
6.250000e+00
6.250000e+00
6.250000e+00
6.250000e+00
6.250000e+00
6.250000e+00
6.250000e+00
6.250000e+00
6.250000e+00
6.250000e+00
6.250000e+00
6.250000e+00
6.250000e+00
6.250000e+00
1.250000e+01
1.250000e+01
1.250000e+01
1.250000e+01
1.250000e+01
1.250000e+01
1.250000e+01
1.250000e+01
1.250000e+01
1.250000e+01
1.250000e+01
1.250000e+01
1.250000e+01
1.250000e+01
1.250000e+01
1.250000e+01
1.250000e+01
1.250000e+01
1.250000e+01
1.250000e+01
1.250000e+01
1.250000e+01
1.250000e+01
1.250000e+01
1.250000e+01
1.250000e+01
1.250000e+01
1.250000e+01
1.250000e+01
1.250000e+01
1.250000e+01
1.250000e+01
1.250000e+01
1.875000e+01
1.875000e+01
1.875000e+01
1.875000e+01
1.875000e+01
1.875000e+01
1.875000e+01
1.875000e+01
1.875000e+01
1.875000e+01
1.875000e+01
1.875000e+01
1.875000e+01
1.875000e+01
1.875000e+01
1.875000e+01
1.875000e+01
1.875000e+01
1.875000e+01
1.875000e+01
1.875000e+01
1.875000e+01
1.875000e+01
1.875000e+01
1.875000e+01
1.875000e+01
1.875000e+01
1.875000e+01
1.875000e+01
1.875000e+01
1.875000e+01
1.875000e+01
1.875000e+01
2.500000e+01
2.500000e+01
2.500000e+01
2.500000e+01
2.500000e+01
2.500000e+01
2.500000e+01
2.500000e+01
2.500000e+01
2.500000e+01
2.500000e+01
2.500000e+01
2.500000e+01
2.500000e+01
2.500000e+01
2.500000e+01
2.500000e+01
2.500000e+01
2.500000e+01
2.500000e+01
2.500000e+01
2.500000e+01
2.500000e+01
2.500000e+01
2.500000e+01
2.500000e+01
2.500000e+01
2.500000e+01
2.500000e+01
2.500000e+01
2.500000e+01
2.500000e+01
2.500000e+01
3.125000e+01
3.125000e+01
3.125000e+01
3.125000e+01
3.125000e+01
3.125000e+01
3.125000e+01
3.125000e+01
3.125000e+01
3.125000e+01
3.125000e+01
3.125000e+01
3.125000e+01
3.125000e+01
3.125000e+01
3.125000e+01
3.125000e+01
3.125000e+01
3.125000e+01
3.125000e+01
3.125000e+01
3.125000e+01
3.125000e+01
3.125000e+01
3.125000e+01
3.125000e+01
3.125000e+01
3.125000e+01
3.125000e+01
3.125000e+01
3.125000e+01
3.125000e+01
3.125000e+01
3.750000e+01
3.750000e+01
3.750000e+01
3.750000e+01
3.750000e+01
3.750000e+01
3.750000e+01
3.750000e+01
3.750000e+01
3.750000e+01
3.750000e+01
3.750000e+01
3.750000e+01
3.750000e+01
3.750000e+01
3.750000e+01
3.750000e+01
3.750000e+01
3.750000e+01
3.750000e+01
3.750000e+01
3.750000e+01
3.750000e+01
3.750000e+01
3.750000e+01
3.750000e+01
3.750000e+01
3.750000e+01
3.750000e+01
3.750000e+01
3.750000e+01
3.750000e+01
3.750000e+01
4.375000e+01
4.375000e+01
4.375000e+01
4.375000e+01
4.375000e+01
4.375000e+01
4.375000e+01
4.375000e+01
4.375000e+01
4.375000e+01
4.375000e+01
4.375000e+01
4.375000e+01
4.375000e+01
4.375000e+01
4.375000e+01
4.375000e+01
4.375000e+01
4.375000e+01
4.375000e+01
4.375000e+01
4.375000e+01
4.375000e+01
4.375000e+01
4.375000e+01
4.375000e+01
4.375000e+01
4.375000e+01
4.375000e+01
4.375000e+01
4.375000e+01
4.375000e+01
4.375000e+01
5.000000e+01
5.000000e+01
5.000000e+01
5.000000e+01
5.000000e+01
5.000000e+01
5.000000e+01
5.000000e+01
5.000000e+01
5.000000e+01
5.000000e+01
5.000000e+01
5.000000e+01
5.000000e+01
5.000000e+01
5.000000e+01
5.000000e+01
5.000000e+01
5.000000e+01
5.000000e+01
5.000000e+01
5.000000e+01
5.000000e+01
5.000000e+01
5.000000e+01
5.000000e+01
5.000000e+01
5.000000e+01
5.000000e+01
5.000000e+01
5.000000e+01
5.000000e+01
5.000000e+01
5.625000e+01
5.625000e+01
5.625000e+01
5.625000e+01
5.625000e+01
5.625000e+01
5.625000e+01
5.625000e+01
5.625000e+01
5.625000e+01
5.625000e+01
5.625000e+01
5.625000e+01
5.625000e+01
5.625000e+01
5.625000e+01
5.625000e+01
5.625000e+01
5.625000e+01
5.625000e+01
5.625000e+01
5.625000e+01
5.625000e+01
5.625000e+01
5.625000e+01
5.625000e+01
5.625000e+01
5.625000e+01
5.625000e+01
5.625000e+01
5.625000e+01
5.625000e+01
5.625000e+01
6.250000e+01
6.250000e+01
6.250000e+01
6.250000e+01
6.250000e+01
6.250000e+01
6.250000e+01
6.250000e+01
6.250000e+01
6.250000e+01
6.250000e+01
6.250000e+01
6.250000e+01
6.250000e+01
6.250000e+01
6.250000e+01
6.250000e+01
6.250000e+01
6.250000e+01
6.250000e+01
6.250000e+01
6.250000e+01
6.250000e+01
6.250000e+01
6.250000e+01
6.250000e+01
6.250000e+01
6.250000e+01
6.250000e+01
6.250000e+01
6.250000e+01
6.250000e+01
6.250000e+01
6.875000e+01
6.875000e+01
6.875000e+01
6.875000e+01
6.875000e+01
6.875000e+01
6.875000e+01
6.875000e+01
6.875000e+01
6.875000e+01
6.875000e+01
6.875000e+01
6.875000e+01
6.875000e+01
6.875000e+01
6.875000e+01
6.875000e+01
6.875000e+01
6.875000e+01
6.875000e+01
6.875000e+01
6.875000e+01
6.875000e+01
6.875000e+01
6.875000e+01
6.875000e+01
6.875000e+01
6.875000e+01
6.875000e+01
6.875000e+01
6.875000e+01
6.875000e+01
6.875000e+01
7.500000e+01
7.500000e+01
7.500000e+01
7.500000e+01
7.500000e+01
7.500000e+01
7.500000e+01
7.500000e+01
7.500000e+01
7.500000e+01
7.500000e+01
7.500000e+01
7.500000e+01
7.500000e+01
7.500000e+01
7.500000e+01
7.500000e+01
7.500000e+01
7.500000e+01
7.500000e+01
7.500000e+01
7.500000e+01
7.500000e+01
7.500000e+01
7.500000e+01
7.500000e+01
7.500000e+01
7.500000e+01
7.500000e+01
7.500000e+01
7.500000e+01
7.500000e+01
7.500000e+01
8.125000e+01
8.125000e+01
8.125000e+01
8.125000e+01
8.125000e+01
8.125000e+01
8.125000e+01
8.125000e+01
8.125000e+01
8.125000e+01
8.125000e+01
8.125000e+01
8.125000e+01
8.125000e+01
8.125000e+01
8.125000e+01
8.125000e+01
8.125000e+01
8.125000e+01
8.125000e+01
8.125000e+01
8.125000e+01
8.125000e+01
8.125000e+01
8.125000e+01
8.125000e+01
8.125000e+01
8.125000e+01
8.125000e+01
8.125000e+01
8.125000e+01
8.125000e+01
8.125000e+01
8.750000e+01
8.750000e+01
8.750000e+01
8.750000e+01
8.750000e+01
8.750000e+01
8.750000e+01
8.750000e+01
8.750000e+01
8.750000e+01
8.750000e+01
8.750000e+01
8.750000e+01
8.750000e+01
8.750000e+01
8.750000e+01
8.750000e+01
8.750000e+01
8.750000e+01
8.750000e+01
8.750000e+01
8.750000e+01
8.750000e+01
8.750000e+01
8.750000e+01
8.750000e+01
8.750000e+01
8.750000e+01
8.750000e+01
8.750000e+01
8.750000e+01
8.750000e+01
8.750000e+01
9.375000e+01
9.375000e+01
9.375000e+01
9.375000e+01
9.375000e+01
9.375000e+01
9.375000e+01
9.375000e+01
9.375000e+01
9.375000e+01
9.375000e+01
9.375000e+01
9.375000e+01
9.375000e+01
9.375000e+01
9.375000e+01
9.375000e+01
9.375000e+01
9.375000e+01
9.375000e+01
9.375000e+01
9.375000e+01
9.375000e+01
9.375000e+01
9.375000e+01
9.375000e+01
9.375000e+01
9.375000e+01
9.375000e+01
9.375000e+01
9.375000e+01
9.375000e+01
9.375000e+01
1.000000e+02
1.000000e+02
1.000000e+02
1.000000e+02
1.000000e+02
1.000000e+02
1.000000e+02
1.000000e+02
1.000000e+02
1.000000e+02
1.000000e+02
1.000000e+02
1.000000e+02
1.000000e+02
1.000000e+02
1.000000e+02
1.000000e+02
1.000000e+02
1.000000e+02
1.000000e+02
1.000000e+02
1.000000e+02
1.000000e+02
1.000000e+02
1.000000e+02
1.000000e+02
1.000000e+02
1.000000e+02
1.000000e+02
1.000000e+02
1.000000e+02
1.000000e+02
1.000000e+02
0.000000e+00
-4.668369e-01
-7.778121e-01
-1.115888e+00
-1.418773e+00
-1.712855e+00
-2.022422e+00
-2.312230e+00
-2.613501e+00
-2.907650e+00
-3.206246e+00
-3.504749e+00
-3.803184e+00
-4.104418e+00
-4.403703e+00
-4.705648e+00
-5.006614e+00
-5.308282e+00
-5.610395e+00
-5.911663e+00
-6.214156e+00
-6.515597e+00
-6.817255e+00
-7.115770e+00
-7.413337e+00
-7.716529e+00
-8.020115e+00
-8.346965e+00
-8.670013e+00
-9.028706e+00
-9.509807e+00
-9.926168e+00
-1.013140e+01
0.000000e+00
-2.329417e-01
-4.717184e-01
-7.365424e-01
-1.002868e+00
-1.256148e+00
-1.525547e+00
-1.785944e+00
-2.048410e+00
-2.313401e+00
-2.573527e+00
-2.838591e+00
-3.099278e+00
-3.362486e+00
-3.624547e+00
-3.886141e+00
-4.148643e+00
-4.409848e+00
-4.671747e+00
-4.933073e+00
-5.194296e+00
-5.455250e+00
-5.716563e+00
-5.976680e+00
-6.238498e+00
-6.498770e+00
-6.759070e+00
-7.022389e+00
-7.277824e+00
-7.537311e+00
-7.786579e+00
-7.885969e+00
-7.991712e+00
0.000000e+00
-1.064868e-01
-2.459989e-01
-4.420067e-01
-6.585766e-01
-8.656273e-01
-1.092868e+00
-1.317814e+00
-1.543351e+00
-1.773921e+00
-1.996530e+00
-2.224774e+00
-2.447583e+00
-2.671908e+00
-2.895706e+00
-3.118122e+00
-3.341886e+00
-3.564470e+00
-3.787913e+00
-4.011600e+00
-4.235148e+00
-4.458933e+00
-4.683757e+00
-4.910126e+00
-5.137385e+00
-5.358479e+00
-5.570428e+00
-5.768311e+00
-5.947299e+00
-6.096285e+00
-6.180290e+00
-6.185037e+00
-6.277882e+00
0.000000e+00
-1.025002e-01
-1.875851e-01
-3.383209e-01
-4.615357e-01
-6.186211e-01
-7.949973e-01
-9.649826e-01
-1.154086e+00
-1.333152e+00
-1.518444e+00
-1.702123e+00
-1.886075e+00
-2.070898e+00
-2.255708e+00
-2.442083e+00
-2.628802e+00
-2.817406e+00
-3.007143e+00
-3.198233e+00
-3.390656e+00
-3.582811e+00
-3.775770e+00
-3.966691e+00
-4.150425e+00
-4.322654e+00
-4.473859e+00
-4.605546e+00
-4.706481e+00
-4.768330e+00
-4.782421e+00
-4.798847e+00
-4.879669e+00
0.000000e+00
-9.216971e-02
-1.828718e-01
-2.738144e-01
-3.854077e-01
-5.016517e-01
-6.332215e-01
-7.675652e-01
-9.106962e-01
-1.053481e+00
-1.198283e+00
-1.345104e+00
-1.489938e+00
-1.637704e+00
-1.784260e+00
-1.932276e+00
-2.080871e+00
-2.229838e+00
-2.379473e+00
-2.528725e+00
-2.677246e+00
-2.823473e+00
-2.966122e+00
-3.102291e+00
-3.229187e+00
-3.342542e+00
-3.438901e+00
-3.512663e+00
-3.560552e+00
-3.583328e+00
-3.584795e+00
-3.614452e+00
-3.686876e+00
0.000000e+00
-7.369183e-02
-1.446427e-01
-2.191963e-01
-3.001028e-01
-3.887953e-01
-4.832436e-01
-5.842179e-01
-6.878720e-01
-7.950691e-01
-9.029181e-01
-1.011423e+00
-1.120553e+00
-1.229228e+00
-1.338433e+00
-1.447357e+00
-1.556306e+00
-1.664930e+00
-1.772743e+00
-1.879160e+00
-1.983113e+00
-2.083284e+00
-2.177781e+00
-2.264660e+00
-2.341440e+00
-2.406022e+00
-2.456371e+00
-2.490512e+00
-2.510032e+00
-2.508084e+00
-2.503572e+00
-2.531031e+00
-2.597836e+00
0.000000e+00
-5.079962e-02
-1.011078e-01
-1.525959e-01
-2.075795e-01
-2.664645e-01
-3.294934e-01
-3.957142e-01
-4.646439e-01
-5.351030e-01
-6.064922e-01
-6.781468e-01
-7.497132e-01
-8.210908e-01
-8.920393e-01
-9.625610e-01
-1.032385e+00
-1.101244e+00
-1.168666e+00
-1.233951e+00
-1.296125e+00
-1.353851e+00
-1.405668e+00
-1.449913e+00
-1.485008e+00
-1.508870e+00
-1.521319e+00
-1.523406e+00
-1.506077e+00
-1.477305e+00
-1.466822e+00
-1.492287e+00
-1.558108e+00
0.000000e+00
-2.675165e-02
-5.337512e-02
-8.057881e-02
-1.090694e-01
-1.393118e-01
-1.712370e-01
-2.046451e-01
-2.390643e-01
-2.740998e-01
-3.092835e-01
-3.442960e-01
-3.788919e-01
-4.128884e-01
-4.461806e-01
-4.786002e-01
-5.099360e-01
-5.398771e-01
-5.680650e-01
-5.940013e-01
-6.169024e-01
-6.356963e-01
-6.491146e-01
-6.562638e-01
-6.557372e-01
-6.473785e-01
-6.288870e-01
-5.907054e-01
-5.423074e-01
-4.936959e-01
-4.709535e-01
-4.962282e-01
-5.643251e-01
0.000000e+00
-1.916654e-03
-3.883271e-03
-5.820426e-03
-7.637466e-03
-9.233239e-03
-1.052079e-02
-1.142433e-02
-1.189067e-02
-1.185901e-02
-1.127271e-02
-1.005027e-02
-8.079181e-03
-5.214600e-03
-1.318996e-03
3.764275e-03
1.029961e-02
1.857175e-02
2.874141e-02
4.090649e-02
5.540384e-02
7.299116e-02
9.457237e-02
1.217075e-01
1.539253e-01
1.947248e-01
2.518875e-01
3.217018e-01
3.924017e-01
4.414714e-01
4.557025e-01
4.235222e-01
3.472818e-01
0.000000e+00
2.303865e-02
4.586294e-02
6.933837e-02
9.436808e-02
1.216137e-01
1.511895e-01
1.829818e-01
2.166107e-01
2.517007e-01
2.878777e-01
3.249198e-01
3.628253e-01
4.017693e-01
4.420240e-01
4.838880e-01
5.277159e-01
5.736930e-01
6.217528e-01
6.716262e-01
7.229842e-01
7.760999e-01
8.317730e-01
8.907576e-01
9.593048e-01
1.041516e+00
1.129236e+00
1.217393e+00
1.289945e+00
1.332849e+00
1.332025e+00
1.289834e+00
1.227834e+00
0.000000e+00
4.741503e-02
9.430070e-02
1.424881e-01
1.945218e-01
2.510739e-01
3.124355e-01
3.778082e-01
4.464817e-01
5.173199e-01
5.894822e-01
6.623381e-01
7.356398e-01
8.096957e-01
8.850619e-01
9.627298e-01
1.043176e+00
1.126140e+00
1.211213e+00
1.298422e+00
1.387708e+00
1.478764e+00
1.571897e+00
1.672776e+00
1.779588e+00
1.890075e+00
1.998082e+00
2.087450e+00
2.151673e+00
2.180067e+00
2.174162e+00
2.144202e+00
2.100100e+00
0.000000e+00
7.071970e-02
1.387587e-01
2.107020e-01
2.895327e-01
3.770413e-01
4.713637e-01
5.725708e-01
6.776807e-01
7.860811e-01
8.957499e-01
1.006077e+00
1.117060e+00
1.228069e+00
1.340009e+00
1.453211e+00
1.568797e+00
1.686174e+00
1.805328e+00
1.927527e+00
2.055035e+00
2.190793e+00
2.331910e+00
2.472216e+00
2.608090e+00
2.734993e+00
2.847035e+00
2.936945e+00
2.994466e+00
3.023752e+00
3.027475e+00
3.009602e+00
2.981827e+00
0.000000e+00
8.953650e-02
1.775510e-01
2.666137e-01
3.776931e-01
4.951397e-01
6.274288e-01
7.658663e-01
9.102851e-01
1.056803e+00
1.204078e+00
1.353295e+00
1.502361e+00
1.654701e+00
1.807434e+00
1.963477e+00
2.121872e+00
2.282767e+00
2.446787e+00
2.612189e+00
2.780498e+00
2.950461e+00
3.118889e+00
3.282600e+00
3.435970e+00
3.575345e+00
3.694261e+00
3.787086e+00
3.854652e+00
3.894385e+00
3.907716e+00
3.901267e+00
3.886665e+00
0.000000e+00
9.967021e-02
1.822211e-01
3.303536e-01
4.540084e-01
6.135202e-01
7.940967e-01
9.675569e-01
1.161298e+00
1.342604e+00
1.529753e+00
1.713527e+00
1.899128e+00
2.089412e+00
2.283843e+00
2.483390e+00
2.685568e+00
2.891182e+00
3.100702e+00
3.312592e+00
3.522042e+00
3.725404e+00
3.919506e+00
4.103660e+00
4.278742e+00
4.436307e+00
4.571426e+00
4.678282e+00
4.755194e+00
4.803439e+00
4.825921e+00
4.828842e+00
4.824070e+00
0.000000e+00
1.051185e-01
2.414725e-01
4.321175e-01
6.462695e-01
8.518500e-01
1.080310e+00
1.308499e+00
1.537304e+00
1.771775e+00
1.997288e+00
2.225723e+00
2.449425e+00
2.676080e+00
2.905319e+00
3.136219e+00
3.368078e+00
3.598863e+00
3.831149e+00
4.064149e+00
4.297410e+00
4.525330e+00
4.746886e+00
4.966162e+00
5.174589e+00
5.358660e+00
5.508462e+00
5.623814e+00
5.706696e+00
5.759913e+00
5.787854e+00
5.797007e+00
5.798134e+00
0.000000e+00
2.335744e-01
4.729082e-01
7.373364e-01
1.003201e+00
1.256080e+00
1.524782e+00
1.784961e+00
2.046948e+00
2.311345e+00
2.571213e+00
2.835141e+00
3.095010e+00
3.356601e+00
3.616861e+00
3.876506e+00
4.136325e+00
4.393959e+00
4.651347e+00
4.906431e+00
5.160975e+00
5.414547e+00
5.668426e+00
5.924561e+00
6.162855e+00
6.362607e+00
6.520468e+00
6.637909e+00
6.718648e+00
6.768197e+00
6.793534e+00
6.802720e+00
6.804978e+00
0.000000e+00
4.678039e-01
7.825961e-01
1.124967e+00
1.431292e+00
1.726573e+00
2.036261e+00
2.323675e+00
2.622459e+00
2.913283e+00
3.208719e+00
3.506095e+00
3.802526e+00
4.099850e+00
4.392382e+00
4.683410e+00
4.973287e+00
5.263083e+00
5.551891e+00
5.840175e+00
6.126152e+00
6.415353e+00
6.706648e+00
6.996615e+00
7.256944e+00
7.467256e+00
7.626046e+00
7.735652e+00
7.801034e+00
7.830401e+00
7.835536e+00
7.830879e+00
7.828304e+00
0.000000e+00
-2.772555e-01
-5.829826e-01
-9.726008e-01
-1.398463e+00
-1.862774e+00
-2.367523e+00
-2.903348e+00
-3.476043e+00
-4.081416e+00
-4.721827e+00
-5.398730e+00
-6.111313e+00
-6.862403e+00
-7.650590e+00
-8.477574e+00
-9.343131e+00
-1.024742e+01
-1.119108e+01
-1.217372e+01
-1.319598e+01
-1.425832e+01
-1.536095e+01
-1.650356e+01
-1.768511e+01
-1.890666e+01
-2.017288e+01
-2.149193e+01
-2.287241e+01
-2.433378e+01
-2.589279e+01
-2.770226e+01
-3.024489e+01
0.000000e+00
-1.783813e-01
-5.026334e-01
-8.849267e-01
-1.317007e+00
-1.778370e+00
-2.283196e+00
-2.820505e+00
-3.391686e+00
-3.998217e+00
-4.637576e+00
-5.315020e+00
-6.027317e+00
-6.778303e+00
-7.566747e+00
-8.393398e+00
-9.259194e+00
-1.016334e+01
-1.110704e+01
-1.208973e+01
-1.311188e+01
-1.417411e+01
-1.527691e+01
-1.641969e+01
-1.760119e+01
-1.882243e+01
-2.008700e+01
-2.140488e+01
-2.278545e+01
-2.423904e+01
-2.581781e+01
-2.761352e+01
-2.986855e+01
0.000000e+00
-1.562131e-01
-4.442855e-01
-8.279903e-01
-1.250205e+00
-1.709426e+00
-2.212649e+00
-2.748137e+00
-3.319925e+00
-3.925731e+00
-4.565709e+00
-5.243058e+00
-5.956018e+00
-6.706849e+00
-7.495740e+00
-8.322483e+00
-9.188259e+00
-1.009265e+01
-1.103614e+01
-1.201894e+01
-1.304108e+01
-1.410274e+01
-1.520501e+01
-1.634715e+01
-1.752955e+01
-1.875298e+01
-2.001976e+01
-2.134209e+01
-2.272705e+01
-2.420112e+01
-2.582148e+01
-2.750802e+01
-2.925940e+01
0.000000e+00
-1.985151e-01
-4.435947e-01
-8.219000e-01
-1.213906e+00
-1.663725e+00
-2.164743e+00
-2.690104e+00
-3.265351e+00
-3.867232e+00
-4.508506e+00
-5.185973e+00
-5.898734e+00
-6.650460e+00
-7.438900e+00
-8.266185e+00
-9.131666e+00
-1.003609e+01
-1.097948e+01
-1.196209e+01
-1.298449e+01
-1.404568e+01
-1.514763e+01
-1.629028e+01
-1.747481e+01
-1.870347e+01
-1.997636e+01
-2.130562e+01
-2.269992e+01
-2.419196e+01
-2.580578e+01
-2.735663e+01
-2.875835e+01
0.000000e+00
-2.155772e-01
-4.796932e-01
-8.190887e-01
-1.211473e+00
-1.644070e+00
-2.135713e+00
-2.655875e+00
-3.226002e+00
-3.827697e+00
-4.467206e+00
-5.145961e+00
-5.858043e+00
-6.610861e+00
-7.399161e+00
-8.226596e+00
-9.092231e+00
-9.996385e+00
-1.093997e+01
-1.192259e+01
-1.294532e+01
-1.400732e+01
-1.511031e+01
-1.625486e+01
-1.744263e+01
-1.867511e+01
-1.995497e+01
-2.128858e+01
-2.268498e+01
-2.417044e+01
-2.570828e+01
-2.715472e+01
-2.841858e+01
0.000000e+00
-2.228517e-01
-4.955981e-01
-8.247575e-01
-1.206620e+00
-1.636937e+00
-2.114980e+00
-2.635612e+00
-3.198174e+00
-3.799884e+00
-4.439076e+00
-5.116505e+00
-5.830732e+00
-6.582660e+00
-7.372284e+00
-8.199789e+00
-9.065842e+00
-9.970634e+00
-1.091475e+01
-1.189857e+01
-1.292249e+01
-1.398679e+01
-1.509224e+01
-1.623972e+01
-1.743024e+01
-1.866492e+01
-1.994690e+01
-2.128039e+01
-2.266458e+01
-2.411107e+01
-2.555427e+01
-2.692092e+01
-2.811982e+01
0.000000e+00
-2.265884e-01
-5.016878e-01
-8.279615e-01
-1.205070e+00
-1.631187e+00
-2.104276e+00
-2.621863e+00
-3.181856e+00
-3.782180e+00
-4.421474e+00
-5.098850e+00
-5.813887e+00
-6.566471e+00
-7.356735e+00
-8.185019e+00
-9.051752e+00
-9.957477e+00
-1.090274e+01
-1.188812e+01
-1.291409e+01
-1.398101e+01
-1.508931e+01
-1.623946e+01
-1.743210e+01
-1.866718e+01
-1.994527e+01
-2.127402e+01
-2.262791e+01
-2.402295e+01
-2.539807e+01
-2.669568e+01
-2.783304e+01
0.000000e+00
-2.279838e-01
-5.039717e-01
-8.294202e-01
-1.204567e+00
-1.628457e+00
-2.099431e+00
-2.615462e+00
-3.174469e+00
-3.774547e+00
-4.414140e+00
-5.092203e+00
-5.808094e+00
-6.561568e+00
-7.352688e+00
-8.181807e+00
-9.049460e+00
-9.956223e+00
-1.090273e+01
-1.188969e+01
-1.291772e+01
-1.398713e+01
-1.509778e+01
-1.624978e+01
-1.744308e+01
-1.867757e+01
-1.994710e+01
-2.125691e+01
-2.257740e+01
-2.391929e+01
-2.524351e+01
-2.648164e+01
-2.756217e+01
0.000000e+00
-2.282585e-01
-5.045238e-01
-8.299601e-01
-1.204883e+00
-1.628570e+00
-2.099521e+00
-2.615803e+00
-3.175369e+00
-3.776281e+00
-4.416921e+00
-5.096121e+00
-5.813175e+00
-6.567728e+00
-7.359785e+00
-8.189788e+00
-9.058411e+00
-9.966219e+00
-1.091376e+01
-1.190184e+01
-1.293138e+01
-1.400261e+01
-1.511497e+01
-1.626715e+01
-1.746035e+01
-1.868930e+01
-1.994397e+01
-2.122570e+01
-2.252123e+01
-2.381270e+01
-2.507787e+01
-2.624304e+01
-2.724027e+01
0.000000e+00
-2.277717e-01
-5.039044e-01
-8.298997e-01
-1.206060e+00
-1.631450e+00
-2.104363e+00
-2.622704e+00
-3.184306e+00
-3.787151e+00
-4.429537e+00
-5.110294e+00
-5.828761e+00
-6.584573e+00
-7.377606e+00
-8.208475e+00
-9.078163e+00
-9.987031e+00
-1.093528e+01
-1.192365e+01
-1.295355e+01
-1.402565e+01
-1.513793e+01
-1.629067e+01
-1.747659e+01
-1.869398e+01
-1.993228e+01
-2.119090e+01
-2.245766e+01
-2.371126e+01
-2.491470e+01
-2.601638e+01
-2.697622e+01
0.000000e+00
-2.262041e-01
-5.015860e-01
-8.289420e-01
-1.208126e+00
-1.637298e+00
-2.114301e+00
-2.636501e+00
-3.201578e+00
-3.807291e+00
-4.451938e+00
-5.134402e+00
-5.854322e+00
-6.611430e+00
-7.405453e+00
-8.237348e+00
-9.108354e+00
-1.001835e+01
-1.096697e+01
-1.195490e+01
-1.298335e+01
-1.405484e+01
-1.516491e+01
-1.631188e+01
-1.748761e+01
-1.869112e+01
-1.991803e+01
-2.115580e+01
-2.239579e+01
-2.361020e+01
-2.476824e+01
-2.583669e+01
-2.678416e+01
0.000000e+00
-2.223266e-01
-4.955076e-01
-8.262653e-01
-1.211332e+00
-1.646598e+00
-2.130378e+00
-2.658142e+00
-3.228045e+00
-3.837414e+00
-4.484343e+00
-5.168563e+00
-5.889431e+00
-6.647555e+00
-7.442551e+00
-8.275838e+00
-9.148457e+00
-1.005901e+01
-1.100759e+01
-1.199416e+01
-1.302009e+01
-1.408734e+01
-1.519115e+01
-1.632868e+01
-1.749554e+01
-1.868918e+01
-1.990469e+01
-2.112893e+01
-2.234204e+01
-2.352660e+01
-2.465546e+01
-2.570723e+01
-2.665788e+01
0.000000e+00
-2.147674e-01
-4.795181e-01
-8.211903e-01
-1.217966e+00
-1.658363e+00
-2.156520e+00
-2.687805e+00
-3.265795e+00
-3.877930e+00
-4.526808e+00
-5.213320e+00
-5.933773e+00
-6.693837e+00
-7.489454e+00
-8.325003e+00
-9.198396e+00
-1.010807e+01
-1.105515e+01
-1.203867e+01
-1.306101e+01
-1.412149e+01
-1.521684e+01
-1.634576e+01
-1.750633e+01
-1.869544e+01
-1.990390e+01
-2.111369e+01
-2.230668e+01
-2.346646e+01
-2.457645e+01
-2.562103e+01
-2.658600e+01
0.000000e+00
-1.968906e-01
-4.427172e-01
-8.242319e-01
-1.222895e+00
-1.681754e+00
-2.193463e+00
-2.729735e+00
-3.316026e+00
-3.928143e+00
-4.579709e+00
-5.265813e+00
-5.988000e+00
-6.749323e+00
-7.547518e+00
-8.384510e+00
-9.257435e+00
-1.016577e+01
-1.111000e+01
-1.209010e+01
-1.310694e+01
-1.415960e+01
-1.524639e+01
-1.636936e+01
-1.753030e+01
-1.871824e+01
-1.991959e+01
-2.111404e+01
-2.228883e+01
-2.343023e+01
-2.452666e+01
-2.556967e+01
-2.655487e+01
0.000000e+00
-1.534854e-01
-4.417423e-01
-8.288444e-01
-1.259309e+00
-1.729132e+00
-2.244975e+00
-2.792477e+00
-3.375928e+00
-3.991806e+00
-4.641151e+00
-5.327431e+00
-6.050647e+00
-6.812978e+00
-7.613355e+00
-8.450082e+00
-9.322486e+00
-1.022963e+01
-1.117235e+01
-1.214971e+01
-1.316168e+01
-1.420762e+01
-1.528857e+01
-1.641192e+01
-1.757398e+01
-1.875830e+01
-1.994723e+01
-2.112771e+01
-2.228726e+01
-2.341451e+01
-2.450093e+01
-2.554392e+01
-2.654957e+01
0.000000e+00
-1.753938e-01
-4.994998e-01
-8.854660e-01
-1.325957e+00
-1.798718e+00
-2.316379e+00
-2.866494e+00
-3.449109e+00
-4.065956e+00
-4.714047e+00
-5.400426e+00
-6.123413e+00
-6.886398e+00
-7.686963e+00
-8.523283e+00
-9.394814e+00
-1.030093e+01
-1.124263e+01
-1.221853e+01
-1.322826e+01
-1.427156e+01
-1.535258e+01
-1.647638e+01
-1.763389e+01
-1.880737e+01
-1.998348e+01
-2.115086e+01
-2.229783e+01
-2.341397e+01
-2.449258e+01
-2.553465e+01
-2.655427e+01
0.000000e+00
-2.748298e-01
-5.806176e-01
-9.737762e-01
-1.407798e+00
-1.883256e+00
-2.400613e+00
-2.949046e+00
-3.533171e+00
-4.148749e+00
-4.798035e+00
-5.484052e+00
-6.207114e+00
-6.969823e+00
-7.769545e+00
-8.605578e+00
-9.476471e+00
-1.038223e+01
-1.132312e+01
-1.229847e+01
-1.330760e+01
-1.435148e+01