TITLE = "Solution"
VARIABLES = x, y, u, v, psiu, psiv, t, stress
ZONE T="structure" N=561 E=512 F=FEBLOCK ET=QUADRILATERAL VARLOCATION=([7,8]=cellcentered)
0.000000e+00
6.250000e+00
1.250000e+01
1.875000e+01
2.500000e+01
3.125000e+01
3.750000e+01
4.375000e+01
5.000000e+01
5.625000e+01
6.250000e+01
6.875000e+01
7.500000e+01
8.125000e+01
8.750000e+01
9.375000e+01
1.000000e+02
1.062500e+02
1.125000e+02
1.187500e+02
1.250000e+02
1.312500e+02
1.375000e+02
1.437500e+02
1.500000e+02
1.562500e+02
1.625000e+02
1.687500e+02
1.750000e+02
1.812500e+02
1.875000e+02
1.937500e+02
2.000000e+02
0.000000e+00
6.250000e+00
1.250000e+01
1.875000e+01
2.500000e+01
3.125000e+01
3.750000e+01
4.375000e+01
5.000000e+01
5.625000e+01
6.250000e+01
6.875000e+01
7.500000e+01
8.125000e+01
8.750000e+01
9.375000e+01
1.000000e+02
1.062500e+02
1.125000e+02
1.187500e+02
1.250000e+02
1.312500e+02
1.375000e+02
1.437500e+02
1.500000e+02
1.562500e+02
1.625000e+02
1.687500e+02
1.750000e+02
1.812500e+02
1.875000e+02
1.937500e+02
2.000000e+02
0.000000e+00
6.250000e+00
1.250000e+01
1.875000e+01
2.500000e+01
3.125000e+01
3.750000e+01
4.375000e+01
5.000000e+01
5.625000e+01
6.250000e+01
6.875000e+01
7.500000e+01
8.125000e+01
8.750000e+01
9.375000e+01
1.000000e+02
1.062500e+02
1.125000e+02
1.187500e+02
1.250000e+02
1.312500e+02
1.375000e+02
1.437500e+02
1.500000e+02
1.562500e+02
1.625000e+02
1.687500e+02
1.750000e+02
1.812500e+02
1.875000e+02
1.937500e+02
2.000000e+02
0.000000e+00
6.250000e+00
1.250000e+01
1.875000e+01
2.500000e+01
3.125000e+01
3.750000e+01
4.375000e+01
5.000000e+01
5.625000e+01
6.250000e+01
6.875000e+01
7.500000e+01
8.125000e+01
8.750000e+01
9.375000e+01
1.000000e+02
1.062500e+02
1.125000e+02
1.187500e+02
1.250000e+02
1.312500e+02
1.375000e+02
1.437500e+02
1.500000e+02
1.562500e+02
1.625000e+02
1.687500e+02
1.750000e+02
1.812500e+02
1.875000e+02
1.937500e+02
2.000000e+02
0.000000e+00
6.250000e+00
1.250000e+01
1.875000e+01
2.500000e+01
3.125000e+01
3.750000e+01
4.375000e+01
5.000000e+01
5.625000e+01
6.250000e+01
6.875000e+01
7.500000e+01
8.125000e+01
8.750000e+01
9.375000e+01
1.000000e+02
1.062500e+02
1.125000e+02
1.187500e+02
1.250000e+02
1.312500e+02
1.375000e+02
1.437500e+02
1.500000e+02
1.562500e+02
1.625000e+02
1.687500e+02
1.750000e+02
1.812500e+02
1.875000e+02
1.937500e+02
2.000000e+02
0.000000e+00
6.250000e+00
1.250000e+01
1.875000e+01
2.500000e+01
3.125000e+01
3.750000e+01
4.375000e+01
5.000000e+01
5.625000e+01
6.250000e+01
6.875000e+01
7.500000e+01
8.125000e+01
8.750000e+01
9.375000e+01
1.000000e+02
1.062500e+02
1.125000e+02
1.187500e+02
1.250000e+02
1.312500e+02
1.375000e+02
1.437500e+02
1.500000e+02
1.562500e+02
1.625000e+02
1.687500e+02
1.750000e+02
1.812500e+02
1.875000e+02
1.937500e+02
2.000000e+02
0.000000e+00
6.250000e+00
1.250000e+01
1.875000e+01
2.500000e+01
3.125000e+01
3.750000e+01
4.375000e+01
5.000000e+01
5.625000e+01
6.250000e+01
6.875000e+01
7.500000e+01
8.125000e+01
8.750000e+01
9.375000e+01
1.000000e+02
1.062500e+02
1.125000e+02
1.187500e+02
1.250000e+02
1.312500e+02
1.375000e+02
1.437500e+02
1.500000e+02
1.562500e+02
1.625000e+02
1.687500e+02
1.750000e+02
1.812500e+02
1.875000e+02
1.937500e+02
2.000000e+02
0.000000e+00
6.250000e+00
1.250000e+01
1.875000e+01
2.500000e+01
3.125000e+01
3.750000e+01
4.375000e+01
5.000000e+01
5.625000e+01
6.250000e+01
6.875000e+01
7.500000e+01
8.125000e+01
8.750000e+01
9.375000e+01
1.000000e+02
1.062500e+02
1.125000e+02
1.187500e+02
1.250000e+02
1.312500e+02
1.375000e+02
1.437500e+02
1.500000e+02
1.562500e+02
1.625000e+02
1.687500e+02
1.750000e+02
1.812500e+02
1.875000e+02
1.937500e+02
2.000000e+02
0.000000e+00
6.250000e+00
1.250000e+01
1.875000e+01
2.500000e+01
3.125000e+01
3.750000e+01
4.375000e+01
5.000000e+01
5.625000e+01
6.250000e+01
6.875000e+01
7.500000e+01
8.125000e+01
8.750000e+01
9.375000e+01
1.000000e+02
1.062500e+02
1.125000e+02
1.187500e+02
1.250000e+02
1.312500e+02
1.375000e+02
1.437500e+02
1.500000e+02
1.562500e+02
1.625000e+02
1.687500e+02
1.750000e+02
1.812500e+02
1.875000e+02
1.937500e+02
2.000000e+02
0.000000e+00
6.250000e+00
1.250000e+01
1.875000e+01
2.500000e+01
3.125000e+01
3.750000e+01
4.375000e+01
5.000000e+01
5.625000e+01
6.250000e+01
6.875000e+01
7.500000e+01
8.125000e+01
8.750000e+01
9.375000e+01
1.000000e+02
1.062500e+02
1.125000e+02
1.187500e+02
1.250000e+02
1.312500e+02
1.375000e+02
1.437500e+02
1.500000e+02
1.562500e+02
1.625000e+02
1.687500e+02
1.750000e+02
1.812500e+02
1.875000e+02
1.937500e+02
2.000000e+02
0.000000e+00
6.250000e+00
1.250000e+01
1.875000e+01
2.500000e+01
3.125000e+01
3.750000e+01
4.375000e+01
5.000000e+01
5.625000e+01
6.250000e+01
6.875000e+01
7.500000e+01
8.125000e+01
8.750000e+01
9.375000e+01
1.000000e+02
1.062500e+02
1.125000e+02
1.187500e+02
1.250000e+02
1.312500e+02
1.375000e+02
1.437500e+02
1.500000e+02
1.562500e+02
1.625000e+02
1.687500e+02
1.750000e+02
1.812500e+02
1.875000e+02
1.937500e+02
2.000000e+02
0.000000e+00
6.250000e+00
1.250000e+01
1.875000e+01
2.500000e+01
3.125000e+01
3.750000e+01
4.375000e+01
5.000000e+01
5.625000e+01
6.250000e+01
6.875000e+01
7.500000e+01
8.125000e+01
8.750000e+01
9.375000e+01
1.000000e+02
1.062500e+02
1.125000e+02
1.187500e+02
1.250000e+02
1.312500e+02
1.375000e+02
1.437500e+02
1.500000e+02
1.562500e+02
1.625000e+02
1.687500e+02
1.750000e+02
1.812500e+02
1.875000e+02
1.937500e+02
2.000000e+02
0.000000e+00
6.250000e+00
1.250000e+01
1.875000e+01
2.500000e+01
3.125000e+01
3.750000e+01
4.375000e+01
5.000000e+01
5.625000e+01
6.250000e+01
6.875000e+01
7.500000e+01
8.125000e+01
8.750000e+01
9.375000e+01
1.000000e+02
1.062500e+02
1.125000e+02
1.187500e+02
1.250000e+02
1.312500e+02
1.375000e+02
1.437500e+02
1.500000e+02
1.562500e+02
1.625000e+02
1.687500e+02
1.750000e+02
1.812500e+02
1.875000e+02
1.937500e+02
2.000000e+02
0.000000e+00
6.250000e+00
1.250000e+01
1.875000e+01
2.500000e+01
3.125000e+01
3.750000e+01
4.375000e+01
5.000000e+01
5.625000e+01
6.250000e+01
6.875000e+01
7.500000e+01
8.125000e+01
8.750000e+01
9.375000e+01
1.000000e+02
1.062500e+02
1.125000e+02
1.187500e+02
1.250000e+02
1.312500e+02
1.375000e+02
1.437500e+02
1.500000e+02
1.562500e+02
1.625000e+02
1.687500e+02
1.750000e+02
1.812500e+02
1.875000e+02
1.937500e+02
2.000000e+02
0.000000e+00
6.250000e+00
1.250000e+01
1.875000e+01
2.500000e+01
3.125000e+01
3.750000e+01
4.375000e+01
5.000000e+01
5.625000e+01
6.250000e+01
6.875000e+01
7.500000e+01
8.125000e+01
8.750000e+01
9.375000e+01
1.000000e+02
1.062500e+02
1.125000e+02
1.187500e+02
1.250000e+02
1.312500e+02
1.375000e+02
1.437500e+02
1.500000e+02
1.562500e+02
1.625000e+02
1.687500e+02
1.750000e+02
1.812500e+02
1.875000e+02
1.937500e+02
2.000000e+02
0.000000e+00
6.250000e+00
1.250000e+01
1.875000e+01
2.500000e+01
3.125000e+01
3.750000e+01
4.375000e+01
5.000000e+01
5.625000e+01
6.250000e+01
6.875000e+01
7.500000e+01
8.125000e+01
8.750000e+01
9.375000e+01
1.000000e+02
1.062500e+02
1.125000e+02
1.187500e+02
1.250000e+02
1.312500e+02
1.375000e+02
1.437500e+02
1.500000e+02
1.562500e+02
1.625000e+02
1.687500e+02
1.750000e+02
1.812500e+02
1.875000e+02
1.937500e+02
2.000000e+02
0.000000e+00
6.250000e+00
1.250000e+01
1.875000e+01
2.500000e+01
3.125000e+01
3.750000e+01
4.375000e+01
5.000000e+01
5.625000e+01
6.250000e+01
6.875000e+01
7.500000e+01
8.125000e+01
8.750000e+01
9.375000e+01
1.000000e+02
1.062500e+02
1.125000e+02
1.187500e+02
1.250000e+02
1.312500e+02
1.375000e+02
1.437500e+02
1.500000e+02
1.562500e+02
1.625000e+02
1.687500e+02
1.750000e+02
1.812500e+02
1.875000e+02
1.937500e+02
2.000000e+02
0.000000e+00
0.000000e+00
0.000000e+00
0.000000e+00
0.000000e+00
0.000000e+00
0.000000e+00
0.000000e+00
0.000000e+00
0.000000e+00
0.000000e+00
0.000000e+00
0.000000e+00
0.000000e+00
0.000000e+00
0.000000e+00
0.000000e+00
0.000000e+00
0.000000e+00
0.000000e+00
0.000000e+00
0.000000e+00
0.000000e+00
0.000000e+00
0.000000e+00
0.000000e+00
0.000000e+00
0.000000e+00
0.000000e+00
0.000000e+00
0.000000e+00
0.000000e+00
0.000000e+00
6.250000e+00
6.250000e+00
6.250000e+00
6.250000e+00
6.250000e+00
6.250000e+00
6.250000e+00
6.250000e+00
6.250000e+00
6.250000e+00
6.250000e+00
6.250000e+00
6.250000e+00
6.250000e+00
6.250000e+00
6.250000e+00
6.250000e+00
6.250000e+00
6.250000e+00
6.250000e+00
6.250000e+00
6.250000e+00
6.250000e+00
6.250000e+00
6.250000e+00
6.250000e+00
6.250000e+00
6.250000e+00
6.250000e+00
6.250000e+00
6.250000e+00
6.250000e+00
6.250000e+00
1.250000e+01
1.250000e+01
1.250000e+01
1.250000e+01
1.250000e+01
1.250000e+01
1.250000e+01
1.250000e+01
1.250000e+01
1.250000e+01
1.250000e+01
1.250000e+01
1.250000e+01
1.250000e+01
1.250000e+01
1.250000e+01
1.250000e+01
1.250000e+01
1.250000e+01
1.250000e+01
1.250000e+01
1.250000e+01
1.250000e+01
1.250000e+01
1.250000e+01
1.250000e+01
1.250000e+01
1.250000e+01
1.250000e+01
1.250000e+01
1.250000e+01
1.250000e+01
1.250000e+01
1.875000e+01
1.875000e+01
1.875000e+01
1.875000e+01
1.875000e+01
1.875000e+01
1.875000e+01
1.875000e+01
1.875000e+01
1.875000e+01
1.875000e+01
1.875000e+01
1.875000e+01
1.875000e+01
1.875000e+01
1.875000e+01
1.875000e+01
1.875000e+01
1.875000e+01
1.875000e+01
1.875000e+01
1.875000e+01
1.875000e+01
1.875000e+01
1.875000e+01
1.875000e+01
1.875000e+01
1.875000e+01
1.875000e+01
1.875000e+01
1.875000e+01
1.875000e+01
1.875000e+01
2.500000e+01
2.500000e+01
2.500000e+01
2.500000e+01
2.500000e+01
2.500000e+01
2.500000e+01
2.500000e+01
2.500000e+01
2.500000e+01
2.500000e+01
2.500000e+01
2.500000e+01
2.500000e+01
2.500000e+01
2.500000e+01
2.500000e+01
2.500000e+01
2.500000e+01
2.500000e+01
2.500000e+01
2.500000e+01
2.500000e+01
2.500000e+01
2.500000e+01
2.500000e+01
2.500000e+01
2.500000e+01
2.500000e+01
2.500000e+01
2.500000e+01
2.500000e+01
2.500000e+01
3.125000e+01
3.125000e+01
3.125000e+01
3.125000e+01
3.125000e+01
3.125000e+01
3.125000e+01
3.125000e+01
3.125000e+01
3.125000e+01
3.125000e+01
3.125000e+01
3.125000e+01
3.125000e+01
3.125000e+01
3.125000e+01
3.125000e+01
3.125000e+01
3.125000e+01
3.125000e+01
3.125000e+01
3.125000e+01
3.125000e+01
3.125000e+01
3.125000e+01
3.125000e+01
3.125000e+01
3.125000e+01
3.125000e+01
3.125000e+01
3.125000e+01
3.125000e+01
3.125000e+01
3.750000e+01
3.750000e+01
3.750000e+01
3.750000e+01
3.750000e+01
3.750000e+01
3.750000e+01
3.750000e+01
3.750000e+01
3.750000e+01
3.750000e+01
3.750000e+01
3.750000e+01
3.750000e+01
3.750000e+01
3.750000e+01
3.750000e+01
3.750000e+01
3.750000e+01
3.750000e+01
3.750000e+01
3.750000e+01
3.750000e+01
3.750000e+01
3.750000e+01
3.750000e+01
3.750000e+01
3.750000e+01
3.750000e+01
3.750000e+01
3.750000e+01
3.750000e+01
3.750000e+01
4.375000e+01
4.375000e+01
4.375000e+01
4.375000e+01
4.375000e+01
4.375000e+01
4.375000e+01
4.375000e+01
4.375000e+01
4.375000e+01
4.375000e+01
4.375000e+01
4.375000e+01
4.375000e+01
4.375000e+01
4.375000e+01
4.375000e+01
4.375000e+01
4.375000e+01
4.375000e+01
4.375000e+01
4.375000e+01
4.375000e+01
4.375000e+01
4.375000e+01
4.375000e+01
4.375000e+01
4.375000e+01
4.375000e+01
4.375000e+01
4.375000e+01
4.375000e+01
4.375000e+01
5.000000e+01
5.000000e+01
5.000000e+01
5.000000e+01
5.000000e+01
5.000000e+01
5.000000e+01
5.000000e+01
5.000000e+01
5.000000e+01
5.000000e+01
5.000000e+01
5.000000e+01
5.000000e+01
5.000000e+01
5.000000e+01
5.000000e+01
5.000000e+01
5.000000e+01
5.000000e+01
5.000000e+01
5.000000e+01
5.000000e+01
5.000000e+01
5.000000e+01
5.000000e+01
5.000000e+01
5.000000e+01
5.000000e+01
5.000000e+01
5.000000e+01
5.000000e+01
5.000000e+01
5.625000e+01
5.625000e+01
5.625000e+01
5.625000e+01
5.625000e+01
5.625000e+01
5.625000e+01
5.625000e+01
5.625000e+01
5.625000e+01
5.625000e+01
5.625000e+01
5.625000e+01
5.625000e+01
5.625000e+01
5.625000e+01
5.625000e+01
5.625000e+01
5.625000e+01
5.625000e+01
5.625000e+01
5.625000e+01
5.625000e+01
5.625000e+01
5.625000e+01
5.625000e+01
5.625000e+01
5.625000e+01
5.625000e+01
5.625000e+01
5.625000e+01
5.625000e+01
5.625000e+01
6.250000e+01
6.250000e+01
6.250000e+01
6.250000e+01
6.250000e+01
6.250000e+01
6.250000e+01
6.250000e+01
6.250000e+01
6.250000e+01
6.250000e+01
6.250000e+01
6.250000e+01
6.250000e+01
6.250000e+01
6.250000e+01
6.250000e+01
6.250000e+01
6.250000e+01
6.250000e+01
6.250000e+01
6.250000e+01
6.250000e+01
6.250000e+01
6.250000e+01
6.250000e+01
6.250000e+01
6.250000e+01
6.250000e+01
6.250000e+01
6.250000e+01
6.250000e+01
6.250000e+01
6.875000e+01
6.875000e+01
6.875000e+01
6.875000e+01
6.875000e+01
6.875000e+01
6.875000e+01
6.875000e+01
6.875000e+01
6.875000e+01
6.875000e+01
6.875000e+01
6.875000e+01
6.875000e+01
6.875000e+01
6.875000e+01
6.875000e+01
6.875000e+01
6.875000e+01
6.875000e+01
6.875000e+01
6.875000e+01
6.875000e+01
6.875000e+01
6.875000e+01
6.875000e+01
6.875000e+01
6.875000e+01
6.875000e+01
6.875000e+01
6.875000e+01
6.875000e+01
6.875000e+01
7.500000e+01
7.500000e+01
7.500000e+01
7.500000e+01
7.500000e+01
7.500000e+01
7.500000e+01
7.500000e+01
7.500000e+01
7.500000e+01
7.500000e+01
7.500000e+01
7.500000e+01
7.500000e+01
7.500000e+01
7.500000e+01
7.500000e+01
7.500000e+01
7.500000e+01
7.500000e+01
7.500000e+01
7.500000e+01
7.500000e+01
7.500000e+01
7.500000e+01
7.500000e+01
7.500000e+01
7.500000e+01
7.500000e+01
7.500000e+01
7.500000e+01
7.500000e+01
7.500000e+01
8.125000e+01
8.125000e+01
8.125000e+01
8.125000e+01
8.125000e+01
8.125000e+01
8.125000e+01
8.125000e+01
8.125000e+01
8.125000e+01
8.125000e+01
8.125000e+01
8.125000e+01
8.125000e+01
8.125000e+01
8.125000e+01
8.125000e+01
8.125000e+01
8.125000e+01
8.125000e+01
8.125000e+01
8.125000e+01
8.125000e+01
8.125000e+01
8.125000e+01
8.125000e+01
8.125000e+01
8.125000e+01
8.125000e+01
8.125000e+01
8.125000e+01
8.125000e+01
8.125000e+01
8.750000e+01
8.750000e+01
8.750000e+01
8.750000e+01
8.750000e+01
8.750000e+01
8.750000e+01
8.750000e+01
8.750000e+01
8.750000e+01
8.750000e+01
8.750000e+01
8.750000e+01
8.750000e+01
8.750000e+01
8.750000e+01
8.750000e+01
8.750000e+01
8.750000e+01
8.750000e+01
8.750000e+01
8.750000e+01
8.750000e+01
8.750000e+01
8.750000e+01
8.750000e+01
8.750000e+01
8.750000e+01
8.750000e+01
8.750000e+01
8.750000e+01
8.750000e+01
8.750000e+01
9.375000e+01
9.375000e+01
9.375000e+01
9.375000e+01
9.375000e+01
9.375000e+01
9.375000e+01
9.375000e+01
9.375000e+01
9.375000e+01
9.375000e+01
9.375000e+01
9.375000e+01
9.375000e+01
9.375000e+01
9.375000e+01
9.375000e+01
9.375000e+01
9.375000e+01
9.375000e+01
9.375000e+01
9.375000e+01
9.375000e+01
9.375000e+01
9.375000e+01
9.375000e+01
9.375000e+01
9.375000e+01
9.375000e+01
9.375000e+01
9.375000e+01
9.375000e+01
9.375000e+01
1.000000e+02
1.000000e+02
1.000000e+02
1.000000e+02
1.000000e+02
1.000000e+02
1.000000e+02
1.000000e+02
1.000000e+02
1.000000e+02
1.000000e+02
1.000000e+02
1.000000e+02
1.000000e+02
1.000000e+02
1.000000e+02
1.000000e+02
1.000000e+02
1.000000e+02
1.000000e+02
1.000000e+02
1.000000e+02
1.000000e+02
1.000000e+02
1.000000e+02
1.000000e+02
1.000000e+02
1.000000e+02
1.000000e+02
1.000000e+02
1.000000e+02
1.000000e+02
1.000000e+02
0.000000e+00
-4.723347e-01
-7.827955e-01
-1.122819e+00
-1.424409e+00
-1.716367e+00
-2.028294e+00
-2.315620e+00
-2.615226e+00
-2.908823e+00
-3.205837e+00
-3.505055e+00
-3.804463e+00
-4.104072e+00
-4.404095e+00
-4.705124e+00
-5.007792e+00
-5.311273e+00
-5.613914e+00
-5.916404e+00
-6.218561e+00
-6.520419e+00
-6.822692e+00
-7.120036e+00
-7.413261e+00
-7.718194e+00
-8.017380e+00
-8.348532e+00
-8.667416e+00
-9.020648e+00
-9.509929e+00
-9.926352e+00
-1.013044e+01
0.000000e+00
-2.335322e-01
-4.702332e-01
-7.357517e-01
-1.001724e+00
-1.254467e+00
-1.524362e+00
-1.784646e+00
-2.047159e+00
-2.312166e+00
-2.572659e+00
-2.837780e+00
-3.098175e+00
-3.362077e+00
-3.623427e+00
-3.885707e+00
-4.148232e+00
-4.408767e+00
-4.671790e+00
-4.931729e+00
-5.194163e+00
-5.454359e+00
-5.715921e+00
-5.976145e+00
-6.237326e+00
-6.498413e+00
-6.757854e+00
-7.022080e+00
-7.276345e+00
-7.533163e+00
-7.787709e+00
-7.888891e+00
-7.994709e+00
0.000000e+00
-1.027637e-01
-2.376582e-01
-4.341722e-01
-6.529411e-01
-8.602276e-01
-1.086002e+00
-1.313611e+00
-1.540985e+00
-1.772701e+00
-1.996685e+00
-2.223800e+00
-2.445938e+00
-2.671191e+00
-2.894900e+00
-3.117534e+00
-3.339911e+00
-3.560131e+00
-3.783677e+00
-4.005774e+00
-4.230751e+00
-4.454029e+00
-4.678474e+00
-4.907757e+00
-5.137879e+00
-5.360849e+00
-5.573113e+00
-5.770430e+00
-5.949962e+00
-6.098917e+00
-6.186638e+00
-6.192284e+00
-6.285167e+00
0.000000e+00
-1.024625e-01
-1.858819e-01
-3.413804e-01
-4.643811e-01
-6.189470e-01
-7.959534e-01
-9.656240e-01
-1.159109e+00
-1.336756e+00
-1.521758e+00
-1.704356e+00
-1.886052e+00
-2.071931e+00
-2.255981e+00
-2.441517e+00
-2.626293e+00
-2.812969e+00
-3.002697e+00
-3.194108e+00
-3.388236e+00
-3.581824e+00
-3.776459e+00
-3.971791e+00
-4.157828e+00
-4.331803e+00
-4.481068e+00
-4.613339e+00
-4.714170e+00
-4.777672e+00
-4.792809e+00
-4.810183e+00
-4.890621e+00
0.000000e+00
-9.306729e-02
-1.846644e-01
-2.756652e-01
-3.892560e-01
-5.049615e-01
-6.372049e-01
-7.716023e-01
-9.166780e-01
-1.057657e+00
-1.203895e+00
-1.349222e+00
-1.492626e+00
-1.642167e+00
-1.785134e+00
-1.935317e+00
-2.080883e+00
-2.230186e+00
-2.379915e+00
-2.528417e+00
-2.679158e+00
-2.825363e+00
-2.970133e+00
-3.107570e+00
-3.236018e+00
-3.350077e+00
-3.447021e+00
-3.520987e+00
-3.569537e+00
-3.594006e+00
-3.597433e+00
-3.627168e+00
-3.698520e+00
0.000000e+00
-7.446498e-02
-1.459668e-01
-2.210006e-01
-3.024888e-01
-3.920830e-01
-4.868856e-01
-5.881651e-01
-6.919251e-01
-7.997997e-01
-9.072480e-01
-1.016062e+00
-1.124817e+00
-1.232827e+00
-1.342254e+00
-1.450245e+00
-1.559565e+00
-1.667591e+00
-1.775397e+00
-1.882002e+00
-1.985990e+00
-2.087022e+00
-2.181922e+00
-2.269603e+00
-2.347238e+00
-2.412914e+00
-2.464265e+00
-2.499116e+00
-2.521727e+00
-2.522144e+00
-2.517373e+00
-2.543780e+00
-2.609613e+00
0.000000e+00
-5.130050e-02
-1.020488e-01
-1.539213e-01
-2.094100e-01
-2.687924e-01
-3.322272e-01
-3.986529e-01
-4.678904e-01
-5.385854e-01
-6.102848e-01
-6.820564e-01
-7.536129e-01
-8.249595e-01
-8.957796e-01
-9.664272e-01
-1.036242e+00
-1.105199e+00
-1.172600e+00
-1.237876e+00
-1.300183e+00
-1.358111e+00
-1.410295e+00
-1.454855e+00
-1.490838e+00
-1.515987e+00
-1.530025e+00
-1.535591e+00
-1.519203e+00
-1.489160e+00
-1.477830e+00
-1.501073e+00
-1.565298e+00
0.000000e+00
-2.704464e-02
-5.393639e-02
-8.140625e-02
-1.101660e-01
-1.406648e-01
-1.727787e-01
-2.063639e-01
-2.410008e-01
-2.763622e-01
-3.118918e-01
-3.472307e-01
-3.820867e-01
-4.162940e-01
-4.498364e-01
-4.825332e-01
-5.141906e-01
-5.443656e-01
-5.727170e-01
-5.987218e-01
-6.217059e-01
-6.408560e-01
-6.549044e-01
-6.628935e-01
-6.632137e-01
-6.566686e-01
-6.408596e-01
-6.022915e-01
-5.525368e-01
-5.009352e-01
-4.738333e-01
-4.969269e-01
-5.639025e-01
0.000000e+00
-1.999703e-03
-4.047780e-03
-6.057948e-03
-7.915718e-03
-9.493881e-03
-1.073017e-02
-1.163462e-02
-1.226321e-02
-1.259420e-02
-1.251720e-02
-1.187080e-02
-1.050716e-02
-8.262459e-03
-4.895709e-03
-3.170577e-04
5.723158e-03
1.367501e-02
2.359165e-02
3.535046e-02
4.960219e-02
6.656546e-02
8.583639e-02
1.102737e-01
1.407555e-01
1.821904e-01
2.427537e-01
3.151988e-01
3.886697e-01
4.396228e-01
4.553269e-01
4.228894e-01
3.427572e-01
0.000000e+00
2.319687e-02
4.616459e-02
6.977944e-02
9.500486e-02
1.225532e-01
1.524644e-01
1.844731e-01
2.180205e-01
2.526638e-01
2.880480e-01
3.240484e-01
3.606336e-01
3.982906e-01
4.375609e-01
4.787931e-01
5.225044e-01
5.683493e-01
6.162694e-01
6.656822e-01
7.153954e-01
7.666047e-01
8.221899e-01
8.816560e-01
9.491749e-01
1.032408e+00
1.122366e+00
1.214080e+00
1.288581e+00
1.332423e+00
1.329261e+00
1.283119e+00
1.220228e+00
0.000000e+00
4.786054e-02
9.518445e-02
1.437321e-01
1.962187e-01
2.533831e-01
3.153713e-01
3.810589e-01
4.496749e-01
5.198701e-01
5.908030e-01
6.615747e-01
7.323153e-01
8.037976e-01
8.772192e-01
9.544298e-01
1.035707e+00
1.119669e+00
1.205291e+00
1.291995e+00
1.381828e+00
1.471240e+00
1.563393e+00
1.666425e+00
1.775123e+00
1.885916e+00
1.995442e+00
2.084189e+00
2.148118e+00
2.174575e+00
2.166955e+00
2.137052e+00
2.092934e+00
0.000000e+00
7.147458e-02
1.402624e-01
2.129831e-01
2.926104e-01
3.812191e-01
4.764206e-01
5.776985e-01
6.821301e-01
7.900064e-01
8.981834e-01
1.006846e+00
1.114871e+00
1.223498e+00
1.333007e+00
1.443178e+00
1.557099e+00
1.674461e+00
1.794252e+00
1.917368e+00
2.045954e+00
2.182417e+00
2.324541e+00
2.466831e+00
2.605074e+00
2.734329e+00
2.846600e+00
2.935509e+00
2.990958e+00
3.018898e+00
3.022389e+00
3.004365e+00
2.976832e+00
0.000000e+00
9.025762e-02
1.792881e-01
2.693871e-01
3.836944e-01
5.028578e-01
6.354572e-01
7.729493e-01
9.168515e-01
1.059884e+00
1.206795e+00
1.353154e+00
1.500337e+00
1.651606e+00
1.802329e+00
1.957447e+00
2.112451e+00
2.272518e+00
2.438353e+00
2.604910e+00
2.774075e+00
2.946175e+00
3.116298e+00
3.280934e+00
3.433935e+00
3.575111e+00
3.696092e+00
3.786854e+00
3.853343e+00
3.892496e+00
3.905410e+00
3.898884e+00
3.884374e+00
0.000000e+00
9.864716e-02
1.795097e-01
3.322887e-01
4.600637e-01
6.233691e-01
8.054165e-01
9.748362e-01
1.168553e+00
1.345505e+00
1.528086e+00
1.708081e+00
1.890891e+00
2.080573e+00
2.274675e+00
2.476498e+00
2.680595e+00
2.886074e+00
3.096333e+00
3.309637e+00
3.520003e+00
3.724869e+00
3.921044e+00
4.105710e+00
4.280415e+00
4.437793e+00
4.573031e+00
4.679943e+00
4.756492e+00
4.804261e+00
4.826455e+00
4.829263e+00
4.824525e+00
0.000000e+00
1.004135e-01
2.310758e-01
4.195511e-01
6.368501e-01
8.474531e-01
1.078805e+00
1.310023e+00
1.540073e+00
1.774642e+00
1.998127e+00
2.223929e+00
2.445654e+00
2.672268e+00
2.900056e+00
3.131614e+00
3.365890e+00
3.597139e+00
3.828576e+00
4.061072e+00
4.295391e+00
4.524270e+00
4.744668e+00
4.965937e+00
5.177063e+00
5.363635e+00
5.513200e+00
5.627877e+00
5.710349e+00
5.763220e+00
5.790911e+00
5.799962e+00
5.801072e+00
0.000000e+00
2.337730e-01
4.715097e-01
7.363546e-01
1.001650e+00
1.253895e+00
1.523053e+00
1.783740e+00
2.045641e+00
2.310318e+00
2.570229e+00
2.834444e+00
3.093784e+00
3.355830e+00
3.615608e+00
3.875242e+00
4.135310e+00
4.392667e+00
4.650541e+00
4.904381e+00
5.159805e+00
5.413107e+00
5.666356e+00
5.924959e+00
6.169119e+00
6.369991e+00
6.527474e+00
6.644267e+00
6.724451e+00
6.773648e+00
6.798786e+00
6.807891e+00
6.810128e+00
0.000000e+00
4.735064e-01
7.901642e-01
1.135566e+00
1.440079e+00
1.729716e+00
2.037746e+00
2.322454e+00
2.618978e+00
2.910011e+00
3.205798e+00
3.505359e+00
3.802891e+00
4.100280e+00
4.393934e+00
4.684975e+00
4.972262e+00
5.261329e+00
5.551860e+00
5.839770e+00
6.127490e+00
6.415422e+00
6.707321e+00
7.000138e+00
7.265818e+00
7.476635e+00
7.634776e+00
7.743634e+00
7.808486e+00
7.837600e+00
7.842693e+00
7.838075e+00
7.835522e+00
0.000000e+00
-2.792545e-01
-5.897432e-01
-9.868233e-01
-1.419299e+00
-1.889144e+00
-2.399614e+00
-2.940728e+00
-3.517342e+00
-4.125344e+00
-4.767213e+00
-5.445117e+00
-6.159504e+00
-6.912077e+00
-7.701399e+00
-8.529268e+00
-9.395513e+00
-1.030202e+01
-1.124857e+01
-1.223476e+01
-1.326105e+01
-1.432706e+01
-1.543446e+01
-1.658163e+01
-1.776626e+01
-1.898995e+01
-2.025707e+01
-2.157821e+01
-2.295992e+01
-2.442266e+01
-2.598346e+01
-2.779146e+01
-3.032867e+01
0.000000e+00
-1.802150e-01
-5.092940e-01
-8.990699e-01
-1.338380e+00
-1.804703e+00
-2.315055e+00
-2.858311e+00
-3.433138e+00
-4.042233e+00
-4.683045e+00
-5.361274e+00
-6.075394e+00
-6.828196e+00
-7.617528e+00
-8.445089e+00
-9.311459e+00
-1.021763e+01
-1.116459e+01
-1.215057e+01
-1.317703e+01
-1.424270e+01
-1.535020e+01
-1.649818e+01
-1.768255e+01
-1.890576e+01
-2.017134e+01
-2.149084e+01
-2.287413e+01
-2.432775e+01
-2.590786e+01
-2.770309e+01
-2.995390e+01
0.000000e+00
-1.593284e-01
-4.501712e-01
-8.425977e-01
-1.271820e+00
-1.735812e+00
-2.244147e+00
-2.785195e+00
-3.361410e+00
-3.969281e+00
-4.611243e+00
-5.289592e+00
-6.003859e+00
-6.756750e+00
-7.546690e+00
-8.374358e+00
-9.241278e+00
-1.014712e+01
-1.109398e+01
-1.207983e+01
-1.310608e+01
-1.417145e+01
-1.527735e+01
-1.642470e+01
-1.761008e+01
-1.883614e+01
-2.010358e+01
-2.142822e+01
-2.281527e+01
-2.428934e+01
-2.591241e+01
-2.759702e+01
-2.934529e+01
0.000000e+00
-2.047760e-01
-4.502223e-01
-8.392503e-01
-1.237193e+00
-1.690127e+00
-2.196939e+00
-2.724859e+00
-3.307655e+00
-3.909632e+00
-4.554741e+00
-5.233386e+00
-5.945903e+00
-6.701546e+00
-7.489132e+00
-8.319818e+00
-9.185297e+00
-1.009151e+01
-1.103802e+01
-1.202255e+01
-1.304979e+01
-1.411380e+01
-1.521884e+01
-1.636591e+01
-1.755372e+01
-1.878604e+01
-2.005960e+01
-2.139142e+01
-2.278719e+01
-2.428093e+01
-2.589654e+01
-2.744629e+01
-2.884547e+01
0.000000e+00
-2.208621e-01
-4.890924e-01
-8.344075e-01
-1.235008e+00
-1.670579e+00
-2.167766e+00
-2.689943e+00
-3.267705e+00
-3.869628e+00
-4.513769e+00
-5.194266e+00
-5.905223e+00
-6.663537e+00
-7.449094e+00
-8.282034e+00
-9.146621e+00
-1.005294e+01
-1.099944e+01
-1.198291e+01
-1.301071e+01
-1.407445e+01
-1.518088e+01
-1.632871e+01
-1.752020e+01
-1.875586e+01
-2.003766e+01
-2.137296e+01
-2.277131e+01
-2.426101e+01
-2.579613e+01
-2.724534e+01
-2.851253e+01
0.000000e+00
-2.277733e-01
-5.055442e-01
-8.403833e-01
-1.228395e+00
-1.663738e+00
-2.146127e+00
-2.670813e+00
-3.237972e+00
-3.842862e+00
-4.485004e+00
-5.164709e+00
-5.879980e+00
-6.634048e+00
-7.424781e+00
-8.254120e+00
-9.121653e+00
-1.002782e+01
-1.097423e+01
-1.196013e+01
-1.298700e+01
-1.405408e+01
-1.516224e+01
-1.631280e+01
-1.750642e+01
-1.874399e+01
-2.002838e+01
-2.136306e+01
-2.275055e+01
-2.419998e+01
-2.564122e+01
-2.700930e+01
-2.821458e+01
0.000000e+00
-2.314646e-01
-5.117624e-01
-8.435851e-01
-1.226308e+00
-1.657622e+00
-2.135383e+00
-2.657316e+00
-3.221363e+00
-3.825214e+00
-4.467464e+00
-5.147117e+00
-5.863957e+00
-6.618073e+00
-7.409757e+00
-8.239478e+00
-9.107695e+00
-1.001517e+01
-1.096246e+01
-1.195019e+01
-1.297871e+01
-1.404827e+01
-1.515929e+01
-1.631198e+01
-1.750692e+01
-1.874475e+01
-2.002522e+01
-2.135660e+01
-2.271160e+01
-2.410978e+01
-2.548656e+01
-2.678695e+01
-2.792883e+01
0.000000e+00
-2.328646e-01
-5.140855e-01
-8.450203e-01
-1.225690e+00
-1.654855e+00
-2.130689e+00
-2.651133e+00
-3.214123e+00
-3.817717e+00
-4.460310e+00
-5.140804e+00
-5.858568e+00
-6.613515e+00
-7.405866e+00
-8.236222e+00
-9.105357e+00
-1.001397e+01
-1.096271e+01
-1.195213e+01
-1.298264e+01
-1.405450e+01
-1.516773e+01
-1.632236e+01
-1.751622e+01
-1.875395e+01
-2.002668e+01
-2.133897e+01
-2.265932e+01
-2.400386e+01
-2.533516e+01
-2.657884e+01
-2.766504e+01
0.000000e+00
-2.331544e-01
-5.146797e-01
-8.456423e-01
-1.226168e+00
-1.655268e+00
-2.131197e+00
-2.651905e+00
-3.215366e+00
-3.819733e+00
-4.463409e+00
-5.145096e+00
-5.863993e+00
-6.619890e+00
-7.412977e+00
-8.243929e+00
-9.114008e+00
-1.002387e+01
-1.097381e+01
-1.196463e+01
-1.299687e+01
-1.406999e+01
-1.518451e+01
-1.633991e+01
-1.753273e+01
-1.876500e+01
-2.002349e+01
-2.130648e+01
-2.260299e+01
-2.389632e+01
-2.516765e+01
-2.633610e+01
-2.732726e+01
0.000000e+00
-2.327009e-01
-5.141414e-01
-8.457759e-01
-1.227757e+00
-1.658805e+00
-2.136830e+00
-2.659535e+00
-3.224832e+00
-3.830960e+00
-4.476385e+00
-5.159634e+00
-5.879733e+00
-6.636747e+00
-7.430785e+00
-8.262079e+00
-9.133389e+00
-1.004454e+01
-1.099552e+01
-1.198639e+01
-1.302033e+01
-1.409318e+01
-1.520606e+01
-1.636334e+01
-1.754893e+01
-1.876909e+01
-2.001052e+01
-2.127044e+01
-2.253773e+01
-2.379436e+01
-2.499939e+01
-2.610062e+01
-2.705960e+01
0.000000e+00
-2.312295e-01
-5.119413e-01
-8.450802e-01
-1.230479e+00
-1.665745e+00
-2.148022e+00
-2.674424e+00
-3.242837e+00
-3.851466e+00
-4.499087e+00
-5.183878e+00
-5.904850e+00
-6.663282e+00
-7.458277e+00
-8.290721e+00
-9.163575e+00
-1.007583e+01
-1.102807e+01
-1.201771e+01
-1.305107e+01
-1.412183e+01
-1.523241e+01
-1.638326e+01
-1.756020e+01
-1.876485e+01
-1.999517e+01
-2.123270e+01
-2.247437e+01
-2.369003e+01
-2.484956e+01
-2.591877e+01
-2.686731e+01
0.000000e+00
-2.275939e-01
-5.060184e-01
-8.426522e-01
-1.234619e+00
-1.676764e+00
-2.165949e+00
-2.697301e+00
-3.270432e+00
-3.882002e+00
-4.531602e+00
-5.217628e+00
-5.938661e+00
-6.698242e+00
-7.494322e+00
-8.329546e+00
-9.203903e+00
-1.011733e+01
-1.106940e+01
-1.205832e+01
-1.308661e+01
-1.415376e+01
-1.525850e+01
-1.639895e+01
-1.756672e+01
-1.876185e+01
-1.998026e+01
-2.120502e+01
-2.241980e+01
-2.360627e+01
-2.473637e+01
-2.578958e+01
-2.674209e+01
0.000000e+00
-2.205965e-01
-4.899865e-01
-8.378801e-01
-1.243181e+00
-1.690687e+00
-2.194945e+00
-2.727464e+00
-3.310345e+00
-3.921996e+00
-4.574311e+00
-5.260795e+00
-5.981126e+00
-6.743681e+00
-7.539988e+00
-8.379087e+00
-9.254320e+00
-1.016678e+01
-1.111739e+01
-1.210297e+01
-1.312601e+01
-1.418765e+01
-1.528426e+01
-1.641505e+01
-1.757563e+01
-1.876722e+01
-1.997992e+01
-2.118999e+01
-2.238495e+01
-2.354612e+01
-2.465761e+01
-2.570384e+01
-2.667108e+01
0.000000e+00
-2.035010e-01
-4.510916e-01
-8.435440e-01
-1.250439e+00
-1.716787e+00
-2.234486e+00
-2.770543e+00
-3.360987e+00
-3.972125e+00
-4.624991e+00
-5.310951e+00
-6.033953e+00
-6.798423e+00
-7.598351e+00
-8.438709e+00
-9.314176e+00
-1.022485e+01
-1.117191e+01
-1.215347e+01
-1.317140e+01
-1.422575e+01
-1.531350e+01
-1.643695e+01
-1.759903e+01
-1.879077e+01
-1.999617e+01
-2.119125e+01
-2.236723e+01
-2.351003e+01
-2.460800e+01
-2.565284e+01
-2.664035e+01
0.000000e+00
-1.564926e-01
-4.489507e-01
-8.465279e-01
-1.288022e+00
-1.765964e+00
-2.286261e+00
-2.835687e+00
-3.420028e+00
-4.035339e+00
-4.684070e+00
-5.371011e+00
-6.095898e+00
-6.861315e+00
-7.664468e+00
-8.504614e+00
-9.379967e+00
-1.028874e+01
-1.123334e+01
-1.221224e+01
-1.322587e+01
-1.427356e+01
-1.535420e+01
-1.647866e+01
-1.764367e+01
-1.883255e+01
-2.002358e+01
-2.120527e+01
-2.236583e+01
-2.349440e+01
-2.458241e+01
-2.562728e+01
-2.663513e+01
0.000000e+00
-1.768396e-01
-5.070309e-01
-9.033596e-01
-1.355510e+00
-1.836241e+00
-2.358236e+00
-2.910679e+00
-3.493200e+00
-4.109134e+00
-4.756395e+00
-5.443319e+00
-6.168445e+00
-6.934320e+00
-7.737856e+00
-8.578176e+00
-9.452563e+00
-1.035968e+01
-1.130306e+01
-1.228051e+01
-1.329245e+01
-1.433690e+01
-1.541816e+01
-1.654398e+01
-1.770557e+01
-1.888192e+01
-2.005966e+01
-2.122829e+01
-2.237643e+01
-2.349388e+01
-2.457411e+01
-2.561809e+01
-2.663981e+01
0.000000e+00
-2.767090e-01
-5.886254e-01
-9.919584e-01
-1.436586e+00
-1.920077e+00
-2.442379e+00
-2.992881e+00
-3.577112e+00
-4.191952e+00
-4.840574e+00
-5.527137e+00
-6.252216e+00
-7.017670e+00
-7.820522e+00
-8.660355e+00
-9.533772e+00
-1.044099e+01
-1.138343e+01
-1.236036e+01
-1.337188e+01
-1.441647e+01