TITLE = "Solution"
VARIABLES = x, y, u, v, psiu, psiv, t, stress
ZONE T="structure" N=561 E=512 F=FEBLOCK ET=QUADRILATERAL VARLOCATION=([7,8]=cellcentered)
0.000000e+00
6.250000e+00
1.250000e+01
1.875000e+01
2.500000e+01
3.125000e+01
3.750000e+01
4.375000e+01
5.000000e+01
5.625000e+01
6.250000e+01
6.875000e+01
7.500000e+01
8.125000e+01
8.750000e+01
9.375000e+01
1.000000e+02
1.062500e+02
1.125000e+02
1.187500e+02
1.250000e+02
1.312500e+02
1.375000e+02
1.437500e+02
1.500000e+02
1.562500e+02
1.625000e+02
1.687500e+02
1.750000e+02
1.812500e+02
1.875000e+02
1.937500e+02
2.000000e+02
0.000000e+00
6.250000e+00
1.250000e+01
1.875000e+01
2.500000e+01
3.125000e+01
3.750000e+01
4.375000e+01
5.000000e+01
5.625000e+01
6.250000e+01
6.875000e+01
7.500000e+01
8.125000e+01
8.750000e+01
9.375000e+01
1.000000e+02
1.062500e+02
1.125000e+02
1.187500e+02
1.250000e+02
1.312500e+02
1.375000e+02
1.437500e+02
1.500000e+02
1.562500e+02
1.625000e+02
1.687500e+02
1.750000e+02
1.812500e+02
1.875000e+02
1.937500e+02
2.000000e+02
0.000000e+00
6.250000e+00
1.250000e+01
1.875000e+01
2.500000e+01
3.125000e+01
3.750000e+01
4.375000e+01
5.000000e+01
5.625000e+01
6.250000e+01
6.875000e+01
7.500000e+01
8.125000e+01
8.750000e+01
9.375000e+01
1.000000e+02
1.062500e+02
1.125000e+02
1.187500e+02
1.250000e+02
1.312500e+02
1.375000e+02
1.437500e+02
1.500000e+02
1.562500e+02
1.625000e+02
1.687500e+02
1.750000e+02
1.812500e+02
1.875000e+02
1.937500e+02
2.000000e+02
0.000000e+00
6.250000e+00
1.250000e+01
1.875000e+01
2.500000e+01
3.125000e+01
3.750000e+01
4.375000e+01
5.000000e+01
5.625000e+01
6.250000e+01
6.875000e+01
7.500000e+01
8.125000e+01
8.750000e+01
9.375000e+01
1.000000e+02
1.062500e+02
1.125000e+02
1.187500e+02
1.250000e+02
1.312500e+02
1.375000e+02
1.437500e+02
1.500000e+02
1.562500e+02
1.625000e+02
1.687500e+02
1.750000e+02
1.812500e+02
1.875000e+02
1.937500e+02
2.000000e+02
0.000000e+00
6.250000e+00
1.250000e+01
1.875000e+01
2.500000e+01
3.125000e+01
3.750000e+01
4.375000e+01
5.000000e+01
5.625000e+01
6.250000e+01
6.875000e+01
7.500000e+01
8.125000e+01
8.750000e+01
9.375000e+01
1.000000e+02
1.062500e+02
1.125000e+02
1.187500e+02
1.250000e+02
1.312500e+02
1.375000e+02
1.437500e+02
1.500000e+02
1.562500e+02
1.625000e+02
1.687500e+02
1.750000e+02
1.812500e+02
1.875000e+02
1.937500e+02
2.000000e+02
0.000000e+00
6.250000e+00
1.250000e+01
1.875000e+01
2.500000e+01
3.125000e+01
3.750000e+01
4.375000e+01
5.000000e+01
5.625000e+01
6.250000e+01
6.875000e+01
7.500000e+01
8.125000e+01
8.750000e+01
9.375000e+01
1.000000e+02
1.062500e+02
1.125000e+02
1.187500e+02
1.250000e+02
1.312500e+02
1.375000e+02
1.437500e+02
1.500000e+02
1.562500e+02
1.625000e+02
1.687500e+02
1.750000e+02
1.812500e+02
1.875000e+02
1.937500e+02
2.000000e+02
0.000000e+00
6.250000e+00
1.250000e+01
1.875000e+01
2.500000e+01
3.125000e+01
3.750000e+01
4.375000e+01
5.000000e+01
5.625000e+01
6.250000e+01
6.875000e+01
7.500000e+01
8.125000e+01
8.750000e+01
9.375000e+01
1.000000e+02
1.062500e+02
1.125000e+02
1.187500e+02
1.250000e+02
1.312500e+02
1.375000e+02
1.437500e+02
1.500000e+02
1.562500e+02
1.625000e+02
1.687500e+02
1.750000e+02
1.812500e+02
1.875000e+02
1.937500e+02
2.000000e+02
0.000000e+00
6.250000e+00
1.250000e+01
1.875000e+01
2.500000e+01
3.125000e+01
3.750000e+01
4.375000e+01
5.000000e+01
5.625000e+01
6.250000e+01
6.875000e+01
7.500000e+01
8.125000e+01
8.750000e+01
9.375000e+01
1.000000e+02
1.062500e+02
1.125000e+02
1.187500e+02
1.250000e+02
1.312500e+02
1.375000e+02
1.437500e+02
1.500000e+02
1.562500e+02
1.625000e+02
1.687500e+02
1.750000e+02
1.812500e+02
1.875000e+02
1.937500e+02
2.000000e+02
0.000000e+00
6.250000e+00
1.250000e+01
1.875000e+01
2.500000e+01
3.125000e+01
3.750000e+01
4.375000e+01
5.000000e+01
5.625000e+01
6.250000e+01
6.875000e+01
7.500000e+01
8.125000e+01
8.750000e+01
9.375000e+01
1.000000e+02
1.062500e+02
1.125000e+02
1.187500e+02
1.250000e+02
1.312500e+02
1.375000e+02
1.437500e+02
1.500000e+02
1.562500e+02
1.625000e+02
1.687500e+02
1.750000e+02
1.812500e+02
1.875000e+02
1.937500e+02
2.000000e+02
0.000000e+00
6.250000e+00
1.250000e+01
1.875000e+01
2.500000e+01
3.125000e+01
3.750000e+01
4.375000e+01
5.000000e+01
5.625000e+01
6.250000e+01
6.875000e+01
7.500000e+01
8.125000e+01
8.750000e+01
9.375000e+01
1.000000e+02
1.062500e+02
1.125000e+02
1.187500e+02
1.250000e+02
1.312500e+02
1.375000e+02
1.437500e+02
1.500000e+02
1.562500e+02
1.625000e+02
1.687500e+02
1.750000e+02
1.812500e+02
1.875000e+02
1.937500e+02
2.000000e+02
0.000000e+00
6.250000e+00
1.250000e+01
1.875000e+01
2.500000e+01
3.125000e+01
3.750000e+01
4.375000e+01
5.000000e+01
5.625000e+01
6.250000e+01
6.875000e+01
7.500000e+01
8.125000e+01
8.750000e+01
9.375000e+01
1.000000e+02
1.062500e+02
1.125000e+02
1.187500e+02
1.250000e+02
1.312500e+02
1.375000e+02
1.437500e+02
1.500000e+02
1.562500e+02
1.625000e+02
1.687500e+02
1.750000e+02
1.812500e+02
1.875000e+02
1.937500e+02
2.000000e+02
0.000000e+00
6.250000e+00
1.250000e+01
1.875000e+01
2.500000e+01
3.125000e+01
3.750000e+01
4.375000e+01
5.000000e+01
5.625000e+01
6.250000e+01
6.875000e+01
7.500000e+01
8.125000e+01
8.750000e+01
9.375000e+01
1.000000e+02
1.062500e+02
1.125000e+02
1.187500e+02
1.250000e+02
1.312500e+02
1.375000e+02
1.437500e+02
1.500000e+02
1.562500e+02
1.625000e+02
1.687500e+02
1.750000e+02
1.812500e+02
1.875000e+02
1.937500e+02
2.000000e+02
0.000000e+00
6.250000e+00
1.250000e+01
1.875000e+01
2.500000e+01
3.125000e+01
3.750000e+01
4.375000e+01
5.000000e+01
5.625000e+01
6.250000e+01
6.875000e+01
7.500000e+01
8.125000e+01
8.750000e+01
9.375000e+01
1.000000e+02
1.062500e+02
1.125000e+02
1.187500e+02
1.250000e+02
1.312500e+02
1.375000e+02
1.437500e+02
1.500000e+02
1.562500e+02
1.625000e+02
1.687500e+02
1.750000e+02
1.812500e+02
1.875000e+02
1.937500e+02
2.000000e+02
0.000000e+00
6.250000e+00
1.250000e+01
1.875000e+01
2.500000e+01
3.125000e+01
3.750000e+01
4.375000e+01
5.000000e+01
5.625000e+01
6.250000e+01
6.875000e+01
7.500000e+01
8.125000e+01
8.750000e+01
9.375000e+01
1.000000e+02
1.062500e+02
1.125000e+02
1.187500e+02
1.250000e+02
1.312500e+02
1.375000e+02
1.437500e+02
1.500000e+02
1.562500e+02
1.625000e+02
1.687500e+02
1.750000e+02
1.812500e+02
1.875000e+02
1.937500e+02
2.000000e+02
0.000000e+00
6.250000e+00
1.250000e+01
1.875000e+01
2.500000e+01
3.125000e+01
3.750000e+01
4.375000e+01
5.000000e+01
5.625000e+01
6.250000e+01
6.875000e+01
7.500000e+01
8.125000e+01
8.750000e+01
9.375000e+01
1.000000e+02
1.062500e+02
1.125000e+02
1.187500e+02
1.250000e+02
1.312500e+02
1.375000e+02
1.437500e+02
1.500000e+02
1.562500e+02
1.625000e+02
1.687500e+02
1.750000e+02
1.812500e+02
1.875000e+02
1.937500e+02
2.000000e+02
0.000000e+00
6.250000e+00
1.250000e+01
1.875000e+01
2.500000e+01
3.125000e+01
3.750000e+01
4.375000e+01
5.000000e+01
5.625000e+01
6.250000e+01
6.875000e+01
7.500000e+01
8.125000e+01
8.750000e+01
9.375000e+01
1.000000e+02
1.062500e+02
1.125000e+02
1.187500e+02
1.250000e+02
1.312500e+02
1.375000e+02
1.437500e+02
1.500000e+02
1.562500e+02
1.625000e+02
1.687500e+02
1.750000e+02
1.812500e+02
1.875000e+02
1.937500e+02
2.000000e+02
0.000000e+00
6.250000e+00
1.250000e+01
1.875000e+01
2.500000e+01
3.125000e+01
3.750000e+01
4.375000e+01
5.000000e+01
5.625000e+01
6.250000e+01
6.875000e+01
7.500000e+01
8.125000e+01
8.750000e+01
9.375000e+01
1.000000e+02
1.062500e+02
1.125000e+02
1.187500e+02
1.250000e+02
1.312500e+02
1.375000e+02
1.437500e+02
1.500000e+02
1.562500e+02
1.625000e+02
1.687500e+02
1.750000e+02
1.812500e+02
1.875000e+02
1.937500e+02
2.000000e+02
0.000000e+00
0.000000e+00
0.000000e+00
0.000000e+00
0.000000e+00
0.000000e+00
0.000000e+00
0.000000e+00
0.000000e+00
0.000000e+00
0.000000e+00
0.000000e+00
0.000000e+00
0.000000e+00
0.000000e+00
0.000000e+00
0.000000e+00
0.000000e+00
0.000000e+00
0.000000e+00
0.000000e+00
0.000000e+00
0.000000e+00
0.000000e+00
0.000000e+00
0.000000e+00
0.000000e+00
0.000000e+00
0.000000e+00
0.000000e+00
0.000000e+00
0.000000e+00
0.000000e+00
6.250000e+00
6.250000e+00
6.250000e+00
6.250000e+00
6.250000e+00
6.250000e+00
6.250000e+00
6.250000e+00
6.250000e+00
6.250000e+00
6.250000e+00
6.250000e+00
6.250000e+00
6.250000e+00
6.250000e+00
6.250000e+00
6.250000e+00
6.250000e+00
6.250000e+00
6.250000e+00
6.250000e+00
6.250000e+00
6.250000e+00
6.250000e+00
6.250000e+00
6.250000e+00
6.250000e+00
6.250000e+00
6.250000e+00
6.250000e+00
6.250000e+00
6.250000e+00
6.250000e+00
1.250000e+01
1.250000e+01
1.250000e+01
1.250000e+01
1.250000e+01
1.250000e+01
1.250000e+01
1.250000e+01
1.250000e+01
1.250000e+01
1.250000e+01
1.250000e+01
1.250000e+01
1.250000e+01
1.250000e+01
1.250000e+01
1.250000e+01
1.250000e+01
1.250000e+01
1.250000e+01
1.250000e+01
1.250000e+01
1.250000e+01
1.250000e+01
1.250000e+01
1.250000e+01
1.250000e+01
1.250000e+01
1.250000e+01
1.250000e+01
1.250000e+01
1.250000e+01
1.250000e+01
1.875000e+01
1.875000e+01
1.875000e+01
1.875000e+01
1.875000e+01
1.875000e+01
1.875000e+01
1.875000e+01
1.875000e+01
1.875000e+01
1.875000e+01
1.875000e+01
1.875000e+01
1.875000e+01
1.875000e+01
1.875000e+01
1.875000e+01
1.875000e+01
1.875000e+01
1.875000e+01
1.875000e+01
1.875000e+01
1.875000e+01
1.875000e+01
1.875000e+01
1.875000e+01
1.875000e+01
1.875000e+01
1.875000e+01
1.875000e+01
1.875000e+01
1.875000e+01
1.875000e+01
2.500000e+01
2.500000e+01
2.500000e+01
2.500000e+01
2.500000e+01
2.500000e+01
2.500000e+01
2.500000e+01
2.500000e+01
2.500000e+01
2.500000e+01
2.500000e+01
2.500000e+01
2.500000e+01
2.500000e+01
2.500000e+01
2.500000e+01
2.500000e+01
2.500000e+01
2.500000e+01
2.500000e+01
2.500000e+01
2.500000e+01
2.500000e+01
2.500000e+01
2.500000e+01
2.500000e+01
2.500000e+01
2.500000e+01
2.500000e+01
2.500000e+01
2.500000e+01
2.500000e+01
3.125000e+01
3.125000e+01
3.125000e+01
3.125000e+01
3.125000e+01
3.125000e+01
3.125000e+01
3.125000e+01
3.125000e+01
3.125000e+01
3.125000e+01
3.125000e+01
3.125000e+01
3.125000e+01
3.125000e+01
3.125000e+01
3.125000e+01
3.125000e+01
3.125000e+01
3.125000e+01
3.125000e+01
3.125000e+01
3.125000e+01
3.125000e+01
3.125000e+01
3.125000e+01
3.125000e+01
3.125000e+01
3.125000e+01
3.125000e+01
3.125000e+01
3.125000e+01
3.125000e+01
3.750000e+01
3.750000e+01
3.750000e+01
3.750000e+01
3.750000e+01
3.750000e+01
3.750000e+01
3.750000e+01
3.750000e+01
3.750000e+01
3.750000e+01
3.750000e+01
3.750000e+01
3.750000e+01
3.750000e+01
3.750000e+01
3.750000e+01
3.750000e+01
3.750000e+01
3.750000e+01
3.750000e+01
3.750000e+01
3.750000e+01
3.750000e+01
3.750000e+01
3.750000e+01
3.750000e+01
3.750000e+01
3.750000e+01
3.750000e+01
3.750000e+01
3.750000e+01
3.750000e+01
4.375000e+01
4.375000e+01
4.375000e+01
4.375000e+01
4.375000e+01
4.375000e+01
4.375000e+01
4.375000e+01
4.375000e+01
4.375000e+01
4.375000e+01
4.375000e+01
4.375000e+01
4.375000e+01
4.375000e+01
4.375000e+01
4.375000e+01
4.375000e+01
4.375000e+01
4.375000e+01
4.375000e+01
4.375000e+01
4.375000e+01
4.375000e+01
4.375000e+01
4.375000e+01
4.375000e+01
4.375000e+01
4.375000e+01
4.375000e+01
4.375000e+01
4.375000e+01
4.375000e+01
5.000000e+01
5.000000e+01
5.000000e+01
5.000000e+01
5.000000e+01
5.000000e+01
5.000000e+01
5.000000e+01
5.000000e+01
5.000000e+01
5.000000e+01
5.000000e+01
5.000000e+01
5.000000e+01
5.000000e+01
5.000000e+01
5.000000e+01
5.000000e+01
5.000000e+01
5.000000e+01
5.000000e+01
5.000000e+01
5.000000e+01
5.000000e+01
5.000000e+01
5.000000e+01
5.000000e+01
5.000000e+01
5.000000e+01
5.000000e+01
5.000000e+01
5.000000e+01
5.000000e+01
5.625000e+01
5.625000e+01
5.625000e+01
5.625000e+01
5.625000e+01
5.625000e+01
5.625000e+01
5.625000e+01
5.625000e+01
5.625000e+01
5.625000e+01
5.625000e+01
5.625000e+01
5.625000e+01
5.625000e+01
5.625000e+01
5.625000e+01
5.625000e+01
5.625000e+01
5.625000e+01
5.625000e+01
5.625000e+01
5.625000e+01
5.625000e+01
5.625000e+01
5.625000e+01
5.625000e+01
5.625000e+01
5.625000e+01
5.625000e+01
5.625000e+01
5.625000e+01
5.625000e+01
6.250000e+01
6.250000e+01
6.250000e+01
6.250000e+01
6.250000e+01
6.250000e+01
6.250000e+01
6.250000e+01
6.250000e+01
6.250000e+01
6.250000e+01
6.250000e+01
6.250000e+01
6.250000e+01
6.250000e+01
6.250000e+01
6.250000e+01
6.250000e+01
6.250000e+01
6.250000e+01
6.250000e+01
6.250000e+01
6.250000e+01
6.250000e+01
6.250000e+01
6.250000e+01
6.250000e+01
6.250000e+01
6.250000e+01
6.250000e+01
6.250000e+01
6.250000e+01
6.250000e+01
6.875000e+01
6.875000e+01
6.875000e+01
6.875000e+01
6.875000e+01
6.875000e+01
6.875000e+01
6.875000e+01
6.875000e+01
6.875000e+01
6.875000e+01
6.875000e+01
6.875000e+01
6.875000e+01
6.875000e+01
6.875000e+01
6.875000e+01
6.875000e+01
6.875000e+01
6.875000e+01
6.875000e+01
6.875000e+01
6.875000e+01
6.875000e+01
6.875000e+01
6.875000e+01
6.875000e+01
6.875000e+01
6.875000e+01
6.875000e+01
6.875000e+01
6.875000e+01
6.875000e+01
7.500000e+01
7.500000e+01
7.500000e+01
7.500000e+01
7.500000e+01
7.500000e+01
7.500000e+01
7.500000e+01
7.500000e+01
7.500000e+01
7.500000e+01
7.500000e+01
7.500000e+01
7.500000e+01
7.500000e+01
7.500000e+01
7.500000e+01
7.500000e+01
7.500000e+01
7.500000e+01
7.500000e+01
7.500000e+01
7.500000e+01
7.500000e+01
7.500000e+01
7.500000e+01
7.500000e+01
7.500000e+01
7.500000e+01
7.500000e+01
7.500000e+01
7.500000e+01
7.500000e+01
8.125000e+01
8.125000e+01
8.125000e+01
8.125000e+01
8.125000e+01
8.125000e+01
8.125000e+01
8.125000e+01
8.125000e+01
8.125000e+01
8.125000e+01
8.125000e+01
8.125000e+01
8.125000e+01
8.125000e+01
8.125000e+01
8.125000e+01
8.125000e+01
8.125000e+01
8.125000e+01
8.125000e+01
8.125000e+01
8.125000e+01
8.125000e+01
8.125000e+01
8.125000e+01
8.125000e+01
8.125000e+01
8.125000e+01
8.125000e+01
8.125000e+01
8.125000e+01
8.125000e+01
8.750000e+01
8.750000e+01
8.750000e+01
8.750000e+01
8.750000e+01
8.750000e+01
8.750000e+01
8.750000e+01
8.750000e+01
8.750000e+01
8.750000e+01
8.750000e+01
8.750000e+01
8.750000e+01
8.750000e+01
8.750000e+01
8.750000e+01
8.750000e+01
8.750000e+01
8.750000e+01
8.750000e+01
8.750000e+01
8.750000e+01
8.750000e+01
8.750000e+01
8.750000e+01
8.750000e+01
8.750000e+01
8.750000e+01
8.750000e+01
8.750000e+01
8.750000e+01
8.750000e+01
9.375000e+01
9.375000e+01
9.375000e+01
9.375000e+01
9.375000e+01
9.375000e+01
9.375000e+01
9.375000e+01
9.375000e+01
9.375000e+01
9.375000e+01
9.375000e+01
9.375000e+01
9.375000e+01
9.375000e+01
9.375000e+01
9.375000e+01
9.375000e+01
9.375000e+01
9.375000e+01
9.375000e+01
9.375000e+01
9.375000e+01
9.375000e+01
9.375000e+01
9.375000e+01
9.375000e+01
9.375000e+01
9.375000e+01
9.375000e+01
9.375000e+01
9.375000e+01
9.375000e+01
1.000000e+02
1.000000e+02
1.000000e+02
1.000000e+02
1.000000e+02
1.000000e+02
1.000000e+02
1.000000e+02
1.000000e+02
1.000000e+02
1.000000e+02
1.000000e+02
1.000000e+02
1.000000e+02
1.000000e+02
1.000000e+02
1.000000e+02
1.000000e+02
1.000000e+02
1.000000e+02
1.000000e+02
1.000000e+02
1.000000e+02
1.000000e+02
1.000000e+02
1.000000e+02
1.000000e+02
1.000000e+02
1.000000e+02
1.000000e+02
1.000000e+02
1.000000e+02
1.000000e+02
0.000000e+00
-4.689820e-01
-7.798003e-01
-1.118703e+00
-1.421192e+00
-1.714410e+00
-2.024630e+00
-2.313665e+00
-2.614456e+00
-2.908352e+00
-3.206550e+00
-3.504914e+00
-3.803509e+00
-4.104646e+00
-4.403986e+00
-4.706276e+00
-5.007418e+00
-5.309497e+00
-5.611851e+00
-5.913228e+00
-6.215862e+00
-6.517447e+00
-6.819358e+00
-7.117960e+00
-7.413792e+00
-7.717706e+00
-8.019558e+00
-8.347529e+00
-8.669519e+00
-9.025913e+00
-9.509668e+00
-9.926184e+00
-1.013102e+01
0.000000e+00
-2.331181e-01
-4.711019e-01
-7.361861e-01
-1.002398e+00
-1.255452e+00
-1.525029e+00
-1.785430e+00
-2.047865e+00
-2.312955e+00
-2.573100e+00
-2.838300e+00
-3.098840e+00
-3.362315e+00
-3.624167e+00
-3.885939e+00
-4.148445e+00
-4.409517e+00
-4.671695e+00
-4.932719e+00
-5.194262e+00
-5.454998e+00
-5.716425e+00
-5.976530e+00
-6.238161e+00
-6.498703e+00
-6.758760e+00
-7.022263e+00
-7.277541e+00
-7.536058e+00
-7.787112e+00
-7.887193e+00
-7.992968e+00
0.000000e+00
-1.049688e-01
-2.427330e-01
-4.388227e-01
-6.560485e-01
-8.633000e-01
-1.090250e+00
-1.316006e+00
-1.542056e+00
-1.773102e+00
-1.995982e+00
-2.224421e+00
-2.446918e+00
-2.671410e+00
-2.894961e+00
-3.117156e+00
-3.340652e+00
-3.562805e+00
-3.786252e+00
-4.009635e+00
-4.233500e+00
-4.457077e+00
-4.681719e+00
-4.908715e+00
-5.137091e+00
-5.358982e+00
-5.571383e+00
-5.769180e+00
-5.948529e+00
-6.097617e+00
-6.182984e+00
-6.188041e+00
-6.280906e+00
0.000000e+00
-1.024841e-01
-1.868033e-01
-3.390166e-01
-4.619797e-01
-6.183791e-01
-7.950742e-01
-9.646642e-01
-1.155174e+00
-1.333686e+00
-1.519042e+00
-1.702549e+00
-1.885826e+00
-2.070569e+00
-2.254876e+00
-2.440893e+00
-2.627140e+00
-2.815520e+00
-3.005277e+00
-3.196486e+00
-3.389446e+00
-3.581973e+00
-3.775400e+00
-3.967837e+00
-4.152484e+00
-4.325830e+00
-4.476634e+00
-4.608708e+00
-4.709765e+00
-4.772286e+00
-4.786886e+00
-4.803689e+00
-4.884384e+00
0.000000e+00
-9.247220e-02
-1.834538e-01
-2.743362e-01
-3.865625e-01
-5.025931e-01
-6.344240e-01
-7.686300e-01
-9.124165e-01
-1.054594e+00
-1.199789e+00
-1.346221e+00
-1.490576e+00
-1.638546e+00
-1.784261e+00
-1.932497e+00
-2.080588e+00
-2.229585e+00
-2.379352e+00
-2.528559e+00
-2.677644e+00
-2.824042e+00
-2.967328e+00
-3.104021e+00
-3.231584e+00
-3.345357e+00
-3.442184e+00
-3.516216e+00
-3.564499e+00
-3.588078e+00
-3.590407e+00
-3.620179e+00
-3.692194e+00
0.000000e+00
-7.395516e-02
-1.450841e-01
-2.197891e-01
-3.008608e-01
-3.898107e-01
-4.843518e-01
-5.854322e-01
-6.890698e-01
-7.964715e-01
-9.041666e-01
-1.012711e+00
-1.121724e+00
-1.230195e+00
-1.339392e+00
-1.448111e+00
-1.557106e+00
-1.665678e+00
-1.773557e+00
-1.880110e+00
-1.984182e+00
-2.084664e+00
-2.179403e+00
-2.266620e+00
-2.343767e+00
-2.408832e+00
-2.459735e+00
-2.494486e+00
-2.515398e+00
-2.514438e+00
-2.509874e+00
-2.536945e+00
-2.603348e+00
0.000000e+00
-5.097009e-02
-1.014267e-01
-1.530358e-01
-2.081676e-01
-2.671899e-01
-3.303338e-01
-3.966002e-01
-4.656052e-01
-5.361081e-01
-6.075632e-01
-6.792348e-01
-7.508019e-01
-8.221761e-01
-8.931102e-01
-9.636785e-01
-1.033548e+00
-1.102495e+00
-1.170006e+00
-1.235392e+00
-1.297709e+00
-1.355610e+00
-1.407663e+00
-1.452179e+00
-1.487676e+00
-1.512024e+00
-1.525108e+00
-1.528545e+00
-1.511783e+00
-1.482779e+00
-1.472073e+00
-1.496738e+00
-1.561927e+00
0.000000e+00
-2.684615e-02
-5.355400e-02
-8.083587e-02
-1.093978e-01
-1.397016e-01
-1.716619e-01
-2.050974e-01
-2.395511e-01
-2.746557e-01
-3.099241e-01
-3.450349e-01
-3.797259e-01
-4.138161e-01
-4.472191e-01
-4.797719e-01
-5.112682e-01
-5.413667e-01
-5.697020e-01
-5.957842e-01
-6.188512e-01
-6.378916e-01
-6.516713e-01
-6.593049e-01
-6.593091e-01
-6.517369e-01
-6.343085e-01
-5.960478e-01
-5.470523e-01
-4.973341e-01
-4.730578e-01
-4.974624e-01
-5.651232e-01
0.000000e+00
-1.928882e-03
-3.905798e-03
-5.847858e-03
-7.654988e-03
-9.215806e-03
-1.045064e-02
-1.131169e-02
-1.178476e-02
-1.182906e-02
-1.138538e-02
-1.035491e-02
-8.607211e-03
-5.976406e-03
-2.306107e-03
2.541739e-03
8.831839e-03
1.689652e-02
2.688388e-02
3.883808e-02
5.305634e-02
7.025726e-02
9.115557e-02
1.174858e-01
1.489730e-01
1.893670e-01
2.472007e-01
3.179190e-01
3.898685e-01
4.399288e-01
4.548923e-01
4.227531e-01
3.452291e-01
0.000000e+00
2.312259e-02
4.602737e-02
6.958295e-02
9.471252e-02
1.220985e-01
1.518340e-01
1.837510e-01
2.174041e-01
2.523848e-01
2.883161e-01
3.249970e-01
3.624423e-01
4.009106e-01
4.407531e-01
4.822965e-01
5.259273e-01
5.717749e-01
6.197247e-01
6.693550e-01
7.202804e-01
7.727539e-01
8.278259e-01
8.864183e-01
9.545790e-01
1.037426e+00
1.126047e+00
1.215530e+00
1.288878e+00
1.332286e+00
1.330850e+00
1.287342e+00
1.224962e+00
0.000000e+00
4.761027e-02
9.469352e-02
1.430524e-01
1.952938e-01
2.521072e-01
3.137446e-01
3.792996e-01
4.479962e-01
5.186281e-01
5.903559e-01
6.625129e-01
7.349318e-01
8.080375e-01
8.825981e-01
9.598753e-01
1.040386e+00
1.123661e+00
1.208820e+00
1.295874e+00
1.384818e+00
1.475198e+00
1.567932e+00
1.669169e+00
1.776896e+00
1.887813e+00
1.996752e+00
2.086424e+00
2.150704e+00
2.178347e+00
2.171630e+00
2.141566e+00
2.097461e+00
0.000000e+00
7.102897e-02
1.393745e-01
2.116568e-01
2.908428e-01
3.788323e-01
4.735457e-01
5.748907e-01
6.798814e-01
7.880086e-01
8.970815e-01
1.006743e+00
1.116753e+00
1.226803e+00
1.337736e+00
1.449806e+00
1.564807e+00
1.681928e+00
1.801020e+00
1.923161e+00
2.050787e+00
2.186825e+00
2.328516e+00
2.469834e+00
2.606695e+00
2.734576e+00
2.846717e+00
2.936533e+00
2.993290e+00
3.022071e+00
3.025675e+00
3.007729e+00
2.980039e+00
0.000000e+00
8.982154e-02
1.782171e-01
2.676530e-01
3.800657e-01
4.982628e-01
6.308694e-01
7.692762e-01
9.133281e-01
1.058868e+00
1.205698e+00
1.353825e+00
1.502097e+00
1.653922e+00
1.805764e+00
1.961271e+00
2.118656e+00
2.279400e+00
2.443538e+00
2.609437e+00
2.778007e+00
2.948539e+00
3.117780e+00
3.281801e+00
3.435427e+00
3.575473e+00
3.694785e+00
3.786989e+00
3.854262e+00
3.893821e+00
3.907005e+00
3.900531e+00
3.885974e+00
0.000000e+00
9.926821e-02
1.810197e-01
3.308572e-01
4.558577e-01
6.170477e-01
7.989202e-01
9.710137e-01
1.164614e+00
1.344346e+00
1.530259e+00
1.712511e+00
1.896584e+00
2.086418e+00
2.280730e+00
2.480782e+00
2.683240e+00
2.888892e+00
3.098704e+00
3.311164e+00
3.521253e+00
3.725158e+00
3.920137e+00
4.104268e+00
4.279075e+00
4.436985e+00
4.572283e+00
4.679165e+00
4.755931e+00
4.804015e+00
4.826397e+00
4.829282e+00
4.824531e+00
0.000000e+00
1.031537e-01
2.371535e-01
4.267970e-01
6.420449e-01
8.493024e-01
1.079312e+00
1.308862e+00
1.537970e+00
1.772664e+00
1.997884e+00
2.225499e+00
2.448328e+00
2.674563e+00
2.903731e+00
3.135011e+00
3.367185e+00
3.597901e+00
3.829868e+00
4.062536e+00
4.296278e+00
4.524680e+00
4.746112e+00
4.966425e+00
5.175756e+00
5.360781e+00
5.510605e+00
5.625781e+00
5.708518e+00
5.761598e+00
5.789443e+00
5.798558e+00
5.799684e+00
0.000000e+00
2.336602e-01
4.723642e-01
7.369104e-01
1.002599e+00
1.255210e+00
1.524049e+00
1.784415e+00
2.046409e+00
2.310887e+00
2.570798e+00
2.834760e+00
3.094560e+00
3.356244e+00
3.616320e+00
3.876117e+00
4.135871e+00
4.393439e+00
4.651006e+00
4.905475e+00
5.160578e+00
5.414046e+00
5.667686e+00
5.925057e+00
6.165641e+00
6.365928e+00
6.523701e+00
6.640932e+00
6.721472e+00
6.770879e+00
6.796130e+00
6.805280e+00
6.807530e+00
0.000000e+00
4.701583e-01
7.857621e-01
1.129493e+00
1.435294e+00
1.728487e+00
2.037347e+00
2.323446e+00
2.621699e+00
2.912270e+00
3.207598e+00
3.505540e+00
3.802459e+00
4.100141e+00
4.392530e+00
4.683256e+00
4.972738e+00
5.262320e+00
5.551941e+00
5.840303e+00
6.126648e+00
6.416058e+00
6.706735e+00
6.998572e+00
7.260932e+00
7.471583e+00
7.630185e+00
7.739517e+00
7.804687e+00
7.833933e+00
7.839026e+00
7.834371e+00
7.831801e+00
0.000000e+00
-2.781218e-01
-5.858221e-01
-9.784940e-01
-1.407165e+00
-1.873902e+00
-2.381040e+00
-2.919012e+00
-3.493451e+00
-4.100142e+00
-4.741525e+00
-5.419130e+00
-6.132423e+00
-6.884205e+00
-7.673005e+00
-8.500776e+00
-9.367131e+00
-1.027253e+01
-1.121742e+01
-1.220139e+01
-1.322509e+01
-1.428883e+01
-1.539321e+01
-1.653768e+01
-1.772071e+01
-1.894344e+01
-2.021030e+01
-2.153028e+01
-2.291141e+01
-2.437333e+01
-2.593298e+01
-2.774169e+01
-3.028220e+01
0.000000e+00
-1.791751e-01
-5.054404e-01
-8.907688e-01
-1.325897e+00
-1.789518e+00
-2.296643e+00
-2.836299e+00
-3.409132e+00
-4.016975e+00
-4.657292e+00
-5.335441e+00
-6.048380e+00
-6.800141e+00
-7.589143e+00
-8.416554e+00
-9.283196e+00
-1.018837e+01
-1.113338e+01
-1.211735e+01
-1.314099e+01
-1.420457e+01
-1.530907e+01
-1.645391e+01
-1.763688e+01
-1.885921e+01
-2.012453e+01
-2.144309e+01
-2.282481e+01
-2.427858e+01
-2.585778e+01
-2.765310e+01
-2.990632e+01
0.000000e+00
-1.575068e-01
-4.468571e-01
-8.340404e-01
-1.259135e+00
-1.720574e+00
-2.226005e+00
-2.763693e+00
-3.337376e+00
-3.944348e+00
-4.585373e+00
-5.263542e+00
-5.977071e+00
-6.728733e+00
-7.518249e+00
-8.345717e+00
-9.212391e+00
-1.011775e+01
-1.106253e+01
-1.204657e+01
-1.307021e+01
-1.413324e+01
-1.523696e+01
-1.638106e+01
-1.756487e+01
-1.878965e+01
-2.005703e+01
-2.138031e+01
-2.276621e+01
-2.424042e+01
-2.586181e+01
-2.754745e+01
-2.929740e+01
0.000000e+00
-2.011222e-01
-4.465807e-01
-8.290708e-01
-1.223362e+00
-1.674835e+00
-2.178465e+00
-2.704907e+00
-3.283139e+00
-3.885470e+00
-4.528303e+00
-5.206661e+00
-5.919774e+00
-6.672730e+00
-7.461462e+00
-8.289852e+00
-9.155961e+00
-1.006141e+01
-1.100604e+01
-1.198963e+01
-1.301371e+01
-1.407611e+01
-1.517925e+01
-1.632360e+01
-1.750943e+01
-1.873980e+01
-2.001327e+01
-2.134366e+01
-2.273871e+01
-2.423143e+01
-2.584611e+01
-2.739630e+01
-2.879671e+01
0.000000e+00
-2.178402e-01
-4.837845e-01
-8.256148e-01
-1.221150e+00
-1.655214e+00
-2.149437e+00
-2.670530e+00
-3.243661e+00
-3.845847e+00
-4.487122e+00
-5.166921e+00
-5.879262e+00
-6.633658e+00
-7.421937e+00
-8.250764e+00
-9.116842e+00
-1.002196e+01
-1.096676e+01
-1.195015e+01
-1.297453e+01
-1.403751e+01
-1.514172e+01
-1.628757e+01
-1.747676e+01
-1.871062e+01
-1.999154e+01
-2.132609e+01
-2.272340e+01
-2.421039e+01
-2.574746e+01
-2.719475e+01
-2.845951e+01
0.000000e+00
-2.249865e-01
-4.998928e-01
-8.314140e-01
-1.215786e+00
-1.648288e+00
-2.128336e+00
-2.650760e+00
-3.215259e+00
-3.818428e+00
-4.458933e+00
-5.137524e+00
-5.852520e+00
-6.605368e+00
-7.395680e+00
-8.223957e+00
-9.090795e+00
-9.996410e+00
-1.094155e+01
-1.192639e+01
-1.295150e+01
-1.401695e+01
-1.512348e+01
-1.627215e+01
-1.746389e+01
-1.869975e+01
-1.998286e+01
-2.131731e+01
-2.270288e+01
-2.415035e+01
-2.559281e+01
-2.696021e+01
-2.816141e+01
0.000000e+00
-2.287039e-01
-5.060267e-01
-8.346388e-01
-1.214115e+00
-1.642481e+00
-2.117644e+00
-2.637157e+00
-3.198935e+00
-3.800826e+00
-4.441475e+00
-5.119977e+00
-5.835956e+00
-6.589346e+00
-7.380332e+00
-8.209319e+00
-9.076796e+00
-9.983374e+00
-1.092960e+01
-1.191604e+01
-1.294310e+01
-1.401112e+01
-1.512049e+01
-1.627167e+01
-1.746530e+01
-1.870144e+01
-1.998053e+01
-2.131085e+01
-2.266551e+01
-2.406153e+01
-2.543701e+01
-2.673588e+01
-2.787530e+01
0.000000e+00
-2.300973e-01
-5.083267e-01
-8.361102e-01
-1.213616e+00
-1.639793e+00
-2.112912e+00
-2.630909e+00
-3.191697e+00
-3.793351e+00
-4.434308e+00
-5.113522e+00
-5.830361e+00
-6.584615e+00
-7.376396e+00
-8.206146e+00
-9.074507e+00
-9.982123e+00
-1.092963e+01
-1.191767e+01
-1.294679e+01
-1.401724e+01
-1.512888e+01
-1.628181e+01
-1.747580e+01
-1.871140e+01
-1.998219e+01
-2.129337e+01
-2.261432e+01
-2.395722e+01
-2.528368e+01
-2.652399e+01
-2.760703e+01
0.000000e+00
-2.303772e-01
-5.088996e-01
-8.366975e-01
-1.214024e+00
-1.640064e+00
-2.113220e+00
-2.631499e+00
-3.192837e+00
-3.795308e+00
-4.437304e+00
-5.117649e+00
-5.835632e+00
-6.590920e+00
-7.383555e+00
-8.214077e+00
-9.083357e+00
-9.992056e+00
-1.094065e+01
-1.192987e+01
-1.296054e+01
-1.403272e+01
-1.514591e+01
-1.629894e+01
-1.749286e+01
-1.872294e+01
-1.997895e+01
-2.126152e+01
-2.255791e+01
-2.385041e+01
-2.511774e+01
-2.628405e+01
-2.727971e+01
0.000000e+00
-2.299066e-01
-5.083189e-01
-8.367234e-01
-1.215377e+00
-1.643228e+00
-2.118424e+00
-2.638773e+00
-3.202103e+00
-3.806451e+00
-4.450157e+00
-5.132019e+00
-5.851358e+00
-6.607864e+00
-7.401409e+00
-8.232625e+00
-9.102937e+00
-1.001280e+01
-1.096220e+01
-1.195173e+01
-1.298285e+01
-1.405587e+01
-1.516837e+01
-1.632237e+01
-1.750892e+01
-1.872741e+01
-1.996675e+01
-2.122635e+01
-2.249375e+01
-2.374882e+01
-2.495310e+01
-2.605452e+01
-2.701404e+01
0.000000e+00
-2.283825e-01
-5.060573e-01
-8.358784e-01
-1.217703e+00
-1.649511e+00
-2.128902e+00
-2.653094e+00
-3.219794e+00
-3.826889e+00
-4.472778e+00
-5.156243e+00
-5.876897e+00
-6.634689e+00
-7.429189e+00
-8.261369e+00
-9.133026e+00
-1.004421e+01
-1.099406e+01
-1.198307e+01
-1.301288e+01
-1.408473e+01
-1.519520e+01
-1.634305e+01
-1.751984e+01
-1.872403e+01
-1.995209e+01
-2.119051e+01
-2.243144e+01
-2.364667e+01
-2.480532e+01
-2.587403e+01
-2.682191e+01
0.000000e+00
-2.246018e-01
-5.000520e-01
-8.333151e-01
-1.221275e+00
-1.659466e+00
-2.145741e+00
-2.675387e+00
-3.246809e+00
-3.857298e+00
-4.505348e+00
-5.190382e+00
-5.911699e+00
-6.670477e+00
-7.465959e+00
-8.299737e+00
-9.173259e+00
-1.008515e+01
-1.103494e+01
-1.202266e+01
-1.304931e+01
-1.411683e+01
-1.522120e+01
-1.635957e+01
-1.752717e+01
-1.872176e+01
-1.993817e+01
-2.116340e+01
-2.237729e+01
-2.356283e+01
-2.469227e+01
-2.574464e+01
-2.669605e+01
0.000000e+00
-2.172509e-01
-4.840354e-01
-8.283789e-01
-1.228677e+00
-1.672027e+00
-2.173020e+00
-2.705634e+00
-3.285319e+00
-3.897831e+00
-4.547962e+00
-5.234847e+00
-5.955472e+00
-6.716419e+00
-7.512305e+00
-8.349075e+00
-9.223349e+00
-1.013444e+01
-1.108256e+01
-1.206702e+01
-1.308978e+01
-1.415064e+01
-1.524685e+01
-1.637634e+01
-1.753725e+01
-1.872769e+01
-1.993754e+01
-2.114815e+01
-2.234209e+01
-2.350262e+01
-2.461331e+01
-2.565861e+01
-2.662453e+01
0.000000e+00
-1.996476e-01
-4.462839e-01
-8.324362e-01
-1.234438e+00
-1.696460e+00
-2.211299e+00
-2.748052e+00
-3.335961e+00
-3.948035e+00
-4.600389e+00
-5.286673e+00
-6.009139e+00
-6.771488e+00
-7.570428e+00
-8.408791e+00
-9.282673e+00
-1.019209e+01
-1.113724e+01
-1.211800e+01
-1.313542e+01
-1.418866e+01
-1.527619e+01
-1.639934e+01
-1.756092e+01
-1.875071e+01
-1.995362e+01
-2.114874e+01
-2.232428e+01
-2.346641e+01
-2.456358e+01
-2.560740e+01
-2.659360e+01
0.000000e+00
-1.546643e-01
-4.446880e-01
-8.361506e-01
-1.271243e+00
-1.744699e+00
-2.263028e+00
-2.811621e+00
-3.395716e+00
-4.011729e+00
-4.661187e+00
-5.347659e+00
-6.071415e+00
-6.834888e+00
-7.636469e+00
-8.474432e+00
-9.347821e+00
-1.025568e+01
-1.119926e+01
-1.217722e+01
-1.318997e+01
-1.423672e+01
-1.531772e+01
-1.644170e+01
-1.760495e+01
-1.879137e+01
-1.998132e+01
-2.116254e+01
-2.232275e+01
-2.345070e+01
-2.453788e+01
-2.558173e+01
-2.658836e+01
0.000000e+00
-1.759317e-01
-5.025360e-01
-8.927700e-01
-1.338203e+00
-1.814652e+00
-2.334644e+00
-2.886001e+00
-3.468935e+00
-4.085901e+00
-4.733894e+00
-5.420402e+00
-6.144052e+00
-6.908229e+00
-7.710101e+00
-8.547676e+00
-9.420076e+00
-1.032677e+01
-1.126923e+01
-1.224582e+01
-1.325660e+01
-1.430051e+01
-1.538181e+01
-1.650644e+01
-1.766568e+01
-1.884054e+01
-2.001756e+01
-2.118566e+01
-2.233332e+01
-2.345016e+01
-2.452955e+01
-2.557249e+01
-2.659307e+01
0.000000e+00
-2.755614e-01
-5.838463e-01
-9.812194e-01
-1.419783e+00
-1.898928e+00
-2.418780e+00
-2.968418e+00
-3.552980e+00
-4.168660e+00
-4.817900e+00
-5.504092e+00
-6.227824e+00
-6.991646e+00
-7.792645e+00
-8.629895e+00
-9.501617e+00
-1.040804e+01
-1.134964e+01
-1.232579e+01
-1.333597e+01
-1.438037e+01