TITLE = "Solution"
VARIABLES = x, y, u, v, psiu, psiv, t, stress
ZONE T="structure" N=561 E=512 F=FEBLOCK ET=QUADRILATERAL VARLOCATION=([7,8]=cellcentered)
0.000000e+00
6.250000e+00
1.250000e+01
1.875000e+01
2.500000e+01
3.125000e+01
3.750000e+01
4.375000e+01
5.000000e+01
5.625000e+01
6.250000e+01
6.875000e+01
7.500000e+01
8.125000e+01
8.750000e+01
9.375000e+01
1.000000e+02
1.062500e+02
1.125000e+02
1.187500e+02
1.250000e+02
1.312500e+02
1.375000e+02
1.437500e+02
1.500000e+02
1.562500e+02
1.625000e+02
1.687500e+02
1.750000e+02
1.812500e+02
1.875000e+02
1.937500e+02
2.000000e+02
0.000000e+00
6.250000e+00
1.250000e+01
1.875000e+01
2.500000e+01
3.125000e+01
3.750000e+01
4.375000e+01
5.000000e+01
5.625000e+01
6.250000e+01
6.875000e+01
7.500000e+01
8.125000e+01
8.750000e+01
9.375000e+01
1.000000e+02
1.062500e+02
1.125000e+02
1.187500e+02
1.250000e+02
1.312500e+02
1.375000e+02
1.437500e+02
1.500000e+02
1.562500e+02
1.625000e+02
1.687500e+02
1.750000e+02
1.812500e+02
1.875000e+02
1.937500e+02
2.000000e+02
0.000000e+00
6.250000e+00
1.250000e+01
1.875000e+01
2.500000e+01
3.125000e+01
3.750000e+01
4.375000e+01
5.000000e+01
5.625000e+01
6.250000e+01
6.875000e+01
7.500000e+01
8.125000e+01
8.750000e+01
9.375000e+01
1.000000e+02
1.062500e+02
1.125000e+02
1.187500e+02
1.250000e+02
1.312500e+02
1.375000e+02
1.437500e+02
1.500000e+02
1.562500e+02
1.625000e+02
1.687500e+02
1.750000e+02
1.812500e+02
1.875000e+02
1.937500e+02
2.000000e+02
0.000000e+00
6.250000e+00
1.250000e+01
1.875000e+01
2.500000e+01
3.125000e+01
3.750000e+01
4.375000e+01
5.000000e+01
5.625000e+01
6.250000e+01
6.875000e+01
7.500000e+01
8.125000e+01
8.750000e+01
9.375000e+01
1.000000e+02
1.062500e+02
1.125000e+02
1.187500e+02
1.250000e+02
1.312500e+02
1.375000e+02
1.437500e+02
1.500000e+02
1.562500e+02
1.625000e+02
1.687500e+02
1.750000e+02
1.812500e+02
1.875000e+02
1.937500e+02
2.000000e+02
0.000000e+00
6.250000e+00
1.250000e+01
1.875000e+01
2.500000e+01
3.125000e+01
3.750000e+01
4.375000e+01
5.000000e+01
5.625000e+01
6.250000e+01
6.875000e+01
7.500000e+01
8.125000e+01
8.750000e+01
9.375000e+01
1.000000e+02
1.062500e+02
1.125000e+02
1.187500e+02
1.250000e+02
1.312500e+02
1.375000e+02
1.437500e+02
1.500000e+02
1.562500e+02
1.625000e+02
1.687500e+02
1.750000e+02
1.812500e+02
1.875000e+02
1.937500e+02
2.000000e+02
0.000000e+00
6.250000e+00
1.250000e+01
1.875000e+01
2.500000e+01
3.125000e+01
3.750000e+01
4.375000e+01
5.000000e+01
5.625000e+01
6.250000e+01
6.875000e+01
7.500000e+01
8.125000e+01
8.750000e+01
9.375000e+01
1.000000e+02
1.062500e+02
1.125000e+02
1.187500e+02
1.250000e+02
1.312500e+02
1.375000e+02
1.437500e+02
1.500000e+02
1.562500e+02
1.625000e+02
1.687500e+02
1.750000e+02
1.812500e+02
1.875000e+02
1.937500e+02
2.000000e+02
0.000000e+00
6.250000e+00
1.250000e+01
1.875000e+01
2.500000e+01
3.125000e+01
3.750000e+01
4.375000e+01
5.000000e+01
5.625000e+01
6.250000e+01
6.875000e+01
7.500000e+01
8.125000e+01
8.750000e+01
9.375000e+01
1.000000e+02
1.062500e+02
1.125000e+02
1.187500e+02
1.250000e+02
1.312500e+02
1.375000e+02
1.437500e+02
1.500000e+02
1.562500e+02
1.625000e+02
1.687500e+02
1.750000e+02
1.812500e+02
1.875000e+02
1.937500e+02
2.000000e+02
0.000000e+00
6.250000e+00
1.250000e+01
1.875000e+01
2.500000e+01
3.125000e+01
3.750000e+01
4.375000e+01
5.000000e+01
5.625000e+01
6.250000e+01
6.875000e+01
7.500000e+01
8.125000e+01
8.750000e+01
9.375000e+01
1.000000e+02
1.062500e+02
1.125000e+02
1.187500e+02
1.250000e+02
1.312500e+02
1.375000e+02
1.437500e+02
1.500000e+02
1.562500e+02
1.625000e+02
1.687500e+02
1.750000e+02
1.812500e+02
1.875000e+02
1.937500e+02
2.000000e+02
0.000000e+00
6.250000e+00
1.250000e+01
1.875000e+01
2.500000e+01
3.125000e+01
3.750000e+01
4.375000e+01
5.000000e+01
5.625000e+01
6.250000e+01
6.875000e+01
7.500000e+01
8.125000e+01
8.750000e+01
9.375000e+01
1.000000e+02
1.062500e+02
1.125000e+02
1.187500e+02
1.250000e+02
1.312500e+02
1.375000e+02
1.437500e+02
1.500000e+02
1.562500e+02
1.625000e+02
1.687500e+02
1.750000e+02
1.812500e+02
1.875000e+02
1.937500e+02
2.000000e+02
0.000000e+00
6.250000e+00
1.250000e+01
1.875000e+01
2.500000e+01
3.125000e+01
3.750000e+01
4.375000e+01
5.000000e+01
5.625000e+01
6.250000e+01
6.875000e+01
7.500000e+01
8.125000e+01
8.750000e+01
9.375000e+01
1.000000e+02
1.062500e+02
1.125000e+02
1.187500e+02
1.250000e+02
1.312500e+02
1.375000e+02
1.437500e+02
1.500000e+02
1.562500e+02
1.625000e+02
1.687500e+02
1.750000e+02
1.812500e+02
1.875000e+02
1.937500e+02
2.000000e+02
0.000000e+00
6.250000e+00
1.250000e+01
1.875000e+01
2.500000e+01
3.125000e+01
3.750000e+01
4.375000e+01
5.000000e+01
5.625000e+01
6.250000e+01
6.875000e+01
7.500000e+01
8.125000e+01
8.750000e+01
9.375000e+01
1.000000e+02
1.062500e+02
1.125000e+02
1.187500e+02
1.250000e+02
1.312500e+02
1.375000e+02
1.437500e+02
1.500000e+02
1.562500e+02
1.625000e+02
1.687500e+02
1.750000e+02
1.812500e+02
1.875000e+02
1.937500e+02
2.000000e+02
0.000000e+00
6.250000e+00
1.250000e+01
1.875000e+01
2.500000e+01
3.125000e+01
3.750000e+01
4.375000e+01
5.000000e+01
5.625000e+01
6.250000e+01
6.875000e+01
7.500000e+01
8.125000e+01
8.750000e+01
9.375000e+01
1.000000e+02
1.062500e+02
1.125000e+02
1.187500e+02
1.250000e+02
1.312500e+02
1.375000e+02
1.437500e+02
1.500000e+02
1.562500e+02
1.625000e+02
1.687500e+02
1.750000e+02
1.812500e+02
1.875000e+02
1.937500e+02
2.000000e+02
0.000000e+00
6.250000e+00
1.250000e+01
1.875000e+01
2.500000e+01
3.125000e+01
3.750000e+01
4.375000e+01
5.000000e+01
5.625000e+01
6.250000e+01
6.875000e+01
7.500000e+01
8.125000e+01
8.750000e+01
9.375000e+01
1.000000e+02
1.062500e+02
1.125000e+02
1.187500e+02
1.250000e+02
1.312500e+02
1.375000e+02
1.437500e+02
1.500000e+02
1.562500e+02
1.625000e+02
1.687500e+02
1.750000e+02
1.812500e+02
1.875000e+02
1.937500e+02
2.000000e+02
0.000000e+00
6.250000e+00
1.250000e+01
1.875000e+01
2.500000e+01
3.125000e+01
3.750000e+01
4.375000e+01
5.000000e+01
5.625000e+01
6.250000e+01
6.875000e+01
7.500000e+01
8.125000e+01
8.750000e+01
9.375000e+01
1.000000e+02
1.062500e+02
1.125000e+02
1.187500e+02
1.250000e+02
1.312500e+02
1.375000e+02
1.437500e+02
1.500000e+02
1.562500e+02
1.625000e+02
1.687500e+02
1.750000e+02
1.812500e+02
1.875000e+02
1.937500e+02
2.000000e+02
0.000000e+00
6.250000e+00
1.250000e+01
1.875000e+01
2.500000e+01
3.125000e+01
3.750000e+01
4.375000e+01
5.000000e+01
5.625000e+01
6.250000e+01
6.875000e+01
7.500000e+01
8.125000e+01
8.750000e+01
9.375000e+01
1.000000e+02
1.062500e+02
1.125000e+02
1.187500e+02
1.250000e+02
1.312500e+02
1.375000e+02
1.437500e+02
1.500000e+02
1.562500e+02
1.625000e+02
1.687500e+02
1.750000e+02
1.812500e+02
1.875000e+02
1.937500e+02
2.000000e+02
0.000000e+00
6.250000e+00
1.250000e+01
1.875000e+01
2.500000e+01
3.125000e+01
3.750000e+01
4.375000e+01
5.000000e+01
5.625000e+01
6.250000e+01
6.875000e+01
7.500000e+01
8.125000e+01
8.750000e+01
9.375000e+01
1.000000e+02
1.062500e+02
1.125000e+02
1.187500e+02
1.250000e+02
1.312500e+02
1.375000e+02
1.437500e+02
1.500000e+02
1.562500e+02
1.625000e+02
1.687500e+02
1.750000e+02
1.812500e+02
1.875000e+02
1.937500e+02
2.000000e+02
0.000000e+00
6.250000e+00
1.250000e+01
1.875000e+01
2.500000e+01
3.125000e+01
3.750000e+01
4.375000e+01
5.000000e+01
5.625000e+01
6.250000e+01
6.875000e+01
7.500000e+01
8.125000e+01
8.750000e+01
9.375000e+01
1.000000e+02
1.062500e+02
1.125000e+02
1.187500e+02
1.250000e+02
1.312500e+02
1.375000e+02
1.437500e+02
1.500000e+02
1.562500e+02
1.625000e+02
1.687500e+02
1.750000e+02
1.812500e+02
1.875000e+02
1.937500e+02
2.000000e+02
0.000000e+00
0.000000e+00
0.000000e+00
0.000000e+00
0.000000e+00
0.000000e+00
0.000000e+00
0.000000e+00
0.000000e+00
0.000000e+00
0.000000e+00
0.000000e+00
0.000000e+00
0.000000e+00
0.000000e+00
0.000000e+00
0.000000e+00
0.000000e+00
0.000000e+00
0.000000e+00
0.000000e+00
0.000000e+00
0.000000e+00
0.000000e+00
0.000000e+00
0.000000e+00
0.000000e+00
0.000000e+00
0.000000e+00
0.000000e+00
0.000000e+00
0.000000e+00
0.000000e+00
6.250000e+00
6.250000e+00
6.250000e+00
6.250000e+00
6.250000e+00
6.250000e+00
6.250000e+00
6.250000e+00
6.250000e+00
6.250000e+00
6.250000e+00
6.250000e+00
6.250000e+00
6.250000e+00
6.250000e+00
6.250000e+00
6.250000e+00
6.250000e+00
6.250000e+00
6.250000e+00
6.250000e+00
6.250000e+00
6.250000e+00
6.250000e+00
6.250000e+00
6.250000e+00
6.250000e+00
6.250000e+00
6.250000e+00
6.250000e+00
6.250000e+00
6.250000e+00
6.250000e+00
1.250000e+01
1.250000e+01
1.250000e+01
1.250000e+01
1.250000e+01
1.250000e+01
1.250000e+01
1.250000e+01
1.250000e+01
1.250000e+01
1.250000e+01
1.250000e+01
1.250000e+01
1.250000e+01
1.250000e+01
1.250000e+01
1.250000e+01
1.250000e+01
1.250000e+01
1.250000e+01
1.250000e+01
1.250000e+01
1.250000e+01
1.250000e+01
1.250000e+01
1.250000e+01
1.250000e+01
1.250000e+01
1.250000e+01
1.250000e+01
1.250000e+01
1.250000e+01
1.250000e+01
1.875000e+01
1.875000e+01
1.875000e+01
1.875000e+01
1.875000e+01
1.875000e+01
1.875000e+01
1.875000e+01
1.875000e+01
1.875000e+01
1.875000e+01
1.875000e+01
1.875000e+01
1.875000e+01
1.875000e+01
1.875000e+01
1.875000e+01
1.875000e+01
1.875000e+01
1.875000e+01
1.875000e+01
1.875000e+01
1.875000e+01
1.875000e+01
1.875000e+01
1.875000e+01
1.875000e+01
1.875000e+01
1.875000e+01
1.875000e+01
1.875000e+01
1.875000e+01
1.875000e+01
2.500000e+01
2.500000e+01
2.500000e+01
2.500000e+01
2.500000e+01
2.500000e+01
2.500000e+01
2.500000e+01
2.500000e+01
2.500000e+01
2.500000e+01
2.500000e+01
2.500000e+01
2.500000e+01
2.500000e+01
2.500000e+01
2.500000e+01
2.500000e+01
2.500000e+01
2.500000e+01
2.500000e+01
2.500000e+01
2.500000e+01
2.500000e+01
2.500000e+01
2.500000e+01
2.500000e+01
2.500000e+01
2.500000e+01
2.500000e+01
2.500000e+01
2.500000e+01
2.500000e+01
3.125000e+01
3.125000e+01
3.125000e+01
3.125000e+01
3.125000e+01
3.125000e+01
3.125000e+01
3.125000e+01
3.125000e+01
3.125000e+01
3.125000e+01
3.125000e+01
3.125000e+01
3.125000e+01
3.125000e+01
3.125000e+01
3.125000e+01
3.125000e+01
3.125000e+01
3.125000e+01
3.125000e+01
3.125000e+01
3.125000e+01
3.125000e+01
3.125000e+01
3.125000e+01
3.125000e+01
3.125000e+01
3.125000e+01
3.125000e+01
3.125000e+01
3.125000e+01
3.125000e+01
3.750000e+01
3.750000e+01
3.750000e+01
3.750000e+01
3.750000e+01
3.750000e+01
3.750000e+01
3.750000e+01
3.750000e+01
3.750000e+01
3.750000e+01
3.750000e+01
3.750000e+01
3.750000e+01
3.750000e+01
3.750000e+01
3.750000e+01
3.750000e+01
3.750000e+01
3.750000e+01
3.750000e+01
3.750000e+01
3.750000e+01
3.750000e+01
3.750000e+01
3.750000e+01
3.750000e+01
3.750000e+01
3.750000e+01
3.750000e+01
3.750000e+01
3.750000e+01
3.750000e+01
4.375000e+01
4.375000e+01
4.375000e+01
4.375000e+01
4.375000e+01
4.375000e+01
4.375000e+01
4.375000e+01
4.375000e+01
4.375000e+01
4.375000e+01
4.375000e+01
4.375000e+01
4.375000e+01
4.375000e+01
4.375000e+01
4.375000e+01
4.375000e+01
4.375000e+01
4.375000e+01
4.375000e+01
4.375000e+01
4.375000e+01
4.375000e+01
4.375000e+01
4.375000e+01
4.375000e+01
4.375000e+01
4.375000e+01
4.375000e+01
4.375000e+01
4.375000e+01
4.375000e+01
5.000000e+01
5.000000e+01
5.000000e+01
5.000000e+01
5.000000e+01
5.000000e+01
5.000000e+01
5.000000e+01
5.000000e+01
5.000000e+01
5.000000e+01
5.000000e+01
5.000000e+01
5.000000e+01
5.000000e+01
5.000000e+01
5.000000e+01
5.000000e+01
5.000000e+01
5.000000e+01
5.000000e+01
5.000000e+01
5.000000e+01
5.000000e+01
5.000000e+01
5.000000e+01
5.000000e+01
5.000000e+01
5.000000e+01
5.000000e+01
5.000000e+01
5.000000e+01
5.000000e+01
5.625000e+01
5.625000e+01
5.625000e+01
5.625000e+01
5.625000e+01
5.625000e+01
5.625000e+01
5.625000e+01
5.625000e+01
5.625000e+01
5.625000e+01
5.625000e+01
5.625000e+01
5.625000e+01
5.625000e+01
5.625000e+01
5.625000e+01
5.625000e+01
5.625000e+01
5.625000e+01
5.625000e+01
5.625000e+01
5.625000e+01
5.625000e+01
5.625000e+01
5.625000e+01
5.625000e+01
5.625000e+01
5.625000e+01
5.625000e+01
5.625000e+01
5.625000e+01
5.625000e+01
6.250000e+01
6.250000e+01
6.250000e+01
6.250000e+01
6.250000e+01
6.250000e+01
6.250000e+01
6.250000e+01
6.250000e+01
6.250000e+01
6.250000e+01
6.250000e+01
6.250000e+01
6.250000e+01
6.250000e+01
6.250000e+01
6.250000e+01
6.250000e+01
6.250000e+01
6.250000e+01
6.250000e+01
6.250000e+01
6.250000e+01
6.250000e+01
6.250000e+01
6.250000e+01
6.250000e+01
6.250000e+01
6.250000e+01
6.250000e+01
6.250000e+01
6.250000e+01
6.250000e+01
6.875000e+01
6.875000e+01
6.875000e+01
6.875000e+01
6.875000e+01
6.875000e+01
6.875000e+01
6.875000e+01
6.875000e+01
6.875000e+01
6.875000e+01
6.875000e+01
6.875000e+01
6.875000e+01
6.875000e+01
6.875000e+01
6.875000e+01
6.875000e+01
6.875000e+01
6.875000e+01
6.875000e+01
6.875000e+01
6.875000e+01
6.875000e+01
6.875000e+01
6.875000e+01
6.875000e+01
6.875000e+01
6.875000e+01
6.875000e+01
6.875000e+01
6.875000e+01
6.875000e+01
7.500000e+01
7.500000e+01
7.500000e+01
7.500000e+01
7.500000e+01
7.500000e+01
7.500000e+01
7.500000e+01
7.500000e+01
7.500000e+01
7.500000e+01
7.500000e+01
7.500000e+01
7.500000e+01
7.500000e+01
7.500000e+01
7.500000e+01
7.500000e+01
7.500000e+01
7.500000e+01
7.500000e+01
7.500000e+01
7.500000e+01
7.500000e+01
7.500000e+01
7.500000e+01
7.500000e+01
7.500000e+01
7.500000e+01
7.500000e+01
7.500000e+01
7.500000e+01
7.500000e+01
8.125000e+01
8.125000e+01
8.125000e+01
8.125000e+01
8.125000e+01
8.125000e+01
8.125000e+01
8.125000e+01
8.125000e+01
8.125000e+01
8.125000e+01
8.125000e+01
8.125000e+01
8.125000e+01
8.125000e+01
8.125000e+01
8.125000e+01
8.125000e+01
8.125000e+01
8.125000e+01
8.125000e+01
8.125000e+01
8.125000e+01
8.125000e+01
8.125000e+01
8.125000e+01
8.125000e+01
8.125000e+01
8.125000e+01
8.125000e+01
8.125000e+01
8.125000e+01
8.125000e+01
8.750000e+01
8.750000e+01
8.750000e+01
8.750000e+01
8.750000e+01
8.750000e+01
8.750000e+01
8.750000e+01
8.750000e+01
8.750000e+01
8.750000e+01
8.750000e+01
8.750000e+01
8.750000e+01
8.750000e+01
8.750000e+01
8.750000e+01
8.750000e+01
8.750000e+01
8.750000e+01
8.750000e+01
8.750000e+01
8.750000e+01
8.750000e+01
8.750000e+01
8.750000e+01
8.750000e+01
8.750000e+01
8.750000e+01
8.750000e+01
8.750000e+01
8.750000e+01
8.750000e+01
9.375000e+01
9.375000e+01
9.375000e+01
9.375000e+01
9.375000e+01
9.375000e+01
9.375000e+01
9.375000e+01
9.375000e+01
9.375000e+01
9.375000e+01
9.375000e+01
9.375000e+01
9.375000e+01
9.375000e+01
9.375000e+01
9.375000e+01
9.375000e+01
9.375000e+01
9.375000e+01
9.375000e+01
9.375000e+01
9.375000e+01
9.375000e+01
9.375000e+01
9.375000e+01
9.375000e+01
9.375000e+01
9.375000e+01
9.375000e+01
9.375000e+01
9.375000e+01
9.375000e+01
1.000000e+02
1.000000e+02
1.000000e+02
1.000000e+02
1.000000e+02
1.000000e+02
1.000000e+02
1.000000e+02
1.000000e+02
1.000000e+02
1.000000e+02
1.000000e+02
1.000000e+02
1.000000e+02
1.000000e+02
1.000000e+02
1.000000e+02
1.000000e+02
1.000000e+02
1.000000e+02
1.000000e+02
1.000000e+02
1.000000e+02
1.000000e+02
1.000000e+02
1.000000e+02
1.000000e+02
1.000000e+02
1.000000e+02
1.000000e+02
1.000000e+02
1.000000e+02
1.000000e+02
0.000000e+00
-4.639845e-01
-7.748994e-01
-1.111798e+00
-1.415188e+00
-1.710228e+00
-2.019383e+00
-2.310133e+00
-2.611684e+00
-2.906537e+00
-3.205242e+00
-3.504153e+00
-3.802557e+00
-4.103505e+00
-4.402961e+00
-4.704229e+00
-5.005135e+00
-5.306395e+00
-5.608088e+00
-5.909456e+00
-6.211519e+00
-6.512938e+00
-6.814282e+00
-7.112629e+00
-7.412175e+00
-7.714494e+00
-8.020267e+00
-8.346192e+00
-8.669932e+00
-9.031854e+00
-9.510097e+00
-9.926264e+00
-1.013199e+01
0.000000e+00
-2.328467e-01
-4.725403e-01
-7.371193e-01
-1.003581e+00
-1.257091e+00
-1.526314e+00
-1.786663e+00
-2.049157e+00
-2.314006e+00
-2.574136e+00
-2.839001e+00
-3.099846e+00
-3.362766e+00
-3.625016e+00
-3.886420e+00
-4.148939e+00
-4.410193e+00
-4.671872e+00
-4.933427e+00
-5.194315e+00
-5.455517e+00
-5.716630e+00
-5.976797e+00
-6.238830e+00
-6.498701e+00
-6.759365e+00
-7.022481e+00
-7.277779e+00
-7.538416e+00
-7.785718e+00
-7.884219e+00
-7.989913e+00
0.000000e+00
-1.086983e-01
-2.505039e-01
-4.466422e-01
-6.624848e-01
-8.692217e-01
-1.096399e+00
-1.320489e+00
-1.545521e+00
-1.775332e+00
-1.997836e+00
-2.225617e+00
-2.448759e+00
-2.673095e+00
-2.897192e+00
-3.119925e+00
-3.343967e+00
-3.566910e+00
-3.790436e+00
-4.014310e+00
-4.237598e+00
-4.461591e+00
-4.686447e+00
-4.912179e+00
-5.138186e+00
-5.358177e+00
-5.569381e+00
-5.767109e+00
-5.945465e+00
-6.094149e+00
-6.176386e+00
-6.180724e+00
-6.273541e+00
0.000000e+00
-1.025750e-01
-1.888178e-01
-3.379858e-01
-4.618175e-01
-6.193660e-01
-7.952514e-01
-9.658942e-01
-1.153503e+00
-1.333277e+00
-1.518394e+00
-1.702432e+00
-1.887024e+00
-2.072260e+00
-2.257792e+00
-2.444504e+00
-2.631802e+00
-2.820547e+00
-3.010227e+00
-3.201152e+00
-3.392857e+00
-3.584562e+00
-3.776738e+00
-3.965897e+00
-4.148444e+00
-4.319065e+00
-4.470329e+00
-4.601360e+00
-4.701873e+00
-4.762746e+00
-4.776039e+00
-4.791908e+00
-4.872888e+00
0.000000e+00
-9.182792e-02
-1.822449e-01
-2.733690e-01
-3.842439e-01
-5.007782e-01
-6.319928e-01
-7.665324e-01
-9.091259e-01
-1.052402e+00
-1.197089e+00
-1.344265e+00
-1.489667e+00
-1.637566e+00
-1.784814e+00
-1.932906e+00
-2.081865e+00
-2.230800e+00
-2.380278e+00
-2.529353e+00
-2.677276e+00
-2.823096e+00
-2.964955e+00
-3.100396e+00
-3.226382e+00
-3.339037e+00
-3.434588e+00
-3.507785e+00
-3.554926e+00
-3.576415e+00
-3.576696e+00
-3.606207e+00
-3.679200e+00
0.000000e+00
-7.338865e-02
-1.441482e-01
-2.185339e-01
-2.992827e-01
-3.877083e-01
-4.820707e-01
-5.829126e-01
-6.866132e-01
-7.936791e-01
-9.017039e-01
-1.010295e+00
-1.119604e+00
-1.228533e+00
-1.337859e+00
-1.446970e+00
-1.555913e+00
-1.664523e+00
-1.772183e+00
-1.878363e+00
-1.982033e+00
-2.081767e+00
-2.175862e+00
-2.262239e+00
-2.338474e+00
-2.402342e+00
-2.451790e+00
-2.484801e+00
-2.502355e+00
-2.499060e+00
-2.494590e+00
-2.522567e+00
-2.589858e+00
0.000000e+00
-5.060296e-02
-1.007397e-01
-1.520950e-01
-2.069222e-01
-2.656708e-01
-3.285787e-01
-3.947583e-01
-4.636408e-01
-5.340999e-01
-6.054888e-01
-6.771884e-01
-7.488112e-01
-8.202424e-01
-8.912333e-01
-9.617282e-01
-1.031483e+00
-1.100205e+00
-1.167446e+00
-1.232501e+00
-1.294379e+00
-1.351763e+00
-1.403172e+00
-1.446953e+00
-1.481429e+00
-1.504600e+00
-1.516115e+00
-1.516351e+00
-1.498087e+00
-1.469506e+00
-1.459295e+00
-1.485713e+00
-1.552366e+00
0.000000e+00
-2.664751e-02
-5.317935e-02
-8.030107e-02
-1.087215e-01
-1.389060e-01
-1.708053e-01
-2.042068e-01
-2.386313e-01
-2.736554e-01
-3.088165e-01
-3.437876e-01
-3.783320e-01
-4.122634e-01
-4.454560e-01
-4.777281e-01
-5.088663e-01
-5.385863e-01
-5.665328e-01
-5.921891e-01
-6.147474e-01
-6.331044e-01
-6.459823e-01
-6.524196e-01
-6.510569e-01
-6.414637e-01
-6.214407e-01
-5.832226e-01
-5.354574e-01
-4.881872e-01
-4.674076e-01
-4.938238e-01
-5.624862e-01
0.000000e+00
-1.917179e-03
-3.887446e-03
-5.835644e-03
-7.680376e-03
-9.330704e-03
-1.069628e-02
-1.168182e-02
-1.220091e-02
-1.216682e-02
-1.150653e-02
-1.013953e-02
-7.970773e-03
-4.882464e-03
-7.400047e-04
4.636247e-03
1.148790e-02
2.004778e-02
3.048790e-02
4.297582e-02
5.790858e-02
7.606758e-02
9.846755e-02
1.265369e-01
1.599244e-01
2.017356e-01
2.586192e-01
3.274686e-01
3.964618e-01
4.442020e-01
4.574760e-01
4.251550e-01
3.503521e-01
0.000000e+00
2.291833e-02
4.562511e-02
6.897900e-02
9.386455e-02
1.209234e-01
1.502911e-01
1.818984e-01
2.154236e-01
2.505348e-01
2.868868e-01
3.242636e-01
3.626317e-01
4.020825e-01
4.428318e-01
4.851434e-01
5.293147e-01
5.755289e-01
6.237889e-01
6.739671e-01
7.258473e-01
7.797035e-01
8.362658e-01
8.964779e-01
9.658491e-01
1.047371e+00
1.133902e+00
1.220453e+00
1.291835e+00
1.333848e+00
1.333606e+00
1.292976e+00
1.231513e+00
0.000000e+00
4.716464e-02
9.379674e-02
1.417521e-01
1.934915e-01
2.496922e-01
3.106841e-01
3.757715e-01
4.443141e-01
5.152553e-01
5.877924e-01
6.613348e-01
7.355870e-01
8.107484e-01
8.871573e-01
9.654913e-01
1.046099e+00
1.128976e+00
1.214128e+00
1.301553e+00
1.391303e+00
1.483199e+00
1.577376e+00
1.678247e+00
1.784296e+00
1.893810e+00
2.000277e+00
2.088947e+00
2.152962e+00
2.182168e+00
2.177268e+00
2.147498e+00
2.103437e+00
0.000000e+00
7.034070e-02
1.380324e-01
2.095650e-01
2.879336e-01
3.747585e-01
4.685160e-01
5.693724e-01
6.743643e-01
7.829569e-01
8.932321e-01
1.004368e+00
1.116491e+00
1.228826e+00
1.342289e+00
1.457023e+00
1.573531e+00
1.691551e+00
1.811206e+00
1.933890e+00
2.061631e+00
2.196627e+00
2.336744e+00
2.475964e+00
2.610373e+00
2.736082e+00
2.847773e+00
2.937500e+00
2.995931e+00
3.025854e+00
3.029764e+00
3.011995e+00
2.984131e+00
0.000000e+00
8.918982e-02
1.768052e-01
2.656026e-01
3.750780e-01
4.916586e-01
6.231546e-01
7.609748e-01
9.054985e-01
1.052704e+00
1.200718e+00
1.351351e+00
1.501615e+00
1.654945e+00
1.809198e+00
1.966339e+00
2.125866e+00
2.287286e+00
2.451359e+00
2.616360e+00
2.784450e+00
2.953512e+00
3.120867e+00
3.284053e+00
3.436710e+00
3.575070e+00
3.693916e+00
3.787430e+00
3.855243e+00
3.895137e+00
3.908648e+00
3.902237e+00
3.887582e+00
0.000000e+00
1.001445e-01
1.839709e-01
3.302133e-01
4.530295e-01
6.107560e-01
7.891880e-01
9.630038e-01
1.155729e+00
1.338637e+00
1.527004e+00
1.713000e+00
1.900737e+00
2.092021e+00
2.287063e+00
2.486515e+00
2.688644e+00
2.894335e+00
3.103528e+00
3.314489e+00
3.523231e+00
3.725995e+00
3.919409e+00
4.103682e+00
4.278645e+00
4.435731e+00
4.570493e+00
4.677264e+00
4.754324e+00
4.802724e+00
4.825312e+00
4.828277e+00
4.823478e+00
0.000000e+00
1.078275e-01
2.472971e-01
4.393301e-01
6.524357e-01
8.567519e-01
1.083455e+00
1.309512e+00
1.537244e+00
1.770690e+00
1.996176e+00
2.225356e+00
2.450256e+00
2.677549e+00
2.907005e+00
3.137605e+00
3.369192e+00
3.600191e+00
3.832853e+00
4.066148e+00
4.298899e+00
4.526620e+00
4.748230e+00
4.966496e+00
5.173431e+00
5.356310e+00
5.505905e+00
5.621335e+00
5.704340e+00
5.757700e+00
5.785745e+00
5.794940e+00
5.796066e+00
0.000000e+00
2.334880e-01
4.735747e-01
7.379222e-01
1.003999e+00
1.257158e+00
1.525754e+00
1.785774e+00
2.047753e+00
2.312021e+00
2.571813e+00
2.835670e+00
3.095626e+00
3.357128e+00
3.617589e+00
3.877095e+00
4.136981e+00
4.394693e+00
4.651988e+00
4.907672e+00
5.161855e+00
5.415399e+00
5.669352e+00
5.923759e+00
6.159591e+00
6.358543e+00
6.516351e+00
6.633953e+00
6.714883e+00
6.764584e+00
6.790020e+00
6.799250e+00
6.801516e+00
0.000000e+00
4.646415e-01
7.782879e-01
1.118711e+00
1.425433e+00
1.722542e+00
2.033084e+00
2.322511e+00
2.622276e+00
2.914144e+00
3.209940e+00
3.506955e+00
3.802753e+00
4.099580e+00
4.392322e+00
4.683627e+00
4.974078e+00
5.264005e+00
5.552080e+00
5.840192e+00
6.125786e+00
6.414586e+00
6.705991e+00
6.993802e+00
7.251844e+00
7.461637e+00
7.620552e+00
7.730423e+00
7.796032e+00
7.825543e+00
7.830740e+00
7.826091e+00
7.823512e+00
0.000000e+00
-2.759917e-01
-5.788181e-01
-9.640481e-01
-1.385689e+00
-1.846222e+00
-2.347406e+00
-2.880098e+00
-3.450083e+00
-4.053302e+00
-4.691930e+00
-5.367393e+00
-6.078671e+00
-6.828403e+00
-7.615295e+00
-8.440735e+00
-9.304712e+00
-1.020715e+01
-1.114884e+01
-1.212942e+01
-1.314953e+01
-1.420974e+01
-1.530990e+01
-1.644996e+01
-1.762932e+01
-1.884903e+01
-2.011409e+01
-2.143174e+01
-2.281119e+01
-2.427183e+01
-2.583007e+01
-2.764073e+01
-3.018630e+01
0.000000e+00
-1.772663e-01
-4.985254e-01
-8.764456e-01
-1.304020e+00
-1.761779e+00
-2.263114e+00
-2.797136e+00
-3.365689e+00
-3.970036e+00
-4.607694e+00
-5.283617e+00
-5.994730e+00
-6.744296e+00
-7.531462e+00
-8.356627e+00
-9.220769e+00
-1.012316e+01
-1.106481e+01
-1.204546e+01
-1.306545e+01
-1.412557e+01
-1.522596e+01
-1.636600e+01
-1.754533e+01
-1.876480e+01
-2.002805e+01
-2.134488e+01
-2.272387e+01
-2.417703e+01
-2.575536e+01
-2.755177e+01
-2.980943e+01
0.000000e+00
-1.544195e-01
-4.403933e-01
-8.191898e-01
-1.237223e+00
-1.692875e+00
-2.192661e+00
-2.725033e+00
-3.293953e+00
-3.897703e+00
-4.535879e+00
-5.211634e+00
-5.923368e+00
-6.672772e+00
-7.460331e+00
-8.285582e+00
-9.149733e+00
-1.005236e+01
-1.099386e+01
-1.197469e+01
-1.299459e+01
-1.405421e+01
-1.515427e+01
-1.629381e+01
-1.747416e+01
-1.869554e+01
-1.996117e+01
-2.128216e+01
-2.266573e+01
-2.413950e+01
-2.575854e+01
-2.744650e+01
-2.920000e+01
0.000000e+00
-1.947996e-01
-4.389435e-01
-8.114841e-01
-1.200369e+00
-1.647250e+00
-2.144294e+00
-2.667764e+00
-3.239054e+00
-3.839555e+00
-4.478530e+00
-5.154365e+00
-5.865909e+00
-6.615959e+00
-7.403288e+00
-8.228834e+00
-9.092931e+00
-9.995565e+00
-1.093705e+01
-1.191789e+01
-1.293792e+01
-1.399725e+01
-1.509726e+01
-1.623759e+01
-1.742028e+01
-1.864656e+01
-1.991829e+01
-2.124595e+01
-2.263907e+01
-2.413023e+01
-2.574286e+01
-2.729480e+01
-2.869843e+01
0.000000e+00
-2.122345e-01
-4.735285e-01
-8.093913e-01
-1.197492e+00
-1.627594e+00
-2.115309e+00
-2.633581e+00
-3.199875e+00
-3.799953e+00
-4.437079e+00
-5.113948e+00
-5.824836e+00
-6.575724e+00
-7.363060e+00
-8.188689e+00
-9.053052e+00
-9.955545e+00
-1.089730e+01
-1.187832e+01
-1.289880e+01
-1.395908e+01
-1.506020e+01
-1.620287e+01
-1.738871e+01
-1.861922e+01
-1.989742e+01
-2.122955e+01
-2.262467e+01
-2.410816e+01
-2.564704e+01
-2.709245e+01
-2.835511e+01
0.000000e+00
-2.196537e-01
-4.891742e-01
-8.148938e-01
-1.193145e+00
-1.620153e+00
-2.095030e+00
-2.612802e+00
-3.172477e+00
-3.771760e+00
-4.408805e+00
-5.084273e+00
-5.796921e+00
-6.547294e+00
-7.335543e+00
-8.161643e+00
-9.026272e+00
-9.929560e+00
-1.087200e+01
-1.185410e+01
-1.287613e+01
-1.393862e+01
-1.504232e+01
-1.618809e+01
-1.737691e+01
-1.860991e+01
-1.989018e+01
-2.122198e+01
-2.260455e+01
-2.404970e+01
-2.549387e+01
-2.685967e+01
-2.805559e+01
0.000000e+00
-2.234164e-01
-4.952194e-01
-8.180635e-01
-1.191692e+00
-1.614425e+00
-2.084302e+00
-2.598874e+00
-3.156056e+00
-3.753853e+00
-4.390910e+00
-5.066337e+00
-5.779674e+00
-6.530759e+00
-7.319654e+00
-8.146618e+00
-9.012000e+00
-9.916262e+00
-1.085993e+01
-1.184359e+01
-1.286776e+01
-1.393288e+01
-1.503948e+01
-1.618811e+01
-1.737930e+01
-1.861286e+01
-1.988946e+01
-2.121566e+01
-2.256878e+01
-2.396257e+01
-2.533710e+01
-2.663325e+01
-2.776795e+01
0.000000e+00
-2.248203e-01
-4.974899e-01
-8.195025e-01
-1.191165e+00
-1.611623e+00
-2.079304e+00
-2.592242e+00
-3.148401e+00
-3.745912e+00
-4.383239e+00
-5.059326e+00
-5.773514e+00
-6.525519e+00
-7.315350e+00
-8.143252e+00
-9.009630e+00
-9.914976e+00
-1.085991e+01
-1.184516e+01
-1.287140e+01
-1.393901e+01
-1.504802e+01
-1.619868e+01
-1.739084e+01
-1.862362e+01
-1.989152e+01
-2.119924e+01
-2.251915e+01
-2.385986e+01
-2.518110e+01
-2.641632e+01
-2.749358e+01
0.000000e+00
-2.250914e-01
-4.980191e-01
-8.199852e-01
-1.191368e+00
-1.611540e+00
-2.079107e+00
-2.592225e+00
-3.148902e+00
-3.747230e+00
-4.385603e+00
-5.062843e+00
-5.778216e+00
-6.531354e+00
-7.322240e+00
-8.151178e+00
-9.018614e+00
-9.925009e+00
-1.087095e+01
-1.185733e+01
-1.288506e+01
-1.395448e+01
-1.506531e+01
-1.621640e+01
-1.740838e+01
-1.863553e+01
-1.988860e+01
-2.116924e+01
-2.246340e+01
-2.375343e+01
-2.501587e+01
-2.617940e+01
-2.717797e+01
0.000000e+00
-2.245844e-01
-4.973512e-01
-8.198203e-01
-1.192341e+00
-1.614090e+00
-2.083504e+00
-2.598609e+00
-3.157300e+00
-3.757578e+00
-4.397743e+00
-5.076609e+00
-5.793451e+00
-6.547892e+00
-7.339903e+00
-8.169923e+00
-9.038478e+00
-9.945852e+00
-1.089245e+01
-1.187913e+01
-1.290721e+01
-1.397744e+01
-1.508858e+01
-1.624000e+01
-1.742490e+01
-1.864069e+01
-1.987763e+01
-2.113513e+01
-2.240067e+01
-2.365197e+01
-2.485411e+01
-2.595597e+01
-2.691606e+01
0.000000e+00
-2.229658e-01
-4.949623e-01
-8.187204e-01
-1.194100e+00
-1.619443e+00
-2.092802e+00
-2.611701e+00
-3.173884e+00
-3.777104e+00
-4.419645e+00
-5.100390e+00
-5.818805e+00
-6.574576e+00
-7.367722e+00
-8.198924e+00
-9.068719e+00
-9.977035e+00
-1.092396e+01
-1.191017e+01
-1.293702e+01
-1.400664e+01
-1.511576e+01
-1.626180e+01
-1.743638e+01
-1.863868e+01
-1.986408e+01
-2.110082e+01
-2.233941e+01
-2.355218e+01
-2.470931e+01
-2.577735e+01
-2.672427e+01
0.000000e+00
-2.189908e-01
-4.888086e-01
-8.159019e-01
-1.196854e+00
-1.628004e+00
-2.108005e+00
-2.632437e+00
-3.199467e+00
-3.806567e+00
-4.451558e+00
-5.134339e+00
-5.854020e+00
-6.610895e+00
-7.405148e+00
-8.237613e+00
-9.108653e+00
-1.001743e+01
-1.096426e+01
-1.194905e+01
-1.297385e+01
-1.403951e+01
-1.514239e+01
-1.627936e+01
-1.744509e+01
-1.863729e+01
-1.985161e+01
-2.107416e+01
-2.228613e+01
-2.346906e+01
-2.459697e+01
-2.564789e+01
-2.659756e+01
0.000000e+00
-2.112258e-01
-4.729353e-01
-8.107062e-01
-1.202528e+00
-1.638910e+00
-2.132806e+00
-2.661090e+00
-3.236049e+00
-3.846592e+00
-4.493554e+00
-5.179114e+00
-5.898835e+00
-6.657578e+00
-7.452669e+00
-8.286709e+00
-9.158416e+00
-1.006626e+01
-1.101174e+01
-1.199364e+01
-1.301503e+01
-1.407425e+01
-1.516849e+01
-1.629708e+01
-1.745676e+01
-1.864392e+01
-1.985077e+01
-2.105895e+01
-2.225054e+01
-2.340910e+01
-2.451800e+01
-2.556154e+01
-2.652525e+01
0.000000e+00
-1.930838e-01
-4.376443e-01
-8.126093e-01
-1.206818e+00
-1.661123e+00
-2.167884e+00
-2.702036e+00
-3.285091e+00
-3.896461e+00
-4.546544e+00
-5.232149e+00
-5.953710e+00
-6.713686e+00
-7.510792e+00
-8.345975e+00
-9.217240e+00
-1.012398e+01
-1.106678e+01
-1.204552e+01
-1.306131e+01
-1.411286e+01
-1.519872e+01
-1.632147e+01
-1.748103e+01
-1.866654e+01
-1.986589e+01
-2.105906e+01
-2.223260e+01
-2.337286e+01
-2.446818e+01
-2.551003e+01
-2.649388e+01
0.000000e+00
-1.519891e-01
-4.377769e-01
-8.189089e-01
-1.243142e+00
-1.707574e+00
-2.218828e+00
-2.763363e+00
-3.344723e+00
-3.959710e+00
-4.608515e+00
-5.294424e+00
-6.016900e+00
-6.777743e+00
-7.576493e+00
-8.411466e+00
-9.282302e+00
-1.018819e+01
-1.112949e+01
-1.210568e+01
-1.311643e+01
-1.416131e+01
-1.524181e+01
-1.636424e+01
-1.752419e+01
-1.870595e+01
-1.989331e+01
-2.107258e+01
-2.223100e+01
-2.335713e+01
-2.444241e+01
-2.548419e+01
-2.648849e+01
0.000000e+00
-1.747458e-01
-4.954632e-01
-8.757350e-01
-1.309546e+00
-1.776718e+00
-2.289855e+00
-2.836796e+00
-3.417718e+00
-4.033643e+00
-4.681552e+00
-5.367671e+00
-6.089860e+00
-6.851280e+00
-7.650084e+00
-8.484634e+00
-9.354765e+00
-1.025979e+01
-1.120020e+01
-1.217486e+01
-1.318318e+01
-1.422550e+01
-1.530580e+01
-1.642811e+01
-1.758326e+01
-1.875481e+01
-1.992951e+01
-2.109571e+01
-2.224158e+01
-2.335661e+01
-2.443406e+01
-2.547488e+01
-2.649318e+01
0.000000e+00
-2.738865e-01
-5.763331e-01
-9.638625e-01
-1.391633e+00
-1.861455e+00
-2.374228e+00
-2.919577e+00
-3.501868e+00
-4.116549e+00
-4.765531e+00
-5.451243e+00
-6.173461e+00
-6.934710e+00
-7.732714e+00
-8.567014e+00
-9.436573e+00
-1.034114e+01
-1.128080e+01
-1.225485e+01
-1.326253e+01
-1.430543e+01