TITLE = "Solution"
VARIABLES = x, y, u, v, psiu, psiv, t, stress
ZONE T="structure" N=561 E=512 F=FEBLOCK ET=QUADRILATERAL VARLOCATION=([7,8]=cellcentered)
0.000000e+00
6.250000e+00
1.250000e+01
1.875000e+01
2.500000e+01
3.125000e+01
3.750000e+01
4.375000e+01
5.000000e+01
5.625000e+01
6.250000e+01
6.875000e+01
7.500000e+01
8.125000e+01
8.750000e+01
9.375000e+01
1.000000e+02
1.062500e+02
1.125000e+02
1.187500e+02
1.250000e+02
1.312500e+02
1.375000e+02
1.437500e+02
1.500000e+02
1.562500e+02
1.625000e+02
1.687500e+02
1.750000e+02
1.812500e+02
1.875000e+02
1.937500e+02
2.000000e+02
0.000000e+00
6.250000e+00
1.250000e+01
1.875000e+01
2.500000e+01
3.125000e+01
3.750000e+01
4.375000e+01
5.000000e+01
5.625000e+01
6.250000e+01
6.875000e+01
7.500000e+01
8.125000e+01
8.750000e+01
9.375000e+01
1.000000e+02
1.062500e+02
1.125000e+02
1.187500e+02
1.250000e+02
1.312500e+02
1.375000e+02
1.437500e+02
1.500000e+02
1.562500e+02
1.625000e+02
1.687500e+02
1.750000e+02
1.812500e+02
1.875000e+02
1.937500e+02
2.000000e+02
0.000000e+00
6.250000e+00
1.250000e+01
1.875000e+01
2.500000e+01
3.125000e+01
3.750000e+01
4.375000e+01
5.000000e+01
5.625000e+01
6.250000e+01
6.875000e+01
7.500000e+01
8.125000e+01
8.750000e+01
9.375000e+01
1.000000e+02
1.062500e+02
1.125000e+02
1.187500e+02
1.250000e+02
1.312500e+02
1.375000e+02
1.437500e+02
1.500000e+02
1.562500e+02
1.625000e+02
1.687500e+02
1.750000e+02
1.812500e+02
1.875000e+02
1.937500e+02
2.000000e+02
0.000000e+00
6.250000e+00
1.250000e+01
1.875000e+01
2.500000e+01
3.125000e+01
3.750000e+01
4.375000e+01
5.000000e+01
5.625000e+01
6.250000e+01
6.875000e+01
7.500000e+01
8.125000e+01
8.750000e+01
9.375000e+01
1.000000e+02
1.062500e+02
1.125000e+02
1.187500e+02
1.250000e+02
1.312500e+02
1.375000e+02
1.437500e+02
1.500000e+02
1.562500e+02
1.625000e+02
1.687500e+02
1.750000e+02
1.812500e+02
1.875000e+02
1.937500e+02
2.000000e+02
0.000000e+00
6.250000e+00
1.250000e+01
1.875000e+01
2.500000e+01
3.125000e+01
3.750000e+01
4.375000e+01
5.000000e+01
5.625000e+01
6.250000e+01
6.875000e+01
7.500000e+01
8.125000e+01
8.750000e+01
9.375000e+01
1.000000e+02
1.062500e+02
1.125000e+02
1.187500e+02
1.250000e+02
1.312500e+02
1.375000e+02
1.437500e+02
1.500000e+02
1.562500e+02
1.625000e+02
1.687500e+02
1.750000e+02
1.812500e+02
1.875000e+02
1.937500e+02
2.000000e+02
0.000000e+00
6.250000e+00
1.250000e+01
1.875000e+01
2.500000e+01
3.125000e+01
3.750000e+01
4.375000e+01
5.000000e+01
5.625000e+01
6.250000e+01
6.875000e+01
7.500000e+01
8.125000e+01
8.750000e+01
9.375000e+01
1.000000e+02
1.062500e+02
1.125000e+02
1.187500e+02
1.250000e+02
1.312500e+02
1.375000e+02
1.437500e+02
1.500000e+02
1.562500e+02
1.625000e+02
1.687500e+02
1.750000e+02
1.812500e+02
1.875000e+02
1.937500e+02
2.000000e+02
0.000000e+00
6.250000e+00
1.250000e+01
1.875000e+01
2.500000e+01
3.125000e+01
3.750000e+01
4.375000e+01
5.000000e+01
5.625000e+01
6.250000e+01
6.875000e+01
7.500000e+01
8.125000e+01
8.750000e+01
9.375000e+01
1.000000e+02
1.062500e+02
1.125000e+02
1.187500e+02
1.250000e+02
1.312500e+02
1.375000e+02
1.437500e+02
1.500000e+02
1.562500e+02
1.625000e+02
1.687500e+02
1.750000e+02
1.812500e+02
1.875000e+02
1.937500e+02
2.000000e+02
0.000000e+00
6.250000e+00
1.250000e+01
1.875000e+01
2.500000e+01
3.125000e+01
3.750000e+01
4.375000e+01
5.000000e+01
5.625000e+01
6.250000e+01
6.875000e+01
7.500000e+01
8.125000e+01
8.750000e+01
9.375000e+01
1.000000e+02
1.062500e+02
1.125000e+02
1.187500e+02
1.250000e+02
1.312500e+02
1.375000e+02
1.437500e+02
1.500000e+02
1.562500e+02
1.625000e+02
1.687500e+02
1.750000e+02
1.812500e+02
1.875000e+02
1.937500e+02
2.000000e+02
0.000000e+00
6.250000e+00
1.250000e+01
1.875000e+01
2.500000e+01
3.125000e+01
3.750000e+01
4.375000e+01
5.000000e+01
5.625000e+01
6.250000e+01
6.875000e+01
7.500000e+01
8.125000e+01
8.750000e+01
9.375000e+01
1.000000e+02
1.062500e+02
1.125000e+02
1.187500e+02
1.250000e+02
1.312500e+02
1.375000e+02
1.437500e+02
1.500000e+02
1.562500e+02
1.625000e+02
1.687500e+02
1.750000e+02
1.812500e+02
1.875000e+02
1.937500e+02
2.000000e+02
0.000000e+00
6.250000e+00
1.250000e+01
1.875000e+01
2.500000e+01
3.125000e+01
3.750000e+01
4.375000e+01
5.000000e+01
5.625000e+01
6.250000e+01
6.875000e+01
7.500000e+01
8.125000e+01
8.750000e+01
9.375000e+01
1.000000e+02
1.062500e+02
1.125000e+02
1.187500e+02
1.250000e+02
1.312500e+02
1.375000e+02
1.437500e+02
1.500000e+02
1.562500e+02
1.625000e+02
1.687500e+02
1.750000e+02
1.812500e+02
1.875000e+02
1.937500e+02
2.000000e+02
0.000000e+00
6.250000e+00
1.250000e+01
1.875000e+01
2.500000e+01
3.125000e+01
3.750000e+01
4.375000e+01
5.000000e+01
5.625000e+01
6.250000e+01
6.875000e+01
7.500000e+01
8.125000e+01
8.750000e+01
9.375000e+01
1.000000e+02
1.062500e+02
1.125000e+02
1.187500e+02
1.250000e+02
1.312500e+02
1.375000e+02
1.437500e+02
1.500000e+02
1.562500e+02
1.625000e+02
1.687500e+02
1.750000e+02
1.812500e+02
1.875000e+02
1.937500e+02
2.000000e+02
0.000000e+00
6.250000e+00
1.250000e+01
1.875000e+01
2.500000e+01
3.125000e+01
3.750000e+01
4.375000e+01
5.000000e+01
5.625000e+01
6.250000e+01
6.875000e+01
7.500000e+01
8.125000e+01
8.750000e+01
9.375000e+01
1.000000e+02
1.062500e+02
1.125000e+02
1.187500e+02
1.250000e+02
1.312500e+02
1.375000e+02
1.437500e+02
1.500000e+02
1.562500e+02
1.625000e+02
1.687500e+02
1.750000e+02
1.812500e+02
1.875000e+02
1.937500e+02
2.000000e+02
0.000000e+00
6.250000e+00
1.250000e+01
1.875000e+01
2.500000e+01
3.125000e+01
3.750000e+01
4.375000e+01
5.000000e+01
5.625000e+01
6.250000e+01
6.875000e+01
7.500000e+01
8.125000e+01
8.750000e+01
9.375000e+01
1.000000e+02
1.062500e+02
1.125000e+02
1.187500e+02
1.250000e+02
1.312500e+02
1.375000e+02
1.437500e+02
1.500000e+02
1.562500e+02
1.625000e+02
1.687500e+02
1.750000e+02
1.812500e+02
1.875000e+02
1.937500e+02
2.000000e+02
0.000000e+00
6.250000e+00
1.250000e+01
1.875000e+01
2.500000e+01
3.125000e+01
3.750000e+01
4.375000e+01
5.000000e+01
5.625000e+01
6.250000e+01
6.875000e+01
7.500000e+01
8.125000e+01
8.750000e+01
9.375000e+01
1.000000e+02
1.062500e+02
1.125000e+02
1.187500e+02
1.250000e+02
1.312500e+02
1.375000e+02
1.437500e+02
1.500000e+02
1.562500e+02
1.625000e+02
1.687500e+02
1.750000e+02
1.812500e+02
1.875000e+02
1.937500e+02
2.000000e+02
0.000000e+00
6.250000e+00
1.250000e+01
1.875000e+01
2.500000e+01
3.125000e+01
3.750000e+01
4.375000e+01
5.000000e+01
5.625000e+01
6.250000e+01
6.875000e+01
7.500000e+01
8.125000e+01
8.750000e+01
9.375000e+01
1.000000e+02
1.062500e+02
1.125000e+02
1.187500e+02
1.250000e+02
1.312500e+02
1.375000e+02
1.437500e+02
1.500000e+02
1.562500e+02
1.625000e+02
1.687500e+02
1.750000e+02
1.812500e+02
1.875000e+02
1.937500e+02
2.000000e+02
0.000000e+00
6.250000e+00
1.250000e+01
1.875000e+01
2.500000e+01
3.125000e+01
3.750000e+01
4.375000e+01
5.000000e+01
5.625000e+01
6.250000e+01
6.875000e+01
7.500000e+01
8.125000e+01
8.750000e+01
9.375000e+01
1.000000e+02
1.062500e+02
1.125000e+02
1.187500e+02
1.250000e+02
1.312500e+02
1.375000e+02
1.437500e+02
1.500000e+02
1.562500e+02
1.625000e+02
1.687500e+02
1.750000e+02
1.812500e+02
1.875000e+02
1.937500e+02
2.000000e+02
0.000000e+00
6.250000e+00
1.250000e+01
1.875000e+01
2.500000e+01
3.125000e+01
3.750000e+01
4.375000e+01
5.000000e+01
5.625000e+01
6.250000e+01
6.875000e+01
7.500000e+01
8.125000e+01
8.750000e+01
9.375000e+01
1.000000e+02
1.062500e+02
1.125000e+02
1.187500e+02
1.250000e+02
1.312500e+02
1.375000e+02
1.437500e+02
1.500000e+02
1.562500e+02
1.625000e+02
1.687500e+02
1.750000e+02
1.812500e+02
1.875000e+02
1.937500e+02
2.000000e+02
0.000000e+00
0.000000e+00
0.000000e+00
0.000000e+00
0.000000e+00
0.000000e+00
0.000000e+00
0.000000e+00
0.000000e+00
0.000000e+00
0.000000e+00
0.000000e+00
0.000000e+00
0.000000e+00
0.000000e+00
0.000000e+00
0.000000e+00
0.000000e+00
0.000000e+00
0.000000e+00
0.000000e+00
0.000000e+00
0.000000e+00
0.000000e+00
0.000000e+00
0.000000e+00
0.000000e+00
0.000000e+00
0.000000e+00
0.000000e+00
0.000000e+00
0.000000e+00
0.000000e+00
6.250000e+00
6.250000e+00
6.250000e+00
6.250000e+00
6.250000e+00
6.250000e+00
6.250000e+00
6.250000e+00
6.250000e+00
6.250000e+00
6.250000e+00
6.250000e+00
6.250000e+00
6.250000e+00
6.250000e+00
6.250000e+00
6.250000e+00
6.250000e+00
6.250000e+00
6.250000e+00
6.250000e+00
6.250000e+00
6.250000e+00
6.250000e+00
6.250000e+00
6.250000e+00
6.250000e+00
6.250000e+00
6.250000e+00
6.250000e+00
6.250000e+00
6.250000e+00
6.250000e+00
1.250000e+01
1.250000e+01
1.250000e+01
1.250000e+01
1.250000e+01
1.250000e+01
1.250000e+01
1.250000e+01
1.250000e+01
1.250000e+01
1.250000e+01
1.250000e+01
1.250000e+01
1.250000e+01
1.250000e+01
1.250000e+01
1.250000e+01
1.250000e+01
1.250000e+01
1.250000e+01
1.250000e+01
1.250000e+01
1.250000e+01
1.250000e+01
1.250000e+01
1.250000e+01
1.250000e+01
1.250000e+01
1.250000e+01
1.250000e+01
1.250000e+01
1.250000e+01
1.250000e+01
1.875000e+01
1.875000e+01
1.875000e+01
1.875000e+01
1.875000e+01
1.875000e+01
1.875000e+01
1.875000e+01
1.875000e+01
1.875000e+01
1.875000e+01
1.875000e+01
1.875000e+01
1.875000e+01
1.875000e+01
1.875000e+01
1.875000e+01
1.875000e+01
1.875000e+01
1.875000e+01
1.875000e+01
1.875000e+01
1.875000e+01
1.875000e+01
1.875000e+01
1.875000e+01
1.875000e+01
1.875000e+01
1.875000e+01
1.875000e+01
1.875000e+01
1.875000e+01
1.875000e+01
2.500000e+01
2.500000e+01
2.500000e+01
2.500000e+01
2.500000e+01
2.500000e+01
2.500000e+01
2.500000e+01
2.500000e+01
2.500000e+01
2.500000e+01
2.500000e+01
2.500000e+01
2.500000e+01
2.500000e+01
2.500000e+01
2.500000e+01
2.500000e+01
2.500000e+01
2.500000e+01
2.500000e+01
2.500000e+01
2.500000e+01
2.500000e+01
2.500000e+01
2.500000e+01
2.500000e+01
2.500000e+01
2.500000e+01
2.500000e+01
2.500000e+01
2.500000e+01
2.500000e+01
3.125000e+01
3.125000e+01
3.125000e+01
3.125000e+01
3.125000e+01
3.125000e+01
3.125000e+01
3.125000e+01
3.125000e+01
3.125000e+01
3.125000e+01
3.125000e+01
3.125000e+01
3.125000e+01
3.125000e+01
3.125000e+01
3.125000e+01
3.125000e+01
3.125000e+01
3.125000e+01
3.125000e+01
3.125000e+01
3.125000e+01
3.125000e+01
3.125000e+01
3.125000e+01
3.125000e+01
3.125000e+01
3.125000e+01
3.125000e+01
3.125000e+01
3.125000e+01
3.125000e+01
3.750000e+01
3.750000e+01
3.750000e+01
3.750000e+01
3.750000e+01
3.750000e+01
3.750000e+01
3.750000e+01
3.750000e+01
3.750000e+01
3.750000e+01
3.750000e+01
3.750000e+01
3.750000e+01
3.750000e+01
3.750000e+01
3.750000e+01
3.750000e+01
3.750000e+01
3.750000e+01
3.750000e+01
3.750000e+01
3.750000e+01
3.750000e+01
3.750000e+01
3.750000e+01
3.750000e+01
3.750000e+01
3.750000e+01
3.750000e+01
3.750000e+01
3.750000e+01
3.750000e+01
4.375000e+01
4.375000e+01
4.375000e+01
4.375000e+01
4.375000e+01
4.375000e+01
4.375000e+01
4.375000e+01
4.375000e+01
4.375000e+01
4.375000e+01
4.375000e+01
4.375000e+01
4.375000e+01
4.375000e+01
4.375000e+01
4.375000e+01
4.375000e+01
4.375000e+01
4.375000e+01
4.375000e+01
4.375000e+01
4.375000e+01
4.375000e+01
4.375000e+01
4.375000e+01
4.375000e+01
4.375000e+01
4.375000e+01
4.375000e+01
4.375000e+01
4.375000e+01
4.375000e+01
5.000000e+01
5.000000e+01
5.000000e+01
5.000000e+01
5.000000e+01
5.000000e+01
5.000000e+01
5.000000e+01
5.000000e+01
5.000000e+01
5.000000e+01
5.000000e+01
5.000000e+01
5.000000e+01
5.000000e+01
5.000000e+01
5.000000e+01
5.000000e+01
5.000000e+01
5.000000e+01
5.000000e+01
5.000000e+01
5.000000e+01
5.000000e+01
5.000000e+01
5.000000e+01
5.000000e+01
5.000000e+01
5.000000e+01
5.000000e+01
5.000000e+01
5.000000e+01
5.000000e+01
5.625000e+01
5.625000e+01
5.625000e+01
5.625000e+01
5.625000e+01
5.625000e+01
5.625000e+01
5.625000e+01
5.625000e+01
5.625000e+01
5.625000e+01
5.625000e+01
5.625000e+01
5.625000e+01
5.625000e+01
5.625000e+01
5.625000e+01
5.625000e+01
5.625000e+01
5.625000e+01
5.625000e+01
5.625000e+01
5.625000e+01
5.625000e+01
5.625000e+01
5.625000e+01
5.625000e+01
5.625000e+01
5.625000e+01
5.625000e+01
5.625000e+01
5.625000e+01
5.625000e+01
6.250000e+01
6.250000e+01
6.250000e+01
6.250000e+01
6.250000e+01
6.250000e+01
6.250000e+01
6.250000e+01
6.250000e+01
6.250000e+01
6.250000e+01
6.250000e+01
6.250000e+01
6.250000e+01
6.250000e+01
6.250000e+01
6.250000e+01
6.250000e+01
6.250000e+01
6.250000e+01
6.250000e+01
6.250000e+01
6.250000e+01
6.250000e+01
6.250000e+01
6.250000e+01
6.250000e+01
6.250000e+01
6.250000e+01
6.250000e+01
6.250000e+01
6.250000e+01
6.250000e+01
6.875000e+01
6.875000e+01
6.875000e+01
6.875000e+01
6.875000e+01
6.875000e+01
6.875000e+01
6.875000e+01
6.875000e+01
6.875000e+01
6.875000e+01
6.875000e+01
6.875000e+01
6.875000e+01
6.875000e+01
6.875000e+01
6.875000e+01
6.875000e+01
6.875000e+01
6.875000e+01
6.875000e+01
6.875000e+01
6.875000e+01
6.875000e+01
6.875000e+01
6.875000e+01
6.875000e+01
6.875000e+01
6.875000e+01
6.875000e+01
6.875000e+01
6.875000e+01
6.875000e+01
7.500000e+01
7.500000e+01
7.500000e+01
7.500000e+01
7.500000e+01
7.500000e+01
7.500000e+01
7.500000e+01
7.500000e+01
7.500000e+01
7.500000e+01
7.500000e+01
7.500000e+01
7.500000e+01
7.500000e+01
7.500000e+01
7.500000e+01
7.500000e+01
7.500000e+01
7.500000e+01
7.500000e+01
7.500000e+01
7.500000e+01
7.500000e+01
7.500000e+01
7.500000e+01
7.500000e+01
7.500000e+01
7.500000e+01
7.500000e+01
7.500000e+01
7.500000e+01
7.500000e+01
8.125000e+01
8.125000e+01
8.125000e+01
8.125000e+01
8.125000e+01
8.125000e+01
8.125000e+01
8.125000e+01
8.125000e+01
8.125000e+01
8.125000e+01
8.125000e+01
8.125000e+01
8.125000e+01
8.125000e+01
8.125000e+01
8.125000e+01
8.125000e+01
8.125000e+01
8.125000e+01
8.125000e+01
8.125000e+01
8.125000e+01
8.125000e+01
8.125000e+01
8.125000e+01
8.125000e+01
8.125000e+01
8.125000e+01
8.125000e+01
8.125000e+01
8.125000e+01
8.125000e+01
8.750000e+01
8.750000e+01
8.750000e+01
8.750000e+01
8.750000e+01
8.750000e+01
8.750000e+01
8.750000e+01
8.750000e+01
8.750000e+01
8.750000e+01
8.750000e+01
8.750000e+01
8.750000e+01
8.750000e+01
8.750000e+01
8.750000e+01
8.750000e+01
8.750000e+01
8.750000e+01
8.750000e+01
8.750000e+01
8.750000e+01
8.750000e+01
8.750000e+01
8.750000e+01
8.750000e+01
8.750000e+01
8.750000e+01
8.750000e+01
8.750000e+01
8.750000e+01
8.750000e+01
9.375000e+01
9.375000e+01
9.375000e+01
9.375000e+01
9.375000e+01
9.375000e+01
9.375000e+01
9.375000e+01
9.375000e+01
9.375000e+01
9.375000e+01
9.375000e+01
9.375000e+01
9.375000e+01
9.375000e+01
9.375000e+01
9.375000e+01
9.375000e+01
9.375000e+01
9.375000e+01
9.375000e+01
9.375000e+01
9.375000e+01
9.375000e+01
9.375000e+01
9.375000e+01
9.375000e+01
9.375000e+01
9.375000e+01
9.375000e+01
9.375000e+01
9.375000e+01
9.375000e+01
1.000000e+02
1.000000e+02
1.000000e+02
1.000000e+02
1.000000e+02
1.000000e+02
1.000000e+02
1.000000e+02
1.000000e+02
1.000000e+02
1.000000e+02
1.000000e+02
1.000000e+02
1.000000e+02
1.000000e+02
1.000000e+02
1.000000e+02
1.000000e+02
1.000000e+02
1.000000e+02
1.000000e+02
1.000000e+02
1.000000e+02
1.000000e+02
1.000000e+02
1.000000e+02
1.000000e+02
1.000000e+02
1.000000e+02
1.000000e+02
1.000000e+02
1.000000e+02
1.000000e+02
0.000000e+00
-4.511143e-01
-7.606782e-01
-1.092203e+00
-1.397895e+00
-1.695526e+00
-2.004489e+00
-2.299310e+00
-2.600224e+00
-2.899312e+00
-3.197429e+00
-3.497929e+00
-3.796873e+00
-4.096477e+00
-4.396574e+00
-4.696036e+00
-4.996108e+00
-5.296016e+00
-5.595849e+00
-5.896048e+00
-6.195971e+00
-6.496345e+00
-6.796110e+00
-7.096416e+00
-7.398857e+00
-7.702415e+00
-8.015988e+00
-8.337889e+00
-8.665963e+00
-9.041416e+00
-9.507592e+00
-9.922304e+00
-1.012953e+01
0.000000e+00
-2.334154e-01
-4.762840e-01
-7.403246e-01
-1.007283e+00
-1.261207e+00
-1.529877e+00
-1.790196e+00
-2.052249e+00
-2.316704e+00
-2.576965e+00
-2.840760e+00
-3.102288e+00
-3.364146e+00
-3.626563e+00
-3.887739e+00
-4.149716e+00
-4.411039e+00
-4.672259e+00
-4.933523e+00
-5.194246e+00
-5.455342e+00
-5.715718e+00
-5.976578e+00
-6.237675e+00
-6.497205e+00
-6.759509e+00
-7.019469e+00
-7.274633e+00
-7.539028e+00
-7.777478e+00
-7.872466e+00
-7.977870e+00
0.000000e+00
-1.197902e-01
-2.708230e-01
-4.684906e-01
-6.819226e-01
-8.876173e-01
-1.112915e+00
-1.334406e+00
-1.557629e+00
-1.784372e+00
-2.006984e+00
-2.232888e+00
-2.457039e+00
-2.681443e+00
-2.906393e+00
-3.130457e+00
-3.355300e+00
-3.579782e+00
-3.804309e+00
-4.028924e+00
-4.253102e+00
-4.477476e+00
-4.701182e+00
-4.924168e+00
-5.144883e+00
-5.359764e+00
-5.567046e+00
-5.761027e+00
-5.935726e+00
-6.081376e+00
-6.155880e+00
-6.158556e+00
-6.251148e+00
0.000000e+00
-1.025297e-01
-1.948864e-01
-3.398881e-01
-4.690797e-01
-6.272896e-01
-8.014660e-01
-9.748236e-01
-1.158114e+00
-1.340563e+00
-1.525075e+00
-1.711251e+00
-1.897748e+00
-2.085180e+00
-2.273492e+00
-2.462133e+00
-2.651777e+00
-2.841868e+00
-3.032299e+00
-3.223021e+00
-3.413119e+00
-3.602378e+00
-3.789204e+00
-3.971537e+00
-4.146839e+00
-4.310203e+00
-4.457737e+00
-4.584086e+00
-4.680586e+00
-4.736208e+00
-4.744806e+00
-4.757670e+00
-4.839082e+00
0.000000e+00
-9.056508e-02
-1.799958e-01
-2.729468e-01
-3.820181e-01
-5.000836e-01
-6.304661e-01
-7.655204e-01
-9.075274e-01
-1.051557e+00
-1.197298e+00
-1.345452e+00
-1.493157e+00
-1.642507e+00
-1.791859e+00
-1.941495e+00
-2.091655e+00
-2.241296e+00
-2.390777e+00
-2.539055e+00
-2.685333e+00
-2.828548e+00
-2.966696e+00
-3.097760e+00
-3.218849e+00
-3.326664e+00
-3.417185e+00
-3.485628e+00
-3.527200e+00
-3.541238e+00
-3.535978e+00
-3.564657e+00
-3.640063e+00
0.000000e+00
-7.226591e-02
-1.424341e-01
-2.162475e-01
-2.967619e-01
-3.845561e-01
-4.787487e-01
-5.791653e-01
-6.829646e-01
-7.899747e-01
-8.985192e-01
-1.007890e+00
-1.118065e+00
-1.228171e+00
-1.338440e+00
-1.448442e+00
-1.557938e+00
-1.666740e+00
-1.774173e+00
-1.879649e+00
-1.982050e+00
-2.079948e+00
-2.171624e+00
-2.254918e+00
-2.327582e+00
-2.387200e+00
-2.431312e+00
-2.457574e+00
-2.465695e+00
-2.455923e+00
-2.450677e+00
-2.480733e+00
-2.550331e+00
0.000000e+00
-4.981609e-02
-9.922847e-02
-1.500286e-01
-2.042679e-01
-2.625370e-01
-3.249624e-01
-3.908583e-01
-4.595343e-01
-5.299868e-01
-6.015362e-01
-6.735787e-01
-7.456703e-01
-8.175752e-01
-8.889959e-01
-9.597415e-01
-1.029538e+00
-1.098031e+00
-1.164750e+00
-1.228961e+00
-1.289653e+00
-1.345470e+00
-1.394772e+00
-1.435761e+00
-1.466609e+00
-1.485642e+00
-1.491664e+00
-1.483597e+00
-1.460733e+00
-1.432190e+00
-1.422873e+00
-1.452774e+00
-1.522335e+00
0.000000e+00
-2.611898e-02
-5.214738e-02
-7.878588e-02
-1.067646e-01
-1.365320e-01
-1.680916e-01
-2.012258e-01
-2.354897e-01
-2.704370e-01
-3.056086e-01
-3.406384e-01
-3.752397e-01
-4.091689e-01
-4.422264e-01
-4.741903e-01
-5.048209e-01
-5.338240e-01
-5.608052e-01
-5.852061e-01
-6.062052e-01
-6.226727e-01
-6.332368e-01
-6.364722e-01
-6.309551e-01
-6.153826e-01
-5.881563e-01
-5.477879e-01
-5.010872e-01
-4.591076e-01
-4.459491e-01
-4.768424e-01
-5.473461e-01
0.000000e+00
-1.708017e-03
-3.455897e-03
-5.183054e-03
-6.824971e-03
-8.306196e-03
-9.539418e-03
-1.042465e-02
-1.085406e-02
-1.071237e-02
-9.878943e-03
-8.229259e-03
-5.635359e-03
-1.960895e-03
2.950121e-03
9.278540e-03
1.722727e-02
2.701846e-02
3.890678e-02
5.322611e-02
7.048345e-02
9.144441e-02
1.171497e-01
1.487269e-01
1.872183e-01
2.346105e-01
2.928672e-01
3.585096e-01
4.203944e-01
4.627920e-01
4.717770e-01
4.380520e-01
3.675768e-01
0.000000e+00
2.276992e-02
4.537083e-02
6.862365e-02
9.339191e-02
1.202727e-01
1.494524e-01
1.809098e-01
2.144085e-01
2.497110e-01
2.865718e-01
3.248420e-01
3.644610e-01
4.054418e-01
4.478880e-01
4.919403e-01
5.377753e-01
5.855817e-01
6.355465e-01
6.878613e-01
7.427547e-01
8.005872e-01
8.618810e-01
9.275375e-01
9.993652e-01
1.078011e+00
1.160384e+00
1.240241e+00
1.305179e+00
1.342559e+00
1.343263e+00
1.307398e+00
1.248075e+00
0.000000e+00
4.666218e-02
9.283445e-02
1.404497e-01
1.916755e-01
2.472802e-01
3.075791e-01
3.721140e-01
4.403767e-01
5.115397e-01
5.850672e-01
6.604734e-01
7.374387e-01
8.158807e-01
8.957426e-01
9.771322e-01
1.060167e+00
1.145047e+00
1.232077e+00
1.321602e+00
1.414005e+00
1.509388e+00
1.607712e+00
1.709048e+00
1.812588e+00
1.916329e+00
2.014915e+00
2.099054e+00
2.160407e+00
2.191225e+00
2.189623e+00
2.161177e+00
2.117649e+00
0.000000e+00
6.941234e-02
1.366323e-01
2.075143e-01
2.853172e-01
3.706989e-01
4.631655e-01
5.627235e-01
6.667762e-01
7.752905e-01
8.867203e-01
1.000391e+00
1.116245e+00
1.233480e+00
1.352327e+00
1.472483e+00
1.593795e+00
1.716382e+00
1.840381e+00
1.966560e+00
2.095890e+00
2.228707e+00
2.363598e+00
2.497204e+00
2.626387e+00
2.747805e+00
2.855617e+00
2.942678e+00
3.002989e+00
3.034952e+00
3.039734e+00
3.022400e+00
2.994367e+00
0.000000e+00
8.816420e-02
1.749144e-01
2.653172e-01
3.716290e-01
4.876556e-01
6.165741e-01
7.512718e-01
8.941210e-01
1.040552e+00
1.190294e+00
1.344015e+00
1.499129e+00
1.657453e+00
1.817617e+00
1.979639e+00
2.143488e+00
2.308230e+00
2.473881e+00
2.640153e+00
2.807007e+00
2.972993e+00
3.136361e+00
3.294692e+00
3.444088e+00
3.580344e+00
3.698203e+00
3.792275e+00
3.859878e+00
3.899858e+00
3.913762e+00
3.907419e+00
3.892547e+00
0.000000e+00
1.007524e-01
1.915338e-01
3.336214e-01
4.604396e-01
6.161944e-01
7.888536e-01
9.615505e-01
1.145369e+00
1.329745e+00
1.517853e+00
1.709106e+00
1.902490e+00
2.098907e+00
2.298332e+00
2.500104e+00
2.704530e+00
2.911004e+00
3.118586e+00
3.326423e+00
3.531773e+00
3.731677e+00
3.924557e+00
4.109229e+00
4.282328e+00
4.437971e+00
4.570682e+00
4.676318e+00
4.753147e+00
4.801588e+00
4.824285e+00
4.827283e+00
4.822326e+00
0.000000e+00
1.198071e-01
2.705247e-01
4.668490e-01
6.779634e-01
8.815210e-01
1.104836e+00
1.324902e+00
1.547303e+00
1.774214e+00
1.997817e+00
2.225718e+00
2.452862e+00
2.681486e+00
2.912082e+00
3.142790e+00
3.375134e+00
3.607936e+00
3.841048e+00
4.074389e+00
4.305337e+00
4.531831e+00
4.754080e+00
4.970381e+00
5.172647e+00
5.350899e+00
5.498465e+00
5.613338e+00
5.696323e+00
5.749892e+00
5.778138e+00
5.787406e+00
5.788477e+00
0.000000e+00
2.336314e-01
4.767004e-01
7.407131e-01
1.007463e+00
1.261244e+00
1.529536e+00
1.789470e+00
2.051155e+00
2.315059e+00
2.574704e+00
2.837769e+00
3.098386e+00
3.359084e+00
3.620130e+00
3.879459e+00
4.139108e+00
4.397556e+00
4.654668e+00
4.911234e+00
5.165714e+00
5.418465e+00
5.671394e+00
5.919750e+00
6.148537e+00
6.344096e+00
6.500829e+00
6.618474e+00
6.699858e+00
6.750039e+00
6.775831e+00
6.785233e+00
6.787526e+00
0.000000e+00
4.508773e-01
7.611491e-01
1.093783e+00
1.401418e+00
1.701156e+00
2.011949e+00
2.308178e+00
2.610216e+00
2.909343e+00
3.206770e+00
3.505679e+00
3.801740e+00
4.097182e+00
4.391396e+00
4.683324e+00
4.974445e+00
5.263906e+00
5.551294e+00
5.838331e+00
6.124331e+00
6.411270e+00
6.699715e+00
6.979818e+00
7.230918e+00
7.438359e+00
7.597184e+00
7.707798e+00
7.774352e+00
7.804665e+00
7.810348e+00
7.805872e+00
7.803314e+00
0.000000e+00
-2.696320e-01
-5.578144e-01
-9.219623e-01
-1.322693e+00
-1.763764e+00
-2.246819e+00
-2.763371e+00
-3.318490e+00
-3.909176e+00
-4.536334e+00
-5.201486e+00
-5.903235e+00
-6.643186e+00
-7.420775e+00
-8.236261e+00
-9.090080e+00
-9.981926e+00
-1.091229e+01
-1.188121e+01
-1.288901e+01
-1.393602e+01
-1.502237e+01
-1.614872e+01
-1.731542e+01
-1.852488e+01
-1.978175e+01
-2.109139e+01
-2.246577e+01
-2.392251e+01
-2.547851e+01
-2.729516e+01
-2.985135e+01
0.000000e+00
-1.719402e-01
-4.777262e-01
-8.346536e-01
-1.240335e+00
-1.679258e+00
-2.162391e+00
-2.680129e+00
-3.234073e+00
-3.825503e+00
-4.452307e+00
-5.117429e+00
-5.819412e+00
-6.559157e+00
-7.336894e+00
-8.152374e+00
-9.006183e+00
-9.898109e+00
-1.082845e+01
-1.179741e+01
-1.280515e+01
-1.385220e+01
-1.493855e+01
-1.606465e+01
-1.723142e+01
-1.844006e+01
-1.969563e+01
-2.100530e+01
-2.237699e+01
-2.382787e+01
-2.540486e+01
-2.720517e+01
-2.947430e+01
0.000000e+00
-1.461186e-01
-4.198761e-01
-7.757642e-01
-1.173784e+00
-1.610678e+00
-2.092288e+00
-2.608934e+00
-3.162586e+00
-3.753712e+00
-4.380563e+00
-5.045553e+00
-5.747736e+00
-6.487406e+00
-7.265311e+00
-8.080810e+00
-8.934679e+00
-9.826720e+00
-1.075709e+01
-1.172619e+01
-1.273394e+01
-1.378110e+01
-1.486758e+01
-1.599405e+01
-1.716203e+01
-1.837220e+01
-1.963036e+01
-2.094353e+01
-2.232040e+01
-2.379233e+01
-2.540586e+01
-2.710020e+01
-2.886377e+01
0.000000e+00
-1.765708e-01
-4.135765e-01
-7.603371e-01
-1.135170e+00
-1.565043e+00
-2.042608e+00
-2.553608e+00
-3.107054e+00
-3.696326e+00
-4.322698e+00
-4.987667e+00
-5.689352e+00
-6.429219e+00
-7.207059e+00
-8.022512e+00
-8.876564e+00
-9.768615e+00
-1.069924e+01
-1.166869e+01
-1.267686e+01
-1.372472e+01
-1.481231e+01
-1.594060e+01
-1.711147e+01
-1.832611e+01
-1.958969e+01
-2.090905e+01
-2.229600e+01
-2.378357e+01
-2.539002e+01
-2.694731e+01
-2.836041e+01
0.000000e+00
-1.952236e-01
-4.413772e-01
-7.601032e-01
-1.129357e+00
-1.545113e+00
-2.013884e+00
-2.519076e+00
-3.068542e+00
-3.655861e+00
-4.280624e+00
-4.945365e+00
-5.646395e+00
-6.386457e+00
-7.164264e+00
-7.979842e+00
-8.834215e+00
-9.726509e+00
-1.065776e+01
-1.162799e+01
-1.263742e+01
-1.368698e+01
-1.477691e+01
-1.590836e+01
-1.708285e+01
-1.830244e+01
-1.957126e+01
-2.089523e+01
-2.228414e+01
-2.376030e+01
-2.530213e+01
-2.674374e+01
-2.800230e+01
0.000000e+00
-2.031692e-01
-4.561550e-01
-7.650000e-01
-1.126061e+00
-1.536455e+00
-1.994904e+00
-2.497134e+00
-3.041637e+00
-3.626856e+00
-4.251085e+00
-4.914492e+00
-5.616177e+00
-6.356121e+00
-7.134362e+00
-7.950681e+00
-8.805479e+00
-9.698831e+00
-1.063114e+01
-1.160289e+01
-1.261453e+01
-1.366671e+01
-1.475999e+01
-1.589512e+01
-1.707319e+01
-1.829602e+01
-1.956700e+01
-2.088985e+01
-2.226578e+01
-2.370509e+01
-2.515385e+01
-2.651475e+01
-2.769707e+01
0.000000e+00
-2.070683e-01
-4.622305e-01
-7.681745e-01
-1.124819e+00
-1.530750e+00
-1.984162e+00
-2.482803e+00
-3.024697e+00
-3.608137e+00
-4.231883e+00
-4.895062e+00
-5.597110e+00
-6.337685e+00
-7.116621e+00
-7.933920e+00
-8.789710e+00
-9.684277e+00
-1.061807e+01
-1.159169e+01
-1.260581e+01
-1.366103e+01
-1.475779e+01
-1.589638e+01
-1.707711e+01
-1.830071e+01
-1.956915e+01
-2.088385e+01
-2.223357e+01
-2.362215e+01
-2.499488e+01
-2.628439e+01
-2.740626e+01
0.000000e+00
-2.085837e-01
-4.646099e-01
-7.697068e-01
-1.124340e+00
-1.527851e+00
-1.978850e+00
-2.475558e+00
-3.016148e+00
-3.598983e+00
-4.222712e+00
-4.886333e+00
-5.589126e+00
-6.330646e+00
-7.110667e+00
-7.929136e+00
-8.786169e+00
-9.682060e+00
-1.061733e+01
-1.159273e+01
-1.260909e+01
-1.366707e+01
-1.476683e+01
-1.590802e+01
-1.708989e+01
-1.831149e+01
-1.957226e+01
-2.087044e+01
-2.218791e+01
-2.352433e+01
-2.483436e+01
-2.605738e+01
-2.712055e+01
0.000000e+00
-2.089055e-01
-4.651813e-01
-7.701664e-01
-1.124394e+00
-1.527418e+00
-1.978031e+00
-2.474594e+00
-3.015360e+00
-3.598703e+00
-4.223247e+00
-4.887908e+00
-5.591898e+00
-6.334706e+00
-7.116068e+00
-7.935896e+00
-8.794252e+00
-9.691399e+00
-1.062788e+01
-1.160455e+01
-1.262245e+01
-1.368239e+01
-1.478421e+01
-1.592655e+01
-1.710731e+01
-1.832325e+01
-1.957109e+01
-2.084687e+01
-2.213436e+01
-2.341942e+01
-2.467100e+01
-2.582679e+01
-2.682627e+01
0.000000e+00
-2.083736e-01
-4.644312e-01
-7.698029e-01
-1.124969e+00
-1.529301e+00
-1.981442e+00
-2.479632e+00
-3.022053e+00
-3.607057e+00
-4.233251e+00
-4.899554e+00
-5.605153e+00
-6.349533e+00
-7.132425e+00
-7.953711e+00
-8.813382e+00
-9.711605e+00
-1.064886e+01
-1.162606e+01
-1.264450e+01
-1.370513e+01
-1.480755e+01
-1.594881e+01
-1.712449e+01
-1.833119e+01
-1.956413e+01
-2.081726e+01
-2.207503e+01
-2.331692e+01
-2.451284e+01
-2.561307e+01
-2.657253e+01
0.000000e+00
-2.066433e-01
-4.618678e-01
-7.683539e-01
-1.126046e+00
-1.533606e+00
-1.989299e+00
-2.490905e+00
-3.036445e+00
-3.624182e+00
-4.252787e+00
-4.921222e+00
-5.628735e+00
-6.374853e+00
-7.159336e+00
-7.982051e+00
-8.842891e+00
-9.741913e+00
-1.067946e+01
-1.165644e+01
-1.267426e+01
-1.373394e+01
-1.483426e+01
-1.597082e+01
-1.713866e+01
-1.833499e+01
-1.955442e+01
-2.078638e+01
-2.201621e+01
-2.322079e+01
-2.437325e+01
-2.543869e+01
-2.638277e+01
0.000000e+00
-2.025082e-01
-4.555747e-01
-7.652295e-01
-1.127787e+00
-1.540589e+00
-2.002489e+00
-2.509179e+00
-3.059141e+00
-3.650750e+00
-4.282155e+00
-4.953219e+00
-5.662799e+00
-6.410646e+00
-7.196704e+00
-8.020546e+00
-8.882165e+00
-9.781442e+00
-1.071858e+01
-1.169452e+01
-1.271058e+01
-1.376682e+01
-1.486161e+01
-1.599121e+01
-1.715143e+01
-1.833891e+01
-1.954633e+01
-2.076066e+01
-2.196515e+01
-2.314017e+01
-2.426315e+01
-2.530999e+01
-2.625544e+01
0.000000e+00
-1.942570e-01
-4.404916e-01
-7.602981e-01
-1.131271e+00
-1.550277e+00
-2.023666e+00
-2.534853e+00
-3.091590e+00
-3.687396e+00
-4.321604e+00
-4.996217e+00
-5.707446e+00
-6.457401e+00
-7.244901e+00
-8.069464e+00
-8.931428e+00
-9.830049e+00
-1.076578e+01
-1.173953e+01
-1.275213e+01
-1.380258e+01
-1.489000e+01
-1.601294e+01
-1.716777e+01
-1.834908e+01
-1.954686e+01
-2.074569e+01
-2.192941e+01
-2.308134e+01
-2.418473e+01
-2.522339e+01
-2.618183e+01
0.000000e+00
-1.752105e-01
-4.125671e-01
-7.599120e-01
-1.136982e+00
-1.570585e+00
-2.053924e+00
-2.572247e+00
-3.134718e+00
-3.734320e+00
-4.372093e+00
-5.048967e+00
-5.762711e+00
-6.514316e+00
-7.303261e+00
-8.128502e+00
-8.990322e+00
-9.888066e+00
-1.082170e+01
-1.179232e+01
-1.279985e+01
-1.384344e+01
-1.492399e+01
-1.604232e+01
-1.719467e+01
-1.837172e+01
-1.956042e+01
-2.074508e+01
-2.191128e+01
-2.304529e+01
-2.413501e+01
-2.517144e+01
-2.614944e+01
0.000000e+00
-1.451810e-01
-4.188136e-01
-7.750778e-01
-1.175036e+00
-1.615950e+00
-2.103730e+00
-2.628427e+00
-3.191945e+00
-3.794424e+00
-4.433578e+00
-5.111548e+00
-5.826826e+00
-6.579268e+00
-7.369086e+00
-8.194701e+00
-9.056443e+00
-9.953662e+00
-1.088587e+01
-1.185377e+01
-1.285678e+01
-1.389494e+01
-1.497110e+01
-1.608722e+01
-1.723722e+01
-1.840845e+01
-1.958663e+01
-2.075803e+01
-2.190963e+01
-2.302963e+01
-2.410919e+01
-2.514528e+01
-2.614348e+01
0.000000e+00
-1.712274e-01
-4.765209e-01
-8.337116e-01
-1.241215e+00
-1.684243e+00
-2.173626e+00
-2.699655e+00
-3.263748e+00
-3.866842e+00
-4.506252e+00
-5.184692e+00
-5.900112e+00
-6.652953e+00
-7.442772e+00
-8.268341e+00
-9.129856e+00
-1.002651e+01
-1.095793e+01
-1.192418e+01
-1.292476e+01
-1.396080e+01
-1.503568e+01
-1.614958e+01
-1.729402e+01
-1.845581e+01
-1.962221e+01
-2.078104e+01
-2.192027e+01
-2.302920e+01
-2.410083e+01
-2.513582e+01
-2.614799e+01
0.000000e+00
-2.690091e-01
-5.567630e-01
-9.212090e-01
-1.323879e+00
-1.769017e+00
-2.258255e+00
-2.783084e+00
-3.348286e+00
-3.950491e+00
-4.590190e+00
-5.268509e+00
-5.983522e+00
-6.736349e+00
-7.525688e+00
-8.350937e+00
-9.212092e+00
-1.010814e+01
-1.103904e+01
-1.200463e+01
-1.300450e+01
-1.404067e+01