TITLE = "Solution"
VARIABLES = x, y, u, v, psiu, psiv, t, stress
ZONE T="structure" N=561 E=512 F=FEBLOCK ET=QUADRILATERAL VARLOCATION=([7,8]=cellcentered)
0.000000e+00
6.250000e+00
1.250000e+01
1.875000e+01
2.500000e+01
3.125000e+01
3.750000e+01
4.375000e+01
5.000000e+01
5.625000e+01
6.250000e+01
6.875000e+01
7.500000e+01
8.125000e+01
8.750000e+01
9.375000e+01
1.000000e+02
1.062500e+02
1.125000e+02
1.187500e+02
1.250000e+02
1.312500e+02
1.375000e+02
1.437500e+02
1.500000e+02
1.562500e+02
1.625000e+02
1.687500e+02
1.750000e+02
1.812500e+02
1.875000e+02
1.937500e+02
2.000000e+02
0.000000e+00
6.250000e+00
1.250000e+01
1.875000e+01
2.500000e+01
3.125000e+01
3.750000e+01
4.375000e+01
5.000000e+01
5.625000e+01
6.250000e+01
6.875000e+01
7.500000e+01
8.125000e+01
8.750000e+01
9.375000e+01
1.000000e+02
1.062500e+02
1.125000e+02
1.187500e+02
1.250000e+02
1.312500e+02
1.375000e+02
1.437500e+02
1.500000e+02
1.562500e+02
1.625000e+02
1.687500e+02
1.750000e+02
1.812500e+02
1.875000e+02
1.937500e+02
2.000000e+02
0.000000e+00
6.250000e+00
1.250000e+01
1.875000e+01
2.500000e+01
3.125000e+01
3.750000e+01
4.375000e+01
5.000000e+01
5.625000e+01
6.250000e+01
6.875000e+01
7.500000e+01
8.125000e+01
8.750000e+01
9.375000e+01
1.000000e+02
1.062500e+02
1.125000e+02
1.187500e+02
1.250000e+02
1.312500e+02
1.375000e+02
1.437500e+02
1.500000e+02
1.562500e+02
1.625000e+02
1.687500e+02
1.750000e+02
1.812500e+02
1.875000e+02
1.937500e+02
2.000000e+02
0.000000e+00
6.250000e+00
1.250000e+01
1.875000e+01
2.500000e+01
3.125000e+01
3.750000e+01
4.375000e+01
5.000000e+01
5.625000e+01
6.250000e+01
6.875000e+01
7.500000e+01
8.125000e+01
8.750000e+01
9.375000e+01
1.000000e+02
1.062500e+02
1.125000e+02
1.187500e+02
1.250000e+02
1.312500e+02
1.375000e+02
1.437500e+02
1.500000e+02
1.562500e+02
1.625000e+02
1.687500e+02
1.750000e+02
1.812500e+02
1.875000e+02
1.937500e+02
2.000000e+02
0.000000e+00
6.250000e+00
1.250000e+01
1.875000e+01
2.500000e+01
3.125000e+01
3.750000e+01
4.375000e+01
5.000000e+01
5.625000e+01
6.250000e+01
6.875000e+01
7.500000e+01
8.125000e+01
8.750000e+01
9.375000e+01
1.000000e+02
1.062500e+02
1.125000e+02
1.187500e+02
1.250000e+02
1.312500e+02
1.375000e+02
1.437500e+02
1.500000e+02
1.562500e+02
1.625000e+02
1.687500e+02
1.750000e+02
1.812500e+02
1.875000e+02
1.937500e+02
2.000000e+02
0.000000e+00
6.250000e+00
1.250000e+01
1.875000e+01
2.500000e+01
3.125000e+01
3.750000e+01
4.375000e+01
5.000000e+01
5.625000e+01
6.250000e+01
6.875000e+01
7.500000e+01
8.125000e+01
8.750000e+01
9.375000e+01
1.000000e+02
1.062500e+02
1.125000e+02
1.187500e+02
1.250000e+02
1.312500e+02
1.375000e+02
1.437500e+02
1.500000e+02
1.562500e+02
1.625000e+02
1.687500e+02
1.750000e+02
1.812500e+02
1.875000e+02
1.937500e+02
2.000000e+02
0.000000e+00
6.250000e+00
1.250000e+01
1.875000e+01
2.500000e+01
3.125000e+01
3.750000e+01
4.375000e+01
5.000000e+01
5.625000e+01
6.250000e+01
6.875000e+01
7.500000e+01
8.125000e+01
8.750000e+01
9.375000e+01
1.000000e+02
1.062500e+02
1.125000e+02
1.187500e+02
1.250000e+02
1.312500e+02
1.375000e+02
1.437500e+02
1.500000e+02
1.562500e+02
1.625000e+02
1.687500e+02
1.750000e+02
1.812500e+02
1.875000e+02
1.937500e+02
2.000000e+02
0.000000e+00
6.250000e+00
1.250000e+01
1.875000e+01
2.500000e+01
3.125000e+01
3.750000e+01
4.375000e+01
5.000000e+01
5.625000e+01
6.250000e+01
6.875000e+01
7.500000e+01
8.125000e+01
8.750000e+01
9.375000e+01
1.000000e+02
1.062500e+02
1.125000e+02
1.187500e+02
1.250000e+02
1.312500e+02
1.375000e+02
1.437500e+02
1.500000e+02
1.562500e+02
1.625000e+02
1.687500e+02
1.750000e+02
1.812500e+02
1.875000e+02
1.937500e+02
2.000000e+02
0.000000e+00
6.250000e+00
1.250000e+01
1.875000e+01
2.500000e+01
3.125000e+01
3.750000e+01
4.375000e+01
5.000000e+01
5.625000e+01
6.250000e+01
6.875000e+01
7.500000e+01
8.125000e+01
8.750000e+01
9.375000e+01
1.000000e+02
1.062500e+02
1.125000e+02
1.187500e+02
1.250000e+02
1.312500e+02
1.375000e+02
1.437500e+02
1.500000e+02
1.562500e+02
1.625000e+02
1.687500e+02
1.750000e+02
1.812500e+02
1.875000e+02
1.937500e+02
2.000000e+02
0.000000e+00
6.250000e+00
1.250000e+01
1.875000e+01
2.500000e+01
3.125000e+01
3.750000e+01
4.375000e+01
5.000000e+01
5.625000e+01
6.250000e+01
6.875000e+01
7.500000e+01
8.125000e+01
8.750000e+01
9.375000e+01
1.000000e+02
1.062500e+02
1.125000e+02
1.187500e+02
1.250000e+02
1.312500e+02
1.375000e+02
1.437500e+02
1.500000e+02
1.562500e+02
1.625000e+02
1.687500e+02
1.750000e+02
1.812500e+02
1.875000e+02
1.937500e+02
2.000000e+02
0.000000e+00
6.250000e+00
1.250000e+01
1.875000e+01
2.500000e+01
3.125000e+01
3.750000e+01
4.375000e+01
5.000000e+01
5.625000e+01
6.250000e+01
6.875000e+01
7.500000e+01
8.125000e+01
8.750000e+01
9.375000e+01
1.000000e+02
1.062500e+02
1.125000e+02
1.187500e+02
1.250000e+02
1.312500e+02
1.375000e+02
1.437500e+02
1.500000e+02
1.562500e+02
1.625000e+02
1.687500e+02
1.750000e+02
1.812500e+02
1.875000e+02
1.937500e+02
2.000000e+02
0.000000e+00
6.250000e+00
1.250000e+01
1.875000e+01
2.500000e+01
3.125000e+01
3.750000e+01
4.375000e+01
5.000000e+01
5.625000e+01
6.250000e+01
6.875000e+01
7.500000e+01
8.125000e+01
8.750000e+01
9.375000e+01
1.000000e+02
1.062500e+02
1.125000e+02
1.187500e+02
1.250000e+02
1.312500e+02
1.375000e+02
1.437500e+02
1.500000e+02
1.562500e+02
1.625000e+02
1.687500e+02
1.750000e+02
1.812500e+02
1.875000e+02
1.937500e+02
2.000000e+02
0.000000e+00
6.250000e+00
1.250000e+01
1.875000e+01
2.500000e+01
3.125000e+01
3.750000e+01
4.375000e+01
5.000000e+01
5.625000e+01
6.250000e+01
6.875000e+01
7.500000e+01
8.125000e+01
8.750000e+01
9.375000e+01
1.000000e+02
1.062500e+02
1.125000e+02
1.187500e+02
1.250000e+02
1.312500e+02
1.375000e+02
1.437500e+02
1.500000e+02
1.562500e+02
1.625000e+02
1.687500e+02
1.750000e+02
1.812500e+02
1.875000e+02
1.937500e+02
2.000000e+02
0.000000e+00
6.250000e+00
1.250000e+01
1.875000e+01
2.500000e+01
3.125000e+01
3.750000e+01
4.375000e+01
5.000000e+01
5.625000e+01
6.250000e+01
6.875000e+01
7.500000e+01
8.125000e+01
8.750000e+01
9.375000e+01
1.000000e+02
1.062500e+02
1.125000e+02
1.187500e+02
1.250000e+02
1.312500e+02
1.375000e+02
1.437500e+02
1.500000e+02
1.562500e+02
1.625000e+02
1.687500e+02
1.750000e+02
1.812500e+02
1.875000e+02
1.937500e+02
2.000000e+02
0.000000e+00
6.250000e+00
1.250000e+01
1.875000e+01
2.500000e+01
3.125000e+01
3.750000e+01
4.375000e+01
5.000000e+01
5.625000e+01
6.250000e+01
6.875000e+01
7.500000e+01
8.125000e+01
8.750000e+01
9.375000e+01
1.000000e+02
1.062500e+02
1.125000e+02
1.187500e+02
1.250000e+02
1.312500e+02
1.375000e+02
1.437500e+02
1.500000e+02
1.562500e+02
1.625000e+02
1.687500e+02
1.750000e+02
1.812500e+02
1.875000e+02
1.937500e+02
2.000000e+02
0.000000e+00
6.250000e+00
1.250000e+01
1.875000e+01
2.500000e+01
3.125000e+01
3.750000e+01
4.375000e+01
5.000000e+01
5.625000e+01
6.250000e+01
6.875000e+01
7.500000e+01
8.125000e+01
8.750000e+01
9.375000e+01
1.000000e+02
1.062500e+02
1.125000e+02
1.187500e+02
1.250000e+02
1.312500e+02
1.375000e+02
1.437500e+02
1.500000e+02
1.562500e+02
1.625000e+02
1.687500e+02
1.750000e+02
1.812500e+02
1.875000e+02
1.937500e+02
2.000000e+02
0.000000e+00
6.250000e+00
1.250000e+01
1.875000e+01
2.500000e+01
3.125000e+01
3.750000e+01
4.375000e+01
5.000000e+01
5.625000e+01
6.250000e+01
6.875000e+01
7.500000e+01
8.125000e+01
8.750000e+01
9.375000e+01
1.000000e+02
1.062500e+02
1.125000e+02
1.187500e+02
1.250000e+02
1.312500e+02
1.375000e+02
1.437500e+02
1.500000e+02
1.562500e+02
1.625000e+02
1.687500e+02
1.750000e+02
1.812500e+02
1.875000e+02
1.937500e+02
2.000000e+02
0.000000e+00
0.000000e+00
0.000000e+00
0.000000e+00
0.000000e+00
0.000000e+00
0.000000e+00
0.000000e+00
0.000000e+00
0.000000e+00
0.000000e+00
0.000000e+00
0.000000e+00
0.000000e+00
0.000000e+00
0.000000e+00
0.000000e+00
0.000000e+00
0.000000e+00
0.000000e+00
0.000000e+00
0.000000e+00
0.000000e+00
0.000000e+00
0.000000e+00
0.000000e+00
0.000000e+00
0.000000e+00
0.000000e+00
0.000000e+00
0.000000e+00
0.000000e+00
0.000000e+00
6.250000e+00
6.250000e+00
6.250000e+00
6.250000e+00
6.250000e+00
6.250000e+00
6.250000e+00
6.250000e+00
6.250000e+00
6.250000e+00
6.250000e+00
6.250000e+00
6.250000e+00
6.250000e+00
6.250000e+00
6.250000e+00
6.250000e+00
6.250000e+00
6.250000e+00
6.250000e+00
6.250000e+00
6.250000e+00
6.250000e+00
6.250000e+00
6.250000e+00
6.250000e+00
6.250000e+00
6.250000e+00
6.250000e+00
6.250000e+00
6.250000e+00
6.250000e+00
6.250000e+00
1.250000e+01
1.250000e+01
1.250000e+01
1.250000e+01
1.250000e+01
1.250000e+01
1.250000e+01
1.250000e+01
1.250000e+01
1.250000e+01
1.250000e+01
1.250000e+01
1.250000e+01
1.250000e+01
1.250000e+01
1.250000e+01
1.250000e+01
1.250000e+01
1.250000e+01
1.250000e+01
1.250000e+01
1.250000e+01
1.250000e+01
1.250000e+01
1.250000e+01
1.250000e+01
1.250000e+01
1.250000e+01
1.250000e+01
1.250000e+01
1.250000e+01
1.250000e+01
1.250000e+01
1.875000e+01
1.875000e+01
1.875000e+01
1.875000e+01
1.875000e+01
1.875000e+01
1.875000e+01
1.875000e+01
1.875000e+01
1.875000e+01
1.875000e+01
1.875000e+01
1.875000e+01
1.875000e+01
1.875000e+01
1.875000e+01
1.875000e+01
1.875000e+01
1.875000e+01
1.875000e+01
1.875000e+01
1.875000e+01
1.875000e+01
1.875000e+01
1.875000e+01
1.875000e+01
1.875000e+01
1.875000e+01
1.875000e+01
1.875000e+01
1.875000e+01
1.875000e+01
1.875000e+01
2.500000e+01
2.500000e+01
2.500000e+01
2.500000e+01
2.500000e+01
2.500000e+01
2.500000e+01
2.500000e+01
2.500000e+01
2.500000e+01
2.500000e+01
2.500000e+01
2.500000e+01
2.500000e+01
2.500000e+01
2.500000e+01
2.500000e+01
2.500000e+01
2.500000e+01
2.500000e+01
2.500000e+01
2.500000e+01
2.500000e+01
2.500000e+01
2.500000e+01
2.500000e+01
2.500000e+01
2.500000e+01
2.500000e+01
2.500000e+01
2.500000e+01
2.500000e+01
2.500000e+01
3.125000e+01
3.125000e+01
3.125000e+01
3.125000e+01
3.125000e+01
3.125000e+01
3.125000e+01
3.125000e+01
3.125000e+01
3.125000e+01
3.125000e+01
3.125000e+01
3.125000e+01
3.125000e+01
3.125000e+01
3.125000e+01
3.125000e+01
3.125000e+01
3.125000e+01
3.125000e+01
3.125000e+01
3.125000e+01
3.125000e+01
3.125000e+01
3.125000e+01
3.125000e+01
3.125000e+01
3.125000e+01
3.125000e+01
3.125000e+01
3.125000e+01
3.125000e+01
3.125000e+01
3.750000e+01
3.750000e+01
3.750000e+01
3.750000e+01
3.750000e+01
3.750000e+01
3.750000e+01
3.750000e+01
3.750000e+01
3.750000e+01
3.750000e+01
3.750000e+01
3.750000e+01
3.750000e+01
3.750000e+01
3.750000e+01
3.750000e+01
3.750000e+01
3.750000e+01
3.750000e+01
3.750000e+01
3.750000e+01
3.750000e+01
3.750000e+01
3.750000e+01
3.750000e+01
3.750000e+01
3.750000e+01
3.750000e+01
3.750000e+01
3.750000e+01
3.750000e+01
3.750000e+01
4.375000e+01
4.375000e+01
4.375000e+01
4.375000e+01
4.375000e+01
4.375000e+01
4.375000e+01
4.375000e+01
4.375000e+01
4.375000e+01
4.375000e+01
4.375000e+01
4.375000e+01
4.375000e+01
4.375000e+01
4.375000e+01
4.375000e+01
4.375000e+01
4.375000e+01
4.375000e+01
4.375000e+01
4.375000e+01
4.375000e+01
4.375000e+01
4.375000e+01
4.375000e+01
4.375000e+01
4.375000e+01
4.375000e+01
4.375000e+01
4.375000e+01
4.375000e+01
4.375000e+01
5.000000e+01
5.000000e+01
5.000000e+01
5.000000e+01
5.000000e+01
5.000000e+01
5.000000e+01
5.000000e+01
5.000000e+01
5.000000e+01
5.000000e+01
5.000000e+01
5.000000e+01
5.000000e+01
5.000000e+01
5.000000e+01
5.000000e+01
5.000000e+01
5.000000e+01
5.000000e+01
5.000000e+01
5.000000e+01
5.000000e+01
5.000000e+01
5.000000e+01
5.000000e+01
5.000000e+01
5.000000e+01
5.000000e+01
5.000000e+01
5.000000e+01
5.000000e+01
5.000000e+01
5.625000e+01
5.625000e+01
5.625000e+01
5.625000e+01
5.625000e+01
5.625000e+01
5.625000e+01
5.625000e+01
5.625000e+01
5.625000e+01
5.625000e+01
5.625000e+01
5.625000e+01
5.625000e+01
5.625000e+01
5.625000e+01
5.625000e+01
5.625000e+01
5.625000e+01
5.625000e+01
5.625000e+01
5.625000e+01
5.625000e+01
5.625000e+01
5.625000e+01
5.625000e+01
5.625000e+01
5.625000e+01
5.625000e+01
5.625000e+01
5.625000e+01
5.625000e+01
5.625000e+01
6.250000e+01
6.250000e+01
6.250000e+01
6.250000e+01
6.250000e+01
6.250000e+01
6.250000e+01
6.250000e+01
6.250000e+01
6.250000e+01
6.250000e+01
6.250000e+01
6.250000e+01
6.250000e+01
6.250000e+01
6.250000e+01
6.250000e+01
6.250000e+01
6.250000e+01
6.250000e+01
6.250000e+01
6.250000e+01
6.250000e+01
6.250000e+01
6.250000e+01
6.250000e+01
6.250000e+01
6.250000e+01
6.250000e+01
6.250000e+01
6.250000e+01
6.250000e+01
6.250000e+01
6.875000e+01
6.875000e+01
6.875000e+01
6.875000e+01
6.875000e+01
6.875000e+01
6.875000e+01
6.875000e+01
6.875000e+01
6.875000e+01
6.875000e+01
6.875000e+01
6.875000e+01
6.875000e+01
6.875000e+01
6.875000e+01
6.875000e+01
6.875000e+01
6.875000e+01
6.875000e+01
6.875000e+01
6.875000e+01
6.875000e+01
6.875000e+01
6.875000e+01
6.875000e+01
6.875000e+01
6.875000e+01
6.875000e+01
6.875000e+01
6.875000e+01
6.875000e+01
6.875000e+01
7.500000e+01
7.500000e+01
7.500000e+01
7.500000e+01
7.500000e+01
7.500000e+01
7.500000e+01
7.500000e+01
7.500000e+01
7.500000e+01
7.500000e+01
7.500000e+01
7.500000e+01
7.500000e+01
7.500000e+01
7.500000e+01
7.500000e+01
7.500000e+01
7.500000e+01
7.500000e+01
7.500000e+01
7.500000e+01
7.500000e+01
7.500000e+01
7.500000e+01
7.500000e+01
7.500000e+01
7.500000e+01
7.500000e+01
7.500000e+01
7.500000e+01
7.500000e+01
7.500000e+01
8.125000e+01
8.125000e+01
8.125000e+01
8.125000e+01
8.125000e+01
8.125000e+01
8.125000e+01
8.125000e+01
8.125000e+01
8.125000e+01
8.125000e+01
8.125000e+01
8.125000e+01
8.125000e+01
8.125000e+01
8.125000e+01
8.125000e+01
8.125000e+01
8.125000e+01
8.125000e+01
8.125000e+01
8.125000e+01
8.125000e+01
8.125000e+01
8.125000e+01
8.125000e+01
8.125000e+01
8.125000e+01
8.125000e+01
8.125000e+01
8.125000e+01
8.125000e+01
8.125000e+01
8.750000e+01
8.750000e+01
8.750000e+01
8.750000e+01
8.750000e+01
8.750000e+01
8.750000e+01
8.750000e+01
8.750000e+01
8.750000e+01
8.750000e+01
8.750000e+01
8.750000e+01
8.750000e+01
8.750000e+01
8.750000e+01
8.750000e+01
8.750000e+01
8.750000e+01
8.750000e+01
8.750000e+01
8.750000e+01
8.750000e+01
8.750000e+01
8.750000e+01
8.750000e+01
8.750000e+01
8.750000e+01
8.750000e+01
8.750000e+01
8.750000e+01
8.750000e+01
8.750000e+01
9.375000e+01
9.375000e+01
9.375000e+01
9.375000e+01
9.375000e+01
9.375000e+01
9.375000e+01
9.375000e+01
9.375000e+01
9.375000e+01
9.375000e+01
9.375000e+01
9.375000e+01
9.375000e+01
9.375000e+01
9.375000e+01
9.375000e+01
9.375000e+01
9.375000e+01
9.375000e+01
9.375000e+01
9.375000e+01
9.375000e+01
9.375000e+01
9.375000e+01
9.375000e+01
9.375000e+01
9.375000e+01
9.375000e+01
9.375000e+01
9.375000e+01
9.375000e+01
9.375000e+01
1.000000e+02
1.000000e+02
1.000000e+02
1.000000e+02
1.000000e+02
1.000000e+02
1.000000e+02
1.000000e+02
1.000000e+02
1.000000e+02
1.000000e+02
1.000000e+02
1.000000e+02
1.000000e+02
1.000000e+02
1.000000e+02
1.000000e+02
1.000000e+02
1.000000e+02
1.000000e+02
1.000000e+02
1.000000e+02
1.000000e+02
1.000000e+02
1.000000e+02
1.000000e+02
1.000000e+02
1.000000e+02
1.000000e+02
1.000000e+02
1.000000e+02
1.000000e+02
1.000000e+02
0.000000e+00
-3.793692e-01
-6.809288e-01
-9.759989e-01
-1.277343e+00
-1.569757e+00
-1.861961e+00
-2.155658e+00
-2.447672e+00
-2.738467e+00
-3.028816e+00
-3.318269e+00
-3.606453e+00
-3.893274e+00
-4.178500e+00
-4.461737e+00
-4.742508e+00
-5.020178e+00
-5.293848e+00
-5.562333e+00
-5.824309e+00
-6.078630e+00
-6.324706e+00
-6.562816e+00
-6.794310e+00
-7.021711e+00
-7.248808e+00
-7.480907e+00
-7.725693e+00
-7.994295e+00
-8.293303e+00
-8.607287e+00
-8.788608e+00
0.000000e+00
-2.382678e-01
-4.931025e-01
-7.495856e-01
-1.013142e+00
-1.269479e+00
-1.525305e+00
-1.782538e+00
-2.038316e+00
-2.292849e+00
-2.546889e+00
-2.800093e+00
-3.052123e+00
-3.302902e+00
-3.552246e+00
-3.799820e+00
-4.045207e+00
-4.287851e+00
-4.526948e+00
-4.761394e+00
-4.989881e+00
-5.211120e+00
-5.424125e+00
-5.628434e+00
-5.824190e+00
-6.012079e+00
-6.193156e+00
-6.368478e+00
-6.537958e+00
-6.695270e+00
-6.816016e+00
-6.878120e+00
-6.959079e+00
0.000000e+00
-1.749441e-01
-3.632421e-01
-5.721856e-01
-7.914834e-01
-1.008661e+00
-1.227292e+00
-1.447508e+00
-1.667066e+00
-1.885971e+00
-2.104507e+00
-2.322321e+00
-2.539112e+00
-2.754724e+00
-2.968909e+00
-3.181295e+00
-3.391415e+00
-3.598652e+00
-3.802163e+00
-4.000843e+00
-4.193373e+00
-4.378355e+00
-4.554475e+00
-4.720605e+00
-4.875786e+00
-5.019061e+00
-5.149120e+00
-5.263579e+00
-5.357376e+00
-5.419580e+00
-5.436760e+00
-5.431335e+00
-5.513240e+00
0.000000e+00
-1.343941e-01
-2.788745e-01
-4.407817e-01
-6.141799e-01
-7.909676e-01
-9.713895e-01
-1.153840e+00
-1.336691e+00
-1.519647e+00
-1.702460e+00
-1.884701e+00
-2.066051e+00
-2.246238e+00
-2.424910e+00
-2.601625e+00
-2.775834e+00
-2.946840e+00
-3.113756e+00
-3.275481e+00
-3.430717e+00
-3.578025e+00
-3.715887e+00
-3.842729e+00
-3.956865e+00
-4.056336e+00
-4.138632e+00
-4.200308e+00
-4.236720e+00
-4.243499e+00
-4.228593e+00
-4.231065e+00
-4.306204e+00
0.000000e+00
-1.083090e-01
-2.212705e-01
-3.444348e-01
-4.755791e-01
-6.130097e-01
-7.545797e-01
-8.985457e-01
-1.043859e+00
-1.189821e+00
-1.335861e+00
-1.481523e+00
-1.626430e+00
-1.770207e+00
-1.912432e+00
-2.052614e+00
-2.190154e+00
-2.324323e+00
-2.454230e+00
-2.578812e+00
-2.696827e+00
-2.806858e+00
-2.907332e+00
-2.996518e+00
-3.072502e+00
-3.133146e+00
-3.176090e+00
-3.199003e+00
-3.200711e+00
-3.185146e+00
-3.171354e+00
-3.194633e+00
-3.268323e+00
0.000000e+00
-8.179783e-02
-1.665957e-01
-2.562077e-01
-3.517234e-01
-4.521799e-01
-5.563226e-01
-6.629152e-01
-7.710292e-01
-8.799427e-01
-9.890733e-01
-1.097956e+00
-1.206186e+00
-1.313361e+00
-1.419043e+00
-1.522730e+00
-1.623827e+00
-1.721622e+00
-1.815268e+00
-1.903776e+00
-1.985995e+00
-2.060615e+00
-2.126177e+00
-2.181091e+00
-2.223694e+00
-2.252366e+00
-2.265829e+00
-2.263876e+00
-2.249061e+00
-2.230174e+00
-2.226705e+00
-2.259494e+00
-2.332048e+00
0.000000e+00
-5.468339e-02
-1.110985e-01
-1.703236e-01
-2.329289e-01
-2.987928e-01
-3.672598e-01
-4.375989e-01
-5.091471e-01
-5.813438e-01
-6.537241e-01
-7.258954e-01
-7.974993e-01
-8.681744e-01
-9.375249e-01
-1.005094e+00
-1.070341e+00
-1.132626e+00
-1.191194e+00
-1.245169e+00
-1.293552e+00
-1.335230e+00
-1.369007e+00
-1.393673e+00
-1.408138e+00
-1.411677e+00
-1.404386e+00
-1.388028e+00
-1.367421e+00
-1.352315e+00
-1.357155e+00
-1.393711e+00
-1.460346e+00
0.000000e+00
-2.740270e-02
-5.566065e-02
-8.520025e-02
-1.163007e-01
-1.489449e-01
-1.828917e-01
-2.177927e-01
-2.532999e-01
-2.890988e-01
-3.249125e-01
-3.604893e-01
-3.955827e-01
-4.299297e-01
-4.632291e-01
-4.951223e-01
-5.251760e-01
-5.528702e-01
-5.775905e-01
-5.986291e-01
-6.151982e-01
-6.264615e-01
-6.315971e-01
-6.299069e-01
-6.209977e-01
-6.050734e-01
-5.833876e-01
-5.588937e-01
-5.370165e-01
-5.260133e-01
-5.353863e-01
-5.706381e-01
-6.274964e-01
0.000000e+00
-1.552839e-04
-2.971963e-04
-4.179871e-04
-5.059144e-04
-5.457798e-04
-5.185067e-04
-3.998546e-04
-1.584557e-04
2.467879e-04
8.700703e-04
1.783095e-03
3.080902e-03
4.889466e-03
7.375237e-03
1.075621e-02
1.531315e-02
2.139812e-02
2.943593e-02
3.991334e-02
5.335021e-02
7.024664e-02
9.099819e-02
1.157676e-01
1.442974e-01
1.756491e-01
2.078672e-01
2.376185e-01
2.599922e-01
2.688933e-01
2.588264e-01
2.282867e-01
1.826326e-01
0.000000e+00
2.709284e-02
5.506588e-02
8.436158e-02
1.152825e-01
1.478411e-01
1.818329e-01
2.169565e-01
2.529243e-01
2.895009e-01
3.265135e-01
3.638473e-01
4.014365e-01
4.392557e-01
4.773162e-01
5.156678e-01
5.544035e-01
5.936644e-01
6.336380e-01
6.745392e-01
7.165720e-01
7.598655e-01
8.043854e-01
8.498136e-01
8.953933e-01
9.397409e-01
9.806536e-01
1.014998e+00
1.038852e+00
1.048185e+00
1.040371e+00
1.016295e+00
9.817463e-01
0.000000e+00
5.437553e-02
1.105025e-01
1.694771e-01
2.318920e-01
2.976523e-01
3.661349e-01
4.366503e-01
5.085893e-01
5.814617e-01
6.548940e-01
7.286122e-01
8.024112e-01
8.761275e-01
9.496211e-01
1.022765e+00
1.095444e+00
1.167554e+00
1.239000e+00
1.309675e+00
1.379423e+00
1.447978e+00
1.514896e+00
1.579470e+00
1.640628e+00
1.696821e+00
1.745950e+00
1.785397e+00
1.812315e+00
1.824324e+00
1.820687e+00
1.803669e+00
1.779330e+00
0.000000e+00
8.149404e-02
1.659999e-01
2.553527e-01
3.506623e-01
4.509857e-01
5.550930e-01
6.617805e-01
7.701631e-01
8.795751e-01
9.895056e-01
1.099581e+00
1.209508e+00
1.319026e+00
1.427870e+00
1.535754e+00
1.642354e+00
1.747303e+00
1.850181e+00
1.950505e+00
2.047694e+00
2.141053e+00
2.229741e+00
2.312750e+00
2.388854e+00
2.456565e+00
2.514115e+00
2.559542e+00
2.590988e+00
2.607290e+00
2.608876e+00
2.598778e+00
2.583318e+00
0.000000e+00
1.080162e-01
2.206893e-01
3.435936e-01
4.745180e-01
6.117812e-01
7.532489e-01
8.971983e-01
1.042610e+00
1.188824e+00
1.335316e+00
1.481687e+00
1.627627e+00
1.772835e+00
1.916971e+00
2.059632e+00
2.200316e+00
2.338395e+00
2.473092e+00
2.603463e+00
2.728412e+00
2.846735e+00
2.957179e+00
3.058482e+00
3.149383e+00
3.228604e+00
3.294847e+00
3.346871e+00
3.383713e+00
3.405121e+00
3.412232e+00
3.408435e+00
3.400256e+00
0.000000e+00
1.341424e-01
2.783671e-01
4.400437e-01
6.132321e-01
7.898329e-01
9.700966e-01
1.152421e+00
1.335189e+00
1.518127e+00
1.701005e+00
1.883414e+00
2.065056e+00
2.245669e+00
2.424899e+00
2.602277e+00
2.777186e+00
2.948775e+00
3.115883e+00
3.277007e+00
3.430394e+00
3.574210e+00
3.706721e+00
3.826414e+00
3.932039e+00
4.022601e+00
4.097345e+00
4.155792e+00
4.197866e+00
4.224138e+00
4.236268e+00
4.237726e+00
4.234987e+00
0.000000e+00
1.748048e-01
3.629556e-01
5.717588e-01
7.909169e-01
1.007949e+00
1.226434e+00
1.446493e+00
1.665876e+00
1.884587e+00
2.102905e+00
2.320461e+00
2.536930e+00
2.752112e+00
2.965681e+00
3.177153e+00
3.385861e+00
3.590804e+00
3.790444e+00
3.982654e+00
4.164893e+00
4.334556e+00
4.489317e+00
4.627335e+00
4.747317e+00
4.848506e+00
4.930659e+00
4.994070e+00
5.039627e+00
5.068890e+00
5.084234e+00
5.089228e+00
5.089801e+00
0.000000e+00
2.382879e-01
4.931273e-01
7.496112e-01
1.013157e+00
1.269463e+00
1.525254e+00
1.782430e+00
2.038107e+00
2.292486e+00
2.546293e+00
2.799147e+00
3.050655e+00
3.300655e+00
3.548834e+00
3.794679e+00
4.037472e+00
4.276062e+00
4.508549e+00
4.732171e+00
4.943572e+00
5.139327e+00
5.316434e+00
5.472598e+00
5.606309e+00
5.716839e+00
5.804256e+00
5.869498e+00
5.914474e+00
5.942118e+00
5.956279e+00
5.961426e+00
5.962682e+00
0.000000e+00
3.795213e-01
6.812382e-01
9.764812e-01
1.277987e+00
1.570549e+00
1.862920e+00
2.156788e+00
2.448963e+00
2.739899e+00
3.030352e+00
3.319832e+00
3.607914e+00
3.894417e+00
4.178970e+00
4.460971e+00
4.739555e+00
5.013294e+00
5.279831e+00
5.535777e+00
5.777051e+00
5.999490e+00
6.199406e+00
6.373892e+00
6.520910e+00
6.639336e+00
6.729059e+00
6.791209e+00
6.828470e+00
6.845405e+00
6.848602e+00
6.846151e+00
6.844746e+00
0.000000e+00
-2.329430e-01
-4.339749e-01
-6.736966e-01
-9.444768e-01
-1.247510e+00
-1.586976e+00
-1.962309e+00
-2.373446e+00
-2.821280e+00
-3.306004e+00
-3.827525e+00
-4.385861e+00
-4.980962e+00
-5.612619e+00
-6.280524e+00
-6.984253e+00
-7.723221e+00
-8.496637e+00
-9.303514e+00
-1.014275e+01
-1.101330e+01
-1.191437e+01
-1.284570e+01
-1.380795e+01
-1.480321e+01
-1.583565e+01
-1.691262e+01
-1.804604e+01
-1.925609e+01
-2.058969e+01
-2.217414e+01
-2.433178e+01
0.000000e+00
-1.448353e-01
-3.550964e-01
-5.907744e-01
-8.616727e-01
-1.165758e+00
-1.504792e+00
-1.880065e+00
-2.291603e+00
-2.739653e+00
-3.224559e+00
-3.746398e+00
-4.305124e+00
-4.900662e+00
-5.532850e+00
-6.201412e+00
-6.905960e+00
-7.645968e+00
-8.420731e+00
-9.229338e+00
-1.007071e+01
-1.094371e+01
-1.184738e+01
-1.278124e+01
-1.374571e+01
-1.474260e+01
-1.577589e+01
-1.685280e+01
-1.798563e+01
-1.919676e+01
-2.053242e+01
-2.208868e+01
-2.407352e+01
0.000000e+00
-1.088877e-01
-2.945400e-01
-5.250454e-01
-7.931863e-01
-1.096341e+00
-1.434650e+00
-1.809508e+00
-2.221031e+00
-2.669182e+00
-3.154251e+00
-3.676372e+00
-4.235488e+00
-4.831511e+00
-5.464298e+00
-6.133608e+00
-6.839087e+00
-7.580265e+00
-8.356510e+00
-9.166983e+00
-1.001064e+01
-1.088634e+01
-1.179306e+01
-1.273021e+01
-1.369812e+01
-1.469853e+01
-1.573546e+01
-1.681654e+01
-1.795560e+01
-1.917675e+01
-2.051099e+01
-2.197302e+01
-2.354035e+01
0.000000e+00
-9.680749e-02
-2.621128e-01
-4.799868e-01
-7.417631e-01
-1.041306e+00
-1.377649e+00
-1.751336e+00
-2.162244e+00
-2.610190e+00
-3.095312e+00
-3.617679e+00
-4.177221e+00
-4.773843e+00
-5.407409e+00
-6.077700e+00
-6.784400e+00
-7.527081e+00
-8.305161e+00
-9.117853e+00
-9.964167e+00
-1.084299e+01
-1.175331e+01
-1.269454e+01
-1.366694e+01
-1.467221e+01
-1.571428e+01
-1.680070e+01
-1.794467e+01
-1.916564e+01
-2.046826e+01
-2.180931e+01
-2.305143e+01
0.000000e+00
-9.566758e-02
-2.485056e-01
-4.545715e-01
-7.071946e-01
-1.001225e+00
-1.334300e+00
-1.705933e+00
-2.115626e+00
-2.563027e+00
-3.048044e+00
-3.570616e+00
-4.130635e+00
-4.727985e+00
-5.362526e+00
-6.034053e+00
-6.742276e+00
-7.486796e+00
-8.267056e+00
-9.082308e+00
-9.931604e+00
-1.081388e+01
-1.172814e+01
-1.267377e+01
-1.365091e+01
-1.466095e+01
-1.570718e+01
-1.679559e+01
-1.793558e+01
-1.913626e+01
-2.038283e+01
-2.160573e+01
-2.269789e+01
0.000000e+00
-9.462265e-02
-2.418574e-01
-4.398532e-01
-6.850823e-01
-9.736097e-01
-1.303163e+00
-1.672470e+00
-2.080735e+00
-2.527438e+00
-3.012274e+00
-3.535042e+00
-4.095584e+00
-4.693757e+00
-5.329411e+00
-6.002350e+00
-6.712302e+00
-7.458882e+00
-8.241547e+00
-9.059565e+00
-9.912006e+00
-1.079782e+01
-1.171597e+01
-1.266572e+01
-1.364685e+01
-1.466007e+01
-1.570729e+01
-1.679169e+01
-1.791684e+01
-1.908123e+01
-2.025841e+01
-2.138618e+01
-2.238334e+01
0.000000e+00
-9.356002e-02
-2.377665e-01
-4.311387e-01
-6.713670e-01
-9.558283e-01
-1.282430e+00
-1.649742e+00
-2.056776e+00
-2.502864e+00
-2.987556e+00
-3.510555e+00
-4.071651e+00
-4.670681e+00
-5.307489e+00
-5.981889e+00
-6.693624e+00
-7.442318e+00
-8.227432e+00
-9.048225e+00
-9.903749e+00
-1.079289e+01
-1.171448e+01
-1.266746e+01
-1.365105e+01
-1.466491e+01
-1.570906e+01
-1.678336e+01
-1.788575e+01
-1.900681e+01
-2.011788e+01
-2.116880e+01
-2.209981e+01
0.000000e+00
-9.288918e-02
-2.354527e-01
-4.263957e-01
-6.639040e-01
-9.459457e-01
-1.270705e+00
-1.636748e+00
-2.043020e+00
-2.488763e+00
-2.973457e+00
-3.496750e+00
-4.058405e+00
-4.658252e+00
-5.296144e+00
-5.971913e+00
-6.685318e+00
-7.435994e+00
-8.223397e+00
-9.046757e+00
-9.905055e+00
-1.079703e+01
-1.172126e+01
-1.267622e+01
-1.366037e+01
-1.467211e+01
-1.570949e+01
-1.676937e+01
-1.784551e+01
-1.892455e+01
-1.997994e+01
-2.097260e+01
-2.185948e+01
0.000000e+00
-9.267405e-02
-2.347274e-01
-4.249358e-01
-6.616191e-01
-9.429227e-01
-1.267130e+00
-1.632835e+00
-2.038966e+00
-2.484749e+00
-2.969648e+00
-3.493305e+00
-4.055488e+00
-4.656043e+00
-5.294846e+00
-5.971756e+00
-6.686561e+00
-7.438910e+00
-8.228254e+00
-9.053769e+00
-9.914319e+00
-1.080843e+01
-1.173430e+01
-1.268986e+01
-1.367269e+01
-1.467996e+01
-1.570799e+01
-1.675140e+01
-1.780154e+01
-1.884400e+01
-1.985586e+01
-2.080723e+01
-2.166659e+01
0.000000e+00
-9.292455e-02
-2.355413e-01
-4.265691e-01
-6.642029e-01
-9.464190e-01
-1.271410e+00
-1.637755e+00
-2.044411e+00
-2.490643e+00
-2.975955e+00
-3.500029e+00
-4.062671e+00
-4.663762e+00
-5.303217e+00
-5.980936e+00
-6.696741e+00
-7.450311e+00
-8.241088e+00
-9.068188e+00
-9.930320e+00
-1.082574e+01
-1.175222e+01
-1.270707e+01
-1.368704e+01
-1.468822e+01
-1.570560e+01
-1.673239e+01
-1.775899e+01
-1.877159e+01
-1.975122e+01
-2.067506e+01
-2.151956e+01
0.000000e+00
-9.362149e-02
-2.379273e-01
-4.314631e-01
-6.719356e-01
-9.567358e-01
-1.283788e+00
-1.651682e+00
-2.059461e+00
-2.506491e+00
-2.992376e+00
-3.516880e+00
-4.079871e+00
-4.681285e+00
-5.321081e+00
-5.999207e+00
-6.715531e+00
-7.469768e+00
-8.261365e+00
-9.089373e+00
-9.952334e+00
-1.084820e+01
-1.177431e+01
-1.272737e+01
-1.370339e+01
-1.469760e+01
-1.570408e+01
-1.671537e+01
-1.772182e+01
-1.871105e+01
-1.966775e+01
-2.057469e+01
-2.141413e+01
0.000000e+00
-9.469120e-02
-2.420580e-01
-4.402857e-01
-6.858644e-01
-9.748753e-01
-1.305069e+00
-1.675203e+00
-2.084522e+00
-2.532559e+00
-3.019076e+00
-3.543961e+00
-4.107160e+00
-4.708665e+00
-5.348482e+00
-6.026600e+00
-6.742935e+00
-7.497247e+00
-8.289000e+00
-9.117189e+00
-9.980185e+00
-1.087565e+01
-1.180049e+01
-1.275089e+01
-1.372228e+01
-1.470924e+01
-1.570533e+01
-1.670286e+01
-1.769265e+01
-1.866400e+01
-1.960491e+01
-2.050273e+01
-2.134469e+01
0.000000e+00
-9.571528e-02
-2.487020e-01
-4.550556e-01
-7.081142e-01
-1.002742e+00
-1.336607e+00
-1.709257e+00
-2.120245e+00
-2.569279e+00
-3.056352e+00
-3.581502e+00
-4.144747e+00
-4.746125e+00
-5.385680e+00
-6.063426e+00
-6.779311e+00
-7.533136e+00
-8.324388e+00
-9.152009e+00
-1.001422e+01
-1.090840e+01
-1.183111e+01
-1.277814e+01
-1.374448e+01
-1.472431e+01
-1.571090e+01
-1.669661e+01
-1.767291e+01
-1.863070e+01
-1.956086e+01
-2.045484e+01
-2.130482e+01
0.000000e+00
-9.680502e-02
-2.622676e-01
-4.804681e-01
-7.427397e-01
-1.042956e+00
-1.380184e+00
-1.755014e+00
-2.167372e+00
-2.617146e+00
-3.104563e+00
-3.629802e+00
-4.192926e+00
-4.794003e+00
-5.433092e+00
-6.110206e+00
-6.825297e+00
-7.578178e+00
-8.368327e+00
-9.194628e+00
-1.005516e+01
-1.094710e+01
-1.186678e+01
-1.280972e+01
-1.377067e+01
-1.474360e+01
-1.572170e+01
-1.669746e+01
-1.766295e+01
-1.861041e+01
-1.953309e+01
-2.042622e+01
-2.128733e+01
0.000000e+00
-1.088398e-01
-2.946562e-01
-5.255026e-01
-7.941639e-01
-1.098026e+00
-1.437264e+00
-1.813320e+00
-2.226364e+00
-2.676433e+00
-3.163907e+00
-3.689032e+00
-4.251887e+00
-4.852544e+00
-5.491058e+00
-6.167415e+00
-6.881526e+00
-7.633150e+00
-8.421691e+00
-9.245931e+00
-1.010383e+01
-1.099245e+01
-1.190803e+01
-1.284603e+01
-1.380114e+01
-1.476730e+01
-1.573774e+01
-1.670514e+01
-1.766202e+01
-1.860154e+01
-1.951868e+01
-2.041181e+01
-2.128416e+01
0.000000e+00
-1.447855e-01
-3.552062e-01
-5.912224e-01
-8.626439e-01
-1.167445e+00
-1.507418e+00
-1.883901e+00
-2.296975e+00
-2.746959e+00
-3.234290e+00
-3.759151e+00
-4.321628e+00
-4.921803e+00
-5.559700e+00
-6.235258e+00
-6.948312e+00
-7.698490e+00
-8.485014e+00
-9.306490e+00
-1.016077e+01
-1.104490e+01
-1.195519e+01
-1.288719e+01
-1.383573e+01
-1.479487e+01
-1.575800e+01
-1.671803e+01
-1.766785e+01
-1.860119e+01
-1.951399e+01
-2.040659e+01
-2.128666e+01
0.000000e+00
-2.329333e-01
-4.341133e-01
-6.741727e-01
-9.454713e-01
-1.249221e+00
-1.589629e+00
-1.966170e+00
-2.378839e+00
-2.828600e+00
-3.315733e+00
-3.840250e+00
-4.402293e+00
-5.001957e+00
-5.639206e+00
-6.313919e+00
-7.025830e+00
-7.774365e+00
-8.558475e+00
-9.376516e+00
-1.022622e+01
-1.110469e+01
-1.200840e+01