TITLE = "Solution"
VARIABLES = x, y, u, v, psiu, psiv, t, stress
ZONE T="structure" N=561 E=512 F=FEBLOCK ET=QUADRILATERAL VARLOCATION=([7,8]=cellcentered)
0.000000e+00
6.250000e+00
1.250000e+01
1.875000e+01
2.500000e+01
3.125000e+01
3.750000e+01
4.375000e+01
5.000000e+01
5.625000e+01
6.250000e+01
6.875000e+01
7.500000e+01
8.125000e+01
8.750000e+01
9.375000e+01
1.000000e+02
1.062500e+02
1.125000e+02
1.187500e+02
1.250000e+02
1.312500e+02
1.375000e+02
1.437500e+02
1.500000e+02
1.562500e+02
1.625000e+02
1.687500e+02
1.750000e+02
1.812500e+02
1.875000e+02
1.937500e+02
2.000000e+02
0.000000e+00
6.250000e+00
1.250000e+01
1.875000e+01
2.500000e+01
3.125000e+01
3.750000e+01
4.375000e+01
5.000000e+01
5.625000e+01
6.250000e+01
6.875000e+01
7.500000e+01
8.125000e+01
8.750000e+01
9.375000e+01
1.000000e+02
1.062500e+02
1.125000e+02
1.187500e+02
1.250000e+02
1.312500e+02
1.375000e+02
1.437500e+02
1.500000e+02
1.562500e+02
1.625000e+02
1.687500e+02
1.750000e+02
1.812500e+02
1.875000e+02
1.937500e+02
2.000000e+02
0.000000e+00
6.250000e+00
1.250000e+01
1.875000e+01
2.500000e+01
3.125000e+01
3.750000e+01
4.375000e+01
5.000000e+01
5.625000e+01
6.250000e+01
6.875000e+01
7.500000e+01
8.125000e+01
8.750000e+01
9.375000e+01
1.000000e+02
1.062500e+02
1.125000e+02
1.187500e+02
1.250000e+02
1.312500e+02
1.375000e+02
1.437500e+02
1.500000e+02
1.562500e+02
1.625000e+02
1.687500e+02
1.750000e+02
1.812500e+02
1.875000e+02
1.937500e+02
2.000000e+02
0.000000e+00
6.250000e+00
1.250000e+01
1.875000e+01
2.500000e+01
3.125000e+01
3.750000e+01
4.375000e+01
5.000000e+01
5.625000e+01
6.250000e+01
6.875000e+01
7.500000e+01
8.125000e+01
8.750000e+01
9.375000e+01
1.000000e+02
1.062500e+02
1.125000e+02
1.187500e+02
1.250000e+02
1.312500e+02
1.375000e+02
1.437500e+02
1.500000e+02
1.562500e+02
1.625000e+02
1.687500e+02
1.750000e+02
1.812500e+02
1.875000e+02
1.937500e+02
2.000000e+02
0.000000e+00
6.250000e+00
1.250000e+01
1.875000e+01
2.500000e+01
3.125000e+01
3.750000e+01
4.375000e+01
5.000000e+01
5.625000e+01
6.250000e+01
6.875000e+01
7.500000e+01
8.125000e+01
8.750000e+01
9.375000e+01
1.000000e+02
1.062500e+02
1.125000e+02
1.187500e+02
1.250000e+02
1.312500e+02
1.375000e+02
1.437500e+02
1.500000e+02
1.562500e+02
1.625000e+02
1.687500e+02
1.750000e+02
1.812500e+02
1.875000e+02
1.937500e+02
2.000000e+02
0.000000e+00
6.250000e+00
1.250000e+01
1.875000e+01
2.500000e+01
3.125000e+01
3.750000e+01
4.375000e+01
5.000000e+01
5.625000e+01
6.250000e+01
6.875000e+01
7.500000e+01
8.125000e+01
8.750000e+01
9.375000e+01
1.000000e+02
1.062500e+02
1.125000e+02
1.187500e+02
1.250000e+02
1.312500e+02
1.375000e+02
1.437500e+02
1.500000e+02
1.562500e+02
1.625000e+02
1.687500e+02
1.750000e+02
1.812500e+02
1.875000e+02
1.937500e+02
2.000000e+02
0.000000e+00
6.250000e+00
1.250000e+01
1.875000e+01
2.500000e+01
3.125000e+01
3.750000e+01
4.375000e+01
5.000000e+01
5.625000e+01
6.250000e+01
6.875000e+01
7.500000e+01
8.125000e+01
8.750000e+01
9.375000e+01
1.000000e+02
1.062500e+02
1.125000e+02
1.187500e+02
1.250000e+02
1.312500e+02
1.375000e+02
1.437500e+02
1.500000e+02
1.562500e+02
1.625000e+02
1.687500e+02
1.750000e+02
1.812500e+02
1.875000e+02
1.937500e+02
2.000000e+02
0.000000e+00
6.250000e+00
1.250000e+01
1.875000e+01
2.500000e+01
3.125000e+01
3.750000e+01
4.375000e+01
5.000000e+01
5.625000e+01
6.250000e+01
6.875000e+01
7.500000e+01
8.125000e+01
8.750000e+01
9.375000e+01
1.000000e+02
1.062500e+02
1.125000e+02
1.187500e+02
1.250000e+02
1.312500e+02
1.375000e+02
1.437500e+02
1.500000e+02
1.562500e+02
1.625000e+02
1.687500e+02
1.750000e+02
1.812500e+02
1.875000e+02
1.937500e+02
2.000000e+02
0.000000e+00
6.250000e+00
1.250000e+01
1.875000e+01
2.500000e+01
3.125000e+01
3.750000e+01
4.375000e+01
5.000000e+01
5.625000e+01
6.250000e+01
6.875000e+01
7.500000e+01
8.125000e+01
8.750000e+01
9.375000e+01
1.000000e+02
1.062500e+02
1.125000e+02
1.187500e+02
1.250000e+02
1.312500e+02
1.375000e+02
1.437500e+02
1.500000e+02
1.562500e+02
1.625000e+02
1.687500e+02
1.750000e+02
1.812500e+02
1.875000e+02
1.937500e+02
2.000000e+02
0.000000e+00
6.250000e+00
1.250000e+01
1.875000e+01
2.500000e+01
3.125000e+01
3.750000e+01
4.375000e+01
5.000000e+01
5.625000e+01
6.250000e+01
6.875000e+01
7.500000e+01
8.125000e+01
8.750000e+01
9.375000e+01
1.000000e+02
1.062500e+02
1.125000e+02
1.187500e+02
1.250000e+02
1.312500e+02
1.375000e+02
1.437500e+02
1.500000e+02
1.562500e+02
1.625000e+02
1.687500e+02
1.750000e+02
1.812500e+02
1.875000e+02
1.937500e+02
2.000000e+02
0.000000e+00
6.250000e+00
1.250000e+01
1.875000e+01
2.500000e+01
3.125000e+01
3.750000e+01
4.375000e+01
5.000000e+01
5.625000e+01
6.250000e+01
6.875000e+01
7.500000e+01
8.125000e+01
8.750000e+01
9.375000e+01
1.000000e+02
1.062500e+02
1.125000e+02
1.187500e+02
1.250000e+02
1.312500e+02
1.375000e+02
1.437500e+02
1.500000e+02
1.562500e+02
1.625000e+02
1.687500e+02
1.750000e+02
1.812500e+02
1.875000e+02
1.937500e+02
2.000000e+02
0.000000e+00
6.250000e+00
1.250000e+01
1.875000e+01
2.500000e+01
3.125000e+01
3.750000e+01
4.375000e+01
5.000000e+01
5.625000e+01
6.250000e+01
6.875000e+01
7.500000e+01
8.125000e+01
8.750000e+01
9.375000e+01
1.000000e+02
1.062500e+02
1.125000e+02
1.187500e+02
1.250000e+02
1.312500e+02
1.375000e+02
1.437500e+02
1.500000e+02
1.562500e+02
1.625000e+02
1.687500e+02
1.750000e+02
1.812500e+02
1.875000e+02
1.937500e+02
2.000000e+02
0.000000e+00
6.250000e+00
1.250000e+01
1.875000e+01
2.500000e+01
3.125000e+01
3.750000e+01
4.375000e+01
5.000000e+01
5.625000e+01
6.250000e+01
6.875000e+01
7.500000e+01
8.125000e+01
8.750000e+01
9.375000e+01
1.000000e+02
1.062500e+02
1.125000e+02
1.187500e+02
1.250000e+02
1.312500e+02
1.375000e+02
1.437500e+02
1.500000e+02
1.562500e+02
1.625000e+02
1.687500e+02
1.750000e+02
1.812500e+02
1.875000e+02
1.937500e+02
2.000000e+02
0.000000e+00
6.250000e+00
1.250000e+01
1.875000e+01
2.500000e+01
3.125000e+01
3.750000e+01
4.375000e+01
5.000000e+01
5.625000e+01
6.250000e+01
6.875000e+01
7.500000e+01
8.125000e+01
8.750000e+01
9.375000e+01
1.000000e+02
1.062500e+02
1.125000e+02
1.187500e+02
1.250000e+02
1.312500e+02
1.375000e+02
1.437500e+02
1.500000e+02
1.562500e+02
1.625000e+02
1.687500e+02
1.750000e+02
1.812500e+02
1.875000e+02
1.937500e+02
2.000000e+02
0.000000e+00
6.250000e+00
1.250000e+01
1.875000e+01
2.500000e+01
3.125000e+01
3.750000e+01
4.375000e+01
5.000000e+01
5.625000e+01
6.250000e+01
6.875000e+01
7.500000e+01
8.125000e+01
8.750000e+01
9.375000e+01
1.000000e+02
1.062500e+02
1.125000e+02
1.187500e+02
1.250000e+02
1.312500e+02
1.375000e+02
1.437500e+02
1.500000e+02
1.562500e+02
1.625000e+02
1.687500e+02
1.750000e+02
1.812500e+02
1.875000e+02
1.937500e+02
2.000000e+02
0.000000e+00
6.250000e+00
1.250000e+01
1.875000e+01
2.500000e+01
3.125000e+01
3.750000e+01
4.375000e+01
5.000000e+01
5.625000e+01
6.250000e+01
6.875000e+01
7.500000e+01
8.125000e+01
8.750000e+01
9.375000e+01
1.000000e+02
1.062500e+02
1.125000e+02
1.187500e+02
1.250000e+02
1.312500e+02
1.375000e+02
1.437500e+02
1.500000e+02
1.562500e+02
1.625000e+02
1.687500e+02
1.750000e+02
1.812500e+02
1.875000e+02
1.937500e+02
2.000000e+02
0.000000e+00
6.250000e+00
1.250000e+01
1.875000e+01
2.500000e+01
3.125000e+01
3.750000e+01
4.375000e+01
5.000000e+01
5.625000e+01
6.250000e+01
6.875000e+01
7.500000e+01
8.125000e+01
8.750000e+01
9.375000e+01
1.000000e+02
1.062500e+02
1.125000e+02
1.187500e+02
1.250000e+02
1.312500e+02
1.375000e+02
1.437500e+02
1.500000e+02
1.562500e+02
1.625000e+02
1.687500e+02
1.750000e+02
1.812500e+02
1.875000e+02
1.937500e+02
2.000000e+02
0.000000e+00
0.000000e+00
0.000000e+00
0.000000e+00
0.000000e+00
0.000000e+00
0.000000e+00
0.000000e+00
0.000000e+00
0.000000e+00
0.000000e+00
0.000000e+00
0.000000e+00
0.000000e+00
0.000000e+00
0.000000e+00
0.000000e+00
0.000000e+00
0.000000e+00
0.000000e+00
0.000000e+00
0.000000e+00
0.000000e+00
0.000000e+00
0.000000e+00
0.000000e+00
0.000000e+00
0.000000e+00
0.000000e+00
0.000000e+00
0.000000e+00
0.000000e+00
0.000000e+00
6.250000e+00
6.250000e+00
6.250000e+00
6.250000e+00
6.250000e+00
6.250000e+00
6.250000e+00
6.250000e+00
6.250000e+00
6.250000e+00
6.250000e+00
6.250000e+00
6.250000e+00
6.250000e+00
6.250000e+00
6.250000e+00
6.250000e+00
6.250000e+00
6.250000e+00
6.250000e+00
6.250000e+00
6.250000e+00
6.250000e+00
6.250000e+00
6.250000e+00
6.250000e+00
6.250000e+00
6.250000e+00
6.250000e+00
6.250000e+00
6.250000e+00
6.250000e+00
6.250000e+00
1.250000e+01
1.250000e+01
1.250000e+01
1.250000e+01
1.250000e+01
1.250000e+01
1.250000e+01
1.250000e+01
1.250000e+01
1.250000e+01
1.250000e+01
1.250000e+01
1.250000e+01
1.250000e+01
1.250000e+01
1.250000e+01
1.250000e+01
1.250000e+01
1.250000e+01
1.250000e+01
1.250000e+01
1.250000e+01
1.250000e+01
1.250000e+01
1.250000e+01
1.250000e+01
1.250000e+01
1.250000e+01
1.250000e+01
1.250000e+01
1.250000e+01
1.250000e+01
1.250000e+01
1.875000e+01
1.875000e+01
1.875000e+01
1.875000e+01
1.875000e+01
1.875000e+01
1.875000e+01
1.875000e+01
1.875000e+01
1.875000e+01
1.875000e+01
1.875000e+01
1.875000e+01
1.875000e+01
1.875000e+01
1.875000e+01
1.875000e+01
1.875000e+01
1.875000e+01
1.875000e+01
1.875000e+01
1.875000e+01
1.875000e+01
1.875000e+01
1.875000e+01
1.875000e+01
1.875000e+01
1.875000e+01
1.875000e+01
1.875000e+01
1.875000e+01
1.875000e+01
1.875000e+01
2.500000e+01
2.500000e+01
2.500000e+01
2.500000e+01
2.500000e+01
2.500000e+01
2.500000e+01
2.500000e+01
2.500000e+01
2.500000e+01
2.500000e+01
2.500000e+01
2.500000e+01
2.500000e+01
2.500000e+01
2.500000e+01
2.500000e+01
2.500000e+01
2.500000e+01
2.500000e+01
2.500000e+01
2.500000e+01
2.500000e+01
2.500000e+01
2.500000e+01
2.500000e+01
2.500000e+01
2.500000e+01
2.500000e+01
2.500000e+01
2.500000e+01
2.500000e+01
2.500000e+01
3.125000e+01
3.125000e+01
3.125000e+01
3.125000e+01
3.125000e+01
3.125000e+01
3.125000e+01
3.125000e+01
3.125000e+01
3.125000e+01
3.125000e+01
3.125000e+01
3.125000e+01
3.125000e+01
3.125000e+01
3.125000e+01
3.125000e+01
3.125000e+01
3.125000e+01
3.125000e+01
3.125000e+01
3.125000e+01
3.125000e+01
3.125000e+01
3.125000e+01
3.125000e+01
3.125000e+01
3.125000e+01
3.125000e+01
3.125000e+01
3.125000e+01
3.125000e+01
3.125000e+01
3.750000e+01
3.750000e+01
3.750000e+01
3.750000e+01
3.750000e+01
3.750000e+01
3.750000e+01
3.750000e+01
3.750000e+01
3.750000e+01
3.750000e+01
3.750000e+01
3.750000e+01
3.750000e+01
3.750000e+01
3.750000e+01
3.750000e+01
3.750000e+01
3.750000e+01
3.750000e+01
3.750000e+01
3.750000e+01
3.750000e+01
3.750000e+01
3.750000e+01
3.750000e+01
3.750000e+01
3.750000e+01
3.750000e+01
3.750000e+01
3.750000e+01
3.750000e+01
3.750000e+01
4.375000e+01
4.375000e+01
4.375000e+01
4.375000e+01
4.375000e+01
4.375000e+01
4.375000e+01
4.375000e+01
4.375000e+01
4.375000e+01
4.375000e+01
4.375000e+01
4.375000e+01
4.375000e+01
4.375000e+01
4.375000e+01
4.375000e+01
4.375000e+01
4.375000e+01
4.375000e+01
4.375000e+01
4.375000e+01
4.375000e+01
4.375000e+01
4.375000e+01
4.375000e+01
4.375000e+01
4.375000e+01
4.375000e+01
4.375000e+01
4.375000e+01
4.375000e+01
4.375000e+01
5.000000e+01
5.000000e+01
5.000000e+01
5.000000e+01
5.000000e+01
5.000000e+01
5.000000e+01
5.000000e+01
5.000000e+01
5.000000e+01
5.000000e+01
5.000000e+01
5.000000e+01
5.000000e+01
5.000000e+01
5.000000e+01
5.000000e+01
5.000000e+01
5.000000e+01
5.000000e+01
5.000000e+01
5.000000e+01
5.000000e+01
5.000000e+01
5.000000e+01
5.000000e+01
5.000000e+01
5.000000e+01
5.000000e+01
5.000000e+01
5.000000e+01
5.000000e+01
5.000000e+01
5.625000e+01
5.625000e+01
5.625000e+01
5.625000e+01
5.625000e+01
5.625000e+01
5.625000e+01
5.625000e+01
5.625000e+01
5.625000e+01
5.625000e+01
5.625000e+01
5.625000e+01
5.625000e+01
5.625000e+01
5.625000e+01
5.625000e+01
5.625000e+01
5.625000e+01
5.625000e+01
5.625000e+01
5.625000e+01
5.625000e+01
5.625000e+01
5.625000e+01
5.625000e+01
5.625000e+01
5.625000e+01
5.625000e+01
5.625000e+01
5.625000e+01
5.625000e+01
5.625000e+01
6.250000e+01
6.250000e+01
6.250000e+01
6.250000e+01
6.250000e+01
6.250000e+01
6.250000e+01
6.250000e+01
6.250000e+01
6.250000e+01
6.250000e+01
6.250000e+01
6.250000e+01
6.250000e+01
6.250000e+01
6.250000e+01
6.250000e+01
6.250000e+01
6.250000e+01
6.250000e+01
6.250000e+01
6.250000e+01
6.250000e+01
6.250000e+01
6.250000e+01
6.250000e+01
6.250000e+01
6.250000e+01
6.250000e+01
6.250000e+01
6.250000e+01
6.250000e+01
6.250000e+01
6.875000e+01
6.875000e+01
6.875000e+01
6.875000e+01
6.875000e+01
6.875000e+01
6.875000e+01
6.875000e+01
6.875000e+01
6.875000e+01
6.875000e+01
6.875000e+01
6.875000e+01
6.875000e+01
6.875000e+01
6.875000e+01
6.875000e+01
6.875000e+01
6.875000e+01
6.875000e+01
6.875000e+01
6.875000e+01
6.875000e+01
6.875000e+01
6.875000e+01
6.875000e+01
6.875000e+01
6.875000e+01
6.875000e+01
6.875000e+01
6.875000e+01
6.875000e+01
6.875000e+01
7.500000e+01
7.500000e+01
7.500000e+01
7.500000e+01
7.500000e+01
7.500000e+01
7.500000e+01
7.500000e+01
7.500000e+01
7.500000e+01
7.500000e+01
7.500000e+01
7.500000e+01
7.500000e+01
7.500000e+01
7.500000e+01
7.500000e+01
7.500000e+01
7.500000e+01
7.500000e+01
7.500000e+01
7.500000e+01
7.500000e+01
7.500000e+01
7.500000e+01
7.500000e+01
7.500000e+01
7.500000e+01
7.500000e+01
7.500000e+01
7.500000e+01
7.500000e+01
7.500000e+01
8.125000e+01
8.125000e+01
8.125000e+01
8.125000e+01
8.125000e+01
8.125000e+01
8.125000e+01
8.125000e+01
8.125000e+01
8.125000e+01
8.125000e+01
8.125000e+01
8.125000e+01
8.125000e+01
8.125000e+01
8.125000e+01
8.125000e+01
8.125000e+01
8.125000e+01
8.125000e+01
8.125000e+01
8.125000e+01
8.125000e+01
8.125000e+01
8.125000e+01
8.125000e+01
8.125000e+01
8.125000e+01
8.125000e+01
8.125000e+01
8.125000e+01
8.125000e+01
8.125000e+01
8.750000e+01
8.750000e+01
8.750000e+01
8.750000e+01
8.750000e+01
8.750000e+01
8.750000e+01
8.750000e+01
8.750000e+01
8.750000e+01
8.750000e+01
8.750000e+01
8.750000e+01
8.750000e+01
8.750000e+01
8.750000e+01
8.750000e+01
8.750000e+01
8.750000e+01
8.750000e+01
8.750000e+01
8.750000e+01
8.750000e+01
8.750000e+01
8.750000e+01
8.750000e+01
8.750000e+01
8.750000e+01
8.750000e+01
8.750000e+01
8.750000e+01
8.750000e+01
8.750000e+01
9.375000e+01
9.375000e+01
9.375000e+01
9.375000e+01
9.375000e+01
9.375000e+01
9.375000e+01
9.375000e+01
9.375000e+01
9.375000e+01
9.375000e+01
9.375000e+01
9.375000e+01
9.375000e+01
9.375000e+01
9.375000e+01
9.375000e+01
9.375000e+01
9.375000e+01
9.375000e+01
9.375000e+01
9.375000e+01
9.375000e+01
9.375000e+01
9.375000e+01
9.375000e+01
9.375000e+01
9.375000e+01
9.375000e+01
9.375000e+01
9.375000e+01
9.375000e+01
9.375000e+01
1.000000e+02
1.000000e+02
1.000000e+02
1.000000e+02
1.000000e+02
1.000000e+02
1.000000e+02
1.000000e+02
1.000000e+02
1.000000e+02
1.000000e+02
1.000000e+02
1.000000e+02
1.000000e+02
1.000000e+02
1.000000e+02
1.000000e+02
1.000000e+02
1.000000e+02
1.000000e+02
1.000000e+02
1.000000e+02
1.000000e+02
1.000000e+02
1.000000e+02
1.000000e+02
1.000000e+02
1.000000e+02
1.000000e+02
1.000000e+02
1.000000e+02
1.000000e+02
1.000000e+02
0.000000e+00
-4.706147e-01
-7.813292e-01
-1.120834e+00
-1.422935e+00
-1.715548e+00
-2.026423e+00
-2.314777e+00
-2.614957e+00
-2.908698e+00
-3.206413e+00
-3.504964e+00
-3.803813e+00
-4.104511e+00
-4.404000e+00
-4.706262e+00
-5.007740e+00
-5.310309e+00
-5.612801e+00
-5.914447e+00
-6.217006e+00
-6.518742e+00
-6.820977e+00
-7.119450e+00
-7.413919e+00
-7.718303e+00
-8.018751e+00
-8.348049e+00
-8.668661e+00
-9.023406e+00
-9.509710e+00
-9.926368e+00
-1.013088e+01
0.000000e+00
-2.332861e-01
-4.706711e-01
-7.359508e-01
-1.002057e+00
-1.254952e+00
-1.524678e+00
-1.785053e+00
-2.047481e+00
-2.312607e+00
-2.572825e+00
-2.838083e+00
-3.098511e+00
-3.362194e+00
-3.623853e+00
-3.885800e+00
-4.148316e+00
-4.409214e+00
-4.671674e+00
-4.932372e+00
-5.194204e+00
-5.454756e+00
-5.716255e+00
-5.976350e+00
-6.237849e+00
-6.498551e+00
-6.758408e+00
-7.022180e+00
-7.277069e+00
-7.534757e+00
-7.787497e+00
-7.888113e+00
-7.993911e+00
0.000000e+00
-1.038441e-01
-2.402173e-01
-4.364118e-01
-6.542925e-01
-8.616332e-01
-1.088160e+00
-1.314697e+00
-1.541368e+00
-1.772819e+00
-1.996043e+00
-2.224251e+00
-2.446489e+00
-2.671317e+00
-2.894782e+00
-3.116905e+00
-3.340062e+00
-3.561642e+00
-3.785093e+00
-4.008110e+00
-4.232338e+00
-4.455739e+00
-4.680098e+00
-4.907710e+00
-5.137066e+00
-5.359562e+00
-5.572188e+00
-5.769818e+00
-5.949348e+00
-6.098431e+00
-6.184870e+00
-6.190159e+00
-6.283042e+00
0.000000e+00
-1.024647e-01
-1.862858e-01
-3.399134e-01
-4.628226e-01
-6.185506e-01
-7.953894e-01
-9.649493e-01
-1.156814e+00
-1.334960e+00
-1.520186e+00
-1.703381e+00
-1.886014e+00
-2.071014e+00
-2.255053e+00
-2.440705e+00
-2.626447e+00
-2.814397e+00
-3.004108e+00
-3.195411e+00
-3.388804e+00
-3.581624e+00
-3.775346e+00
-3.969021e+00
-4.154457e+00
-4.328526e+00
-4.478782e+00
-4.611093e+00
-4.712105e+00
-4.775110e+00
-4.790038e+00
-4.807104e+00
-4.887704e+00
0.000000e+00
-9.274478e-02
-1.839956e-01
-2.749059e-01
-3.877436e-01
-5.036352e-01
-6.356984e-01
-7.699286e-01
-9.143525e-01
-1.055998e+00
-1.201624e+00
-1.347614e+00
-1.491572e+00
-1.639946e+00
-1.784740e+00
-1.933391e+00
-2.080798e+00
-2.229796e+00
-2.379623e+00
-2.528634e+00
-2.678247e+00
-2.824652e+00
-2.968445e+00
-3.105509e+00
-3.233556e+00
-3.347583e+00
-3.444657e+00
-3.518799e+00
-3.567278e+00
-3.591368e+00
-3.594351e+00
-3.624232e+00
-3.695960e+00
0.000000e+00
-7.419284e-02
-1.454934e-01
-2.203496e-01
-3.016027e-01
-3.908353e-01
-4.855021e-01
-5.866936e-01
-6.903749e-01
-7.980036e-01
-9.055953e-01
-1.014234e+00
-1.123138e+00
-1.231421e+00
-1.340661e+00
-1.449142e+00
-1.558194e+00
-1.666631e+00
-1.774500e+00
-1.881106e+00
-1.985190e+00
-2.085888e+00
-2.180735e+00
-2.268153e+00
-2.345549e+00
-2.410965e+00
-2.462192e+00
-2.497197e+00
-2.519130e+00
-2.518953e+00
-2.514376e+00
-2.541174e+00
-2.607234e+00
0.000000e+00
-5.112659e-02
-1.017210e-01
-1.534505e-01
-2.087392e-01
-2.679188e-01
-3.311959e-01
-3.975356e-01
-4.666474e-01
-5.372376e-01
-6.088020e-01
-6.805216e-01
-7.520996e-01
-8.234718e-01
-8.943814e-01
-9.649833e-01
-1.034856e+00
-1.103832e+00
-1.171353e+00
-1.236751e+00
-1.299120e+00
-1.357091e+00
-1.409240e+00
-1.453837e+00
-1.489588e+00
-1.514336e+00
-1.527885e+00
-1.532362e+00
-1.515974e+00
-1.486750e+00
-1.475855e+00
-1.499833e+00
-1.564542e+00
0.000000e+00
-2.693931e-02
-5.373226e-02
-8.109787e-02
-1.097443e-01
-1.401295e-01
-1.721526e-01
-2.056499e-01
-2.401805e-01
-2.753977e-01
-3.107867e-01
-3.460134e-01
-3.808002e-01
-4.149724e-01
-4.484635e-01
-4.811078e-01
-5.127036e-01
-5.428805e-01
-5.712764e-01
-5.974029e-01
-6.205251e-01
-6.397048e-01
-6.537167e-01
-6.616279e-01
-6.618872e-01
-6.548087e-01
-6.382004e-01
-5.999124e-01
-5.504409e-01
-4.998112e-01
-4.743294e-01
-4.980596e-01
-5.653607e-01
0.000000e+00
-1.957727e-03
-3.962492e-03
-5.929291e-03
-7.750816e-03
-9.308115e-03
-1.053008e-02
-1.139653e-02
-1.192766e-02
-1.209435e-02
-1.182074e-02
-1.098310e-02
-9.440570e-03
-7.020537e-03
-3.535589e-03
1.148120e-03
7.283538e-03
1.524098e-02
2.514602e-02
3.698125e-02
5.108684e-02
6.806198e-02
8.822346e-02
1.136511e-01
1.446202e-01
1.851938e-01
2.441003e-01
3.155655e-01
3.883374e-01
4.391605e-01
4.546911e-01
4.225270e-01
3.438652e-01
0.000000e+00
2.316771e-02
4.611346e-02
6.970885e-02
9.489554e-02
1.223723e-01
1.522092e-01
1.841892e-01
2.178099e-01
2.526426e-01
2.883181e-01
3.246645e-01
3.616934e-01
3.997382e-01
4.392477e-01
4.805758e-01
5.241346e-01
5.699454e-01
6.178695e-01
6.673611e-01
7.178990e-01
7.698622e-01
8.248383e-01
8.836026e-01
9.513425e-01
1.034476e+00
1.123772e+00
1.214357e+00
1.288266e+00
1.331979e+00
1.329937e+00
1.285298e+00
1.222649e+00
0.000000e+00
4.774360e-02
9.495848e-02
1.434244e-01
1.957998e-01
2.527951e-01
3.146225e-01
3.802729e-01
4.489395e-01
5.193596e-01
5.906904e-01
6.622021e-01
7.338249e-01
8.061333e-01
8.800880e-01
9.571616e-01
1.037832e+00
1.121425e+00
1.206759e+00
1.293740e+00
1.382718e+00
1.472683e+00
1.565179e+00
1.667030e+00
1.775511e+00
1.886429e+00
1.995821e+00
2.085427e+00
2.149700e+00
2.176754e+00
2.169416e+00
2.139323e+00
2.095232e+00
0.000000e+00
7.125708e-02
1.398311e-01
2.123506e-01
2.917741e-01
3.800894e-01
4.750573e-01
5.764217e-01
6.811935e-01
7.891189e-01
8.977424e-01
1.006881e+00
1.116027e+00
1.225322e+00
1.335601e+00
1.446814e+00
1.561256e+00
1.678270e+00
1.797421e+00
1.919714e+00
2.047839e+00
2.183946e+00
2.325901e+00
2.467930e+00
2.605589e+00
2.734319e+00
2.846473e+00
2.935996e+00
2.992190e+00
3.020568e+00
3.024091e+00
3.006081e+00
2.978464e+00
0.000000e+00
9.003962e-02
1.787454e-01
2.685081e-01
3.819132e-01
5.006175e-01
6.333004e-01
7.713799e-01
9.151640e-01
1.059741e+00
1.206338e+00
1.353705e+00
1.501361e+00
1.652875e+00
1.804202e+00
1.959349e+00
2.115896e+00
2.276335e+00
2.440840e+00
2.607016e+00
2.775918e+00
2.947097e+00
3.116842e+00
3.281201e+00
3.434800e+00
3.575309e+00
3.695363e+00
3.786924e+00
3.853844e+00
3.893217e+00
3.906266e+00
3.899766e+00
3.885239e+00
0.000000e+00
9.894540e-02
1.801990e-01
3.314699e-01
4.577412e-01
6.201806e-01
8.024581e-01
9.731807e-01
1.166574e+00
1.345071e+00
1.529622e+00
1.710684e+00
1.893891e+00
2.083560e+00
2.277802e+00
2.478305e+00
2.681255e+00
2.887051e+00
3.097167e+00
3.310067e+00
3.520501e+00
3.724825e+00
3.920671e+00
4.104967e+00
4.279640e+00
4.437469e+00
4.572764e+00
4.679677e+00
4.756333e+00
4.804256e+00
4.826543e+00
4.829390e+00
4.824651e+00
0.000000e+00
1.017168e-01
2.339930e-01
4.229621e-01
6.392105e-01
8.480269e-01
1.079065e+00
1.309407e+00
1.538808e+00
1.773530e+00
1.998166e+00
2.224952e+00
2.447163e+00
2.673424e+00
2.902290e+00
3.133640e+00
3.366311e+00
3.597036e+00
3.828890e+00
4.061500e+00
4.295502e+00
4.524330e+00
4.745420e+00
4.966440e+00
5.176464e+00
5.362295e+00
5.512066e+00
5.627036e+00
5.709648e+00
5.762618e+00
5.790380e+00
5.799463e+00
5.800583e+00
0.000000e+00
2.337083e-01
4.719413e-01
7.365939e-01
1.002129e+00
1.254536e+00
1.523524e+00
1.784043e+00
2.046027e+00
2.310577e+00
2.570497e+00
2.834550e+00
3.094210e+00
3.356017e+00
3.615983e+00
3.875789e+00
4.135603e+00
4.393063e+00
4.650739e+00
4.904944e+00
5.160236e+00
5.413737e+00
5.667197e+00
5.925144e+00
6.167551e+00
6.368188e+00
6.525854e+00
6.642898e+00
6.723272e+00
6.772572e+00
6.797761e+00
6.806884e+00
6.809128e+00
0.000000e+00
4.718811e-01
7.880743e-01
1.132708e+00
1.437927e+00
1.729376e+00
2.037632e+00
2.322964e+00
2.620642e+00
2.911212e+00
3.206675e+00
3.505259e+00
3.802538e+00
4.100190e+00
4.392746e+00
4.683560e+00
4.972486e+00
5.262061e+00
5.552106e+00
5.840400e+00
6.127126e+00
6.416303e+00
6.707063e+00
6.999653e+00
7.263630e+00
7.474454e+00
7.632876e+00
7.741994e+00
7.807012e+00
7.836182e+00
7.841261e+00
7.836616e+00
7.834053e+00
0.000000e+00
-2.787054e-01
-5.878367e-01
-9.827616e-01
-1.413459e+00
-1.881910e+00
-2.390803e+00
-2.930405e+00
-3.506044e+00
-4.113511e+00
-4.755307e+00
-5.433189e+00
-6.146960e+00
-6.899142e+00
-7.688211e+00
-8.516264e+00
-9.382882e+00
-1.028892e+01
-1.123463e+01
-1.221958e+01
-1.324433e+01
-1.430905e+01
-1.541475e+01
-1.656066e+01
-1.774473e+01
-1.896820e+01
-2.023540e+01
-2.155601e+01
-2.293749e+01
-2.439982e+01
-2.595999e+01
-2.776820e+01
-3.030724e+01
0.000000e+00
-1.797026e-01
-5.074181e-01
-8.950110e-01
-1.332351e+00
-1.797516e+00
-2.306334e+00
-2.847819e+00
-3.421782e+00
-4.030371e+00
-4.671097e+00
-5.349466e+00
-6.062885e+00
-6.815145e+00
-7.604335e+00
-8.432022e+00
-9.298928e+00
-1.020469e+01
-1.115061e+01
-1.213550e+01
-1.316026e+01
-1.422474e+01
-1.533054e+01
-1.647698e+01
-1.766099e+01
-1.888398e+01
-2.014967e+01
-2.146873e+01
-2.285127e+01
-2.430500e+01
-2.588459e+01
-2.767974e+01
-2.993172e+01
0.000000e+00
-1.584200e-01
-4.486114e-01
-8.384224e-01
-1.265656e+00
-1.728594e+00
-2.235580e+00
-2.774980e+00
-3.350017e+00
-3.957617e+00
-4.599174e+00
-5.277652e+00
-5.991504e+00
-6.743747e+00
-7.533519e+00
-8.361238e+00
-9.228304e+00
-1.013413e+01
-1.107982e+01
-1.206471e+01
-1.308947e+01
-1.415349e+01
-1.525821e+01
-1.640384e+01
-1.758870e+01
-1.881435e+01
-2.008198e+01
-2.140599e+01
-2.279252e+01
-2.426673e+01
-2.588892e+01
-2.757398e+01
-2.932297e+01
0.000000e+00
-2.029903e-01
-4.485764e-01
-8.342926e-01
-1.230370e+00
-1.682877e+00
-2.188237e+00
-2.715474e+00
-3.295997e+00
-3.898394e+00
-4.542299e+00
-5.221003e+00
-5.934046e+00
-6.688052e+00
-7.476641e+00
-8.305814e+00
-9.172053e+00
-1.007802e+01
-1.102351e+01
-1.200767e+01
-1.303307e+01
-1.409631e+01
-1.520024e+01
-1.634585e+01
-1.753271e+01
-1.876428e+01
-2.003799e+01
-2.136923e+01
-2.276472e+01
-2.425796e+01
-2.587325e+01
-2.742302e+01
-2.882251e+01
0.000000e+00
-2.194286e-01
-4.866169e-01
-8.302336e-01
-1.228240e+00
-1.663256e+00
-2.159165e+00
-2.680848e+00
-3.256316e+00
-3.858587e+00
-4.501216e+00
-5.181486e+00
-5.893577e+00
-6.649394e+00
-7.437113e+00
-8.267198e+00
-9.133183e+00
-1.003884e+01
-1.098449e+01
-1.196818e+01
-1.299394e+01
-1.405751e+01
-1.516259e+01
-1.630934e+01
-1.749962e+01
-1.873450e+01
-2.001606e+01
-2.135120e+01
-2.274915e+01
-2.423736e+01
-2.577379e+01
-2.722177e+01
-2.848714e+01
0.000000e+00
-2.264700e-01
-5.028919e-01
-8.361265e-01
-1.222359e+00
-1.656397e+00
-2.137768e+00
-2.661415e+00
-3.227310e+00
-3.831444e+00
-4.472815e+00
-5.152069e+00
-5.867375e+00
-6.620817e+00
-7.411464e+00
-8.240204e+00
-9.107464e+00
-1.001349e+01
-1.095928e+01
-1.194475e+01
-1.297072e+01
-1.403697e+01
-1.514425e+01
-1.629373e+01
-1.748635e+01
-1.872309e+01
-2.000698e+01
-2.134183e+01
-2.272863e+01
-2.417681e+01
-2.561865e+01
-2.698668e+01
-2.818970e+01
0.000000e+00
-2.301748e-01
-5.090663e-01
-8.393547e-01
-1.220531e+00
-1.650474e+00
-2.127052e+00
-2.647878e+00
-3.210879e+00
-3.813829e+00
-4.455354e+00
-5.134524e+00
-5.851027e+00
-6.604854e+00
-7.396236e+00
-8.225612e+00
-9.093498e+00
-1.000057e+01
-1.094740e+01
-1.193453e+01
-1.296236e+01
-1.403116e+01
-1.514129e+01
-1.629313e+01
-1.748734e+01
-1.872428e+01
-2.000419e+01
-2.133526e+01
-2.269068e+01
-2.408751e+01
-2.546311e+01
-2.676306e+01
-2.790409e+01
0.000000e+00
-2.315704e-01
-5.113803e-01
-8.408226e-01
-1.220000e+00
-1.647773e+00
-2.122360e+00
-2.641687e+00
-3.203670e+00
-3.806373e+00
-4.448218e+00
-5.128146e+00
-5.845528e+00
-6.600203e+00
-7.392329e+00
-8.222416e+00
-9.091182e+00
-9.999318e+00
-1.094747e+01
-1.193623e+01
-1.296611e+01
-1.403732e+01
-1.514973e+01
-1.630331e+01
-1.749735e+01
-1.873379e+01
-2.000583e+01
-2.131763e+01
-2.263887e+01
-2.398277e+01
-2.531087e+01
-2.655273e+01
-2.763777e+01
0.000000e+00
-2.318557e-01
-5.119681e-01
-8.414380e-01
-1.220460e+00
-1.648137e+00
-2.122794e+00
-2.642400e+00
-3.204900e+00
-3.808396e+00
-4.451287e+00
-5.132359e+00
-5.850875e+00
-6.606543e+00
-7.399470e+00
-8.230256e+00
-9.099924e+00
-1.000919e+01
-1.095848e+01
-1.194850e+01
-1.298000e+01
-1.405284e+01
-1.516665e+01
-1.632046e+01
-1.751416e+01
-1.874513e+01
-2.000260e+01
-2.128556e+01
-2.258229e+01
-2.387572e+01
-2.514480e+01
-2.631186e+01
-2.730586e+01
0.000000e+00
-2.313961e-01
-5.114140e-01
-8.415257e-01
-1.221942e+00
-1.651505e+00
-2.128240e+00
-2.649891e+00
-3.214315e+00
-3.819631e+00
-4.464226e+00
-5.146812e+00
-5.866622e+00
-6.623449e+00
-7.417284e+00
-8.248653e+00
-9.119353e+00
-1.002988e+01
-1.098005e+01
-1.197034e+01
-1.300263e+01
-1.407614e+01
-1.518855e+01
-1.634383e+01
-1.753023e+01
-1.874957e+01
-1.999000e+01
-2.125015e+01
-2.251768e+01
-2.377385e+01
-2.497872e+01
-2.607981e+01
-2.703894e+01
0.000000e+00
-2.299026e-01
-5.091901e-01
-8.407625e-01
-1.224471e+00
-1.658127e+00
-2.139107e+00
-2.664544e+00
-3.232217e+00
-3.840165e+00
-4.486910e+00
-5.171054e+00
-5.892007e+00
-6.650110e+00
-7.444936e+00
-8.277311e+00
-9.149370e+00
-1.006132e+01
-1.101211e+01
-1.200169e+01
-1.303302e+01
-1.410473e+01
-1.521518e+01
-1.636404e+01
-1.754141e+01
-1.874590e+01
-1.997499e+01
-2.121352e+01
-2.245503e+01
-2.367072e+01
-2.482982e+01
-2.589869e+01
-2.684683e+01
0.000000e+00
-2.261976e-01
-5.032355e-01
-8.382768e-01
-1.228328e+00
-1.668609e+00
-2.156526e+00
-2.687226e+00
-3.259541e+00
-3.870686e+00
-4.519487e+00
-5.205050e+00
-5.926398e+00
-6.685484e+00
-7.481410e+00
-8.315651e+00
-9.189669e+00
-1.010247e+01
-1.105325e+01
-1.204160e+01
-1.306915e+01
-1.413651e+01
-1.524108e+01
-1.638036e+01
-1.754838e+01
-1.874340e+01
-1.996061e+01
-2.118609e+01
-2.240062e+01
-2.358678e+01
-2.471659e+01
-2.576938e+01
-2.672134e+01
0.000000e+00
-2.190206e-01
-4.872123e-01
-8.334429e-01
-1.236313e+00
-1.681830e+00
-2.184683e+00
-2.717679e+00
-3.298593e+00
-3.911107e+00
-4.562097e+00
-5.249071e+00
-5.969548e+00
-6.731144e+00
-7.527403e+00
-8.365015e+00
-9.239918e+00
-1.015186e+01
-1.110096e+01
-1.208598e+01
-1.310911e+01
-1.417018e+01
-1.526681e+01
-1.639697e+01
-1.755796e+01
-1.874903e+01
-1.996019e+01
-2.117089e+01
-2.236556e+01
-2.352653e+01
-2.463769e+01
-2.568349e+01
-2.665012e+01
0.000000e+00
-2.016560e-01
-4.488406e-01
-8.383216e-01
-1.242796e+00
-1.707108e+00
-2.223775e+00
-2.760382e+00
-3.349345e+00
-3.961223e+00
-4.613887e+00
-5.300146e+00
-6.022765e+00
-6.786014e+00
-7.585548e+00
-8.424787e+00
-9.299442e+00
-1.020957e+01
-1.115550e+01
-1.213673e+01
-1.315453e+01
-1.420821e+01
-1.529620e+01
-1.641952e+01
-1.758144e+01
-1.877228e+01
-1.997646e+01
-2.117181e+01
-2.234776e+01
-2.349035e+01
-2.458800e+01
-2.563240e+01
-2.661931e+01
0.000000e+00
-1.555855e-01
-4.469077e-01
-8.415599e-01
-1.280012e+00
-1.755922e+00
-2.275560e+00
-2.824584e+00
-3.408884e+00
-4.024732e+00
-4.673992e+00
-5.360614e+00
-6.084853e+00
-6.849231e+00
-7.651612e+00
-8.490468e+00
-9.364713e+00
-1.027310e+01
-1.121729e+01
-1.219576e+01
-1.320898e+01
-1.425635e+01
-1.533731e+01
-1.646167e+01
-1.762566e+01
-1.881351e+01
-2.000410e+01
-2.118572e+01
-2.234627e+01
-2.347466e+01
-2.456235e+01
-2.560679e+01
-2.661410e+01
0.000000e+00
-1.763788e-01
-5.048525e-01
-8.982542e-01
-1.347245e+00
-1.826101e+00
-2.347326e+00
-2.899242e+00
-3.482108e+00
-4.098796e+00
-4.746511e+00
-5.433153e+00
-6.157434e+00
-6.922483e+00
-7.725161e+00
-8.563762e+00
-9.436966e+00
-1.034407e+01
-1.128713e+01
-1.226424e+01
-1.327566e+01
-1.431999e+01
-1.540142e+01
-1.652660e+01
-1.768705e+01
-1.886277e+01
-2.004029e+01
-2.120880e+01
-2.235684e+01
-2.347412e+01
-2.455403e+01
-2.559757e+01
-2.661881e+01
0.000000e+00
-2.761434e-01
-5.863075e-01
-9.867909e-01
-1.428589e+00
-1.910152e+00
-2.431422e+00
-2.981573e+00
-3.566117e+00
-4.181551e+00
-4.830574e+00
-5.516905e+00
-6.241232e+00
-7.005866e+00
-7.807712e+00
-8.645959e+00
-9.518390e+00
-1.042534e+01
-1.136750e+01
-1.234419e+01
-1.335507e+01
-1.439978e+01