TITLE = "Solution"
VARIABLES = x, y, u, v, psiu, psiv, t, stress
ZONE T="structure" N=561 E=512 F=FEBLOCK ET=QUADRILATERAL VARLOCATION=([7,8]=cellcentered)
0.000000e+00
6.250000e+00
1.250000e+01
1.875000e+01
2.500000e+01
3.125000e+01
3.750000e+01
4.375000e+01
5.000000e+01
5.625000e+01
6.250000e+01
6.875000e+01
7.500000e+01
8.125000e+01
8.750000e+01
9.375000e+01
1.000000e+02
1.062500e+02
1.125000e+02
1.187500e+02
1.250000e+02
1.312500e+02
1.375000e+02
1.437500e+02
1.500000e+02
1.562500e+02
1.625000e+02
1.687500e+02
1.750000e+02
1.812500e+02
1.875000e+02
1.937500e+02
2.000000e+02
0.000000e+00
6.250000e+00
1.250000e+01
1.875000e+01
2.500000e+01
3.125000e+01
3.750000e+01
4.375000e+01
5.000000e+01
5.625000e+01
6.250000e+01
6.875000e+01
7.500000e+01
8.125000e+01
8.750000e+01
9.375000e+01
1.000000e+02
1.062500e+02
1.125000e+02
1.187500e+02
1.250000e+02
1.312500e+02
1.375000e+02
1.437500e+02
1.500000e+02
1.562500e+02
1.625000e+02
1.687500e+02
1.750000e+02
1.812500e+02
1.875000e+02
1.937500e+02
2.000000e+02
0.000000e+00
6.250000e+00
1.250000e+01
1.875000e+01
2.500000e+01
3.125000e+01
3.750000e+01
4.375000e+01
5.000000e+01
5.625000e+01
6.250000e+01
6.875000e+01
7.500000e+01
8.125000e+01
8.750000e+01
9.375000e+01
1.000000e+02
1.062500e+02
1.125000e+02
1.187500e+02
1.250000e+02
1.312500e+02
1.375000e+02
1.437500e+02
1.500000e+02
1.562500e+02
1.625000e+02
1.687500e+02
1.750000e+02
1.812500e+02
1.875000e+02
1.937500e+02
2.000000e+02
0.000000e+00
6.250000e+00
1.250000e+01
1.875000e+01
2.500000e+01
3.125000e+01
3.750000e+01
4.375000e+01
5.000000e+01
5.625000e+01
6.250000e+01
6.875000e+01
7.500000e+01
8.125000e+01
8.750000e+01
9.375000e+01
1.000000e+02
1.062500e+02
1.125000e+02
1.187500e+02
1.250000e+02
1.312500e+02
1.375000e+02
1.437500e+02
1.500000e+02
1.562500e+02
1.625000e+02
1.687500e+02
1.750000e+02
1.812500e+02
1.875000e+02
1.937500e+02
2.000000e+02
0.000000e+00
6.250000e+00
1.250000e+01
1.875000e+01
2.500000e+01
3.125000e+01
3.750000e+01
4.375000e+01
5.000000e+01
5.625000e+01
6.250000e+01
6.875000e+01
7.500000e+01
8.125000e+01
8.750000e+01
9.375000e+01
1.000000e+02
1.062500e+02
1.125000e+02
1.187500e+02
1.250000e+02
1.312500e+02
1.375000e+02
1.437500e+02
1.500000e+02
1.562500e+02
1.625000e+02
1.687500e+02
1.750000e+02
1.812500e+02
1.875000e+02
1.937500e+02
2.000000e+02
0.000000e+00
6.250000e+00
1.250000e+01
1.875000e+01
2.500000e+01
3.125000e+01
3.750000e+01
4.375000e+01
5.000000e+01
5.625000e+01
6.250000e+01
6.875000e+01
7.500000e+01
8.125000e+01
8.750000e+01
9.375000e+01
1.000000e+02
1.062500e+02
1.125000e+02
1.187500e+02
1.250000e+02
1.312500e+02
1.375000e+02
1.437500e+02
1.500000e+02
1.562500e+02
1.625000e+02
1.687500e+02
1.750000e+02
1.812500e+02
1.875000e+02
1.937500e+02
2.000000e+02
0.000000e+00
6.250000e+00
1.250000e+01
1.875000e+01
2.500000e+01
3.125000e+01
3.750000e+01
4.375000e+01
5.000000e+01
5.625000e+01
6.250000e+01
6.875000e+01
7.500000e+01
8.125000e+01
8.750000e+01
9.375000e+01
1.000000e+02
1.062500e+02
1.125000e+02
1.187500e+02
1.250000e+02
1.312500e+02
1.375000e+02
1.437500e+02
1.500000e+02
1.562500e+02
1.625000e+02
1.687500e+02
1.750000e+02
1.812500e+02
1.875000e+02
1.937500e+02
2.000000e+02
0.000000e+00
6.250000e+00
1.250000e+01
1.875000e+01
2.500000e+01
3.125000e+01
3.750000e+01
4.375000e+01
5.000000e+01
5.625000e+01
6.250000e+01
6.875000e+01
7.500000e+01
8.125000e+01
8.750000e+01
9.375000e+01
1.000000e+02
1.062500e+02
1.125000e+02
1.187500e+02
1.250000e+02
1.312500e+02
1.375000e+02
1.437500e+02
1.500000e+02
1.562500e+02
1.625000e+02
1.687500e+02
1.750000e+02
1.812500e+02
1.875000e+02
1.937500e+02
2.000000e+02
0.000000e+00
6.250000e+00
1.250000e+01
1.875000e+01
2.500000e+01
3.125000e+01
3.750000e+01
4.375000e+01
5.000000e+01
5.625000e+01
6.250000e+01
6.875000e+01
7.500000e+01
8.125000e+01
8.750000e+01
9.375000e+01
1.000000e+02
1.062500e+02
1.125000e+02
1.187500e+02
1.250000e+02
1.312500e+02
1.375000e+02
1.437500e+02
1.500000e+02
1.562500e+02
1.625000e+02
1.687500e+02
1.750000e+02
1.812500e+02
1.875000e+02
1.937500e+02
2.000000e+02
0.000000e+00
6.250000e+00
1.250000e+01
1.875000e+01
2.500000e+01
3.125000e+01
3.750000e+01
4.375000e+01
5.000000e+01
5.625000e+01
6.250000e+01
6.875000e+01
7.500000e+01
8.125000e+01
8.750000e+01
9.375000e+01
1.000000e+02
1.062500e+02
1.125000e+02
1.187500e+02
1.250000e+02
1.312500e+02
1.375000e+02
1.437500e+02
1.500000e+02
1.562500e+02
1.625000e+02
1.687500e+02
1.750000e+02
1.812500e+02
1.875000e+02
1.937500e+02
2.000000e+02
0.000000e+00
6.250000e+00
1.250000e+01
1.875000e+01
2.500000e+01
3.125000e+01
3.750000e+01
4.375000e+01
5.000000e+01
5.625000e+01
6.250000e+01
6.875000e+01
7.500000e+01
8.125000e+01
8.750000e+01
9.375000e+01
1.000000e+02
1.062500e+02
1.125000e+02
1.187500e+02
1.250000e+02
1.312500e+02
1.375000e+02
1.437500e+02
1.500000e+02
1.562500e+02
1.625000e+02
1.687500e+02
1.750000e+02
1.812500e+02
1.875000e+02
1.937500e+02
2.000000e+02
0.000000e+00
6.250000e+00
1.250000e+01
1.875000e+01
2.500000e+01
3.125000e+01
3.750000e+01
4.375000e+01
5.000000e+01
5.625000e+01
6.250000e+01
6.875000e+01
7.500000e+01
8.125000e+01
8.750000e+01
9.375000e+01
1.000000e+02
1.062500e+02
1.125000e+02
1.187500e+02
1.250000e+02
1.312500e+02
1.375000e+02
1.437500e+02
1.500000e+02
1.562500e+02
1.625000e+02
1.687500e+02
1.750000e+02
1.812500e+02
1.875000e+02
1.937500e+02
2.000000e+02
0.000000e+00
6.250000e+00
1.250000e+01
1.875000e+01
2.500000e+01
3.125000e+01
3.750000e+01
4.375000e+01
5.000000e+01
5.625000e+01
6.250000e+01
6.875000e+01
7.500000e+01
8.125000e+01
8.750000e+01
9.375000e+01
1.000000e+02
1.062500e+02
1.125000e+02
1.187500e+02
1.250000e+02
1.312500e+02
1.375000e+02
1.437500e+02
1.500000e+02
1.562500e+02
1.625000e+02
1.687500e+02
1.750000e+02
1.812500e+02
1.875000e+02
1.937500e+02
2.000000e+02
0.000000e+00
6.250000e+00
1.250000e+01
1.875000e+01
2.500000e+01
3.125000e+01
3.750000e+01
4.375000e+01
5.000000e+01
5.625000e+01
6.250000e+01
6.875000e+01
7.500000e+01
8.125000e+01
8.750000e+01
9.375000e+01
1.000000e+02
1.062500e+02
1.125000e+02
1.187500e+02
1.250000e+02
1.312500e+02
1.375000e+02
1.437500e+02
1.500000e+02
1.562500e+02
1.625000e+02
1.687500e+02
1.750000e+02
1.812500e+02
1.875000e+02
1.937500e+02
2.000000e+02
0.000000e+00
6.250000e+00
1.250000e+01
1.875000e+01
2.500000e+01
3.125000e+01
3.750000e+01
4.375000e+01
5.000000e+01
5.625000e+01
6.250000e+01
6.875000e+01
7.500000e+01
8.125000e+01
8.750000e+01
9.375000e+01
1.000000e+02
1.062500e+02
1.125000e+02
1.187500e+02
1.250000e+02
1.312500e+02
1.375000e+02
1.437500e+02
1.500000e+02
1.562500e+02
1.625000e+02
1.687500e+02
1.750000e+02
1.812500e+02
1.875000e+02
1.937500e+02
2.000000e+02
0.000000e+00
6.250000e+00
1.250000e+01
1.875000e+01
2.500000e+01
3.125000e+01
3.750000e+01
4.375000e+01
5.000000e+01
5.625000e+01
6.250000e+01
6.875000e+01
7.500000e+01
8.125000e+01
8.750000e+01
9.375000e+01
1.000000e+02
1.062500e+02
1.125000e+02
1.187500e+02
1.250000e+02
1.312500e+02
1.375000e+02
1.437500e+02
1.500000e+02
1.562500e+02
1.625000e+02
1.687500e+02
1.750000e+02
1.812500e+02
1.875000e+02
1.937500e+02
2.000000e+02
0.000000e+00
6.250000e+00
1.250000e+01
1.875000e+01
2.500000e+01
3.125000e+01
3.750000e+01
4.375000e+01
5.000000e+01
5.625000e+01
6.250000e+01
6.875000e+01
7.500000e+01
8.125000e+01
8.750000e+01
9.375000e+01
1.000000e+02
1.062500e+02
1.125000e+02
1.187500e+02
1.250000e+02
1.312500e+02
1.375000e+02
1.437500e+02
1.500000e+02
1.562500e+02
1.625000e+02
1.687500e+02
1.750000e+02
1.812500e+02
1.875000e+02
1.937500e+02
2.000000e+02
0.000000e+00
0.000000e+00
0.000000e+00
0.000000e+00
0.000000e+00
0.000000e+00
0.000000e+00
0.000000e+00
0.000000e+00
0.000000e+00
0.000000e+00
0.000000e+00
0.000000e+00
0.000000e+00
0.000000e+00
0.000000e+00
0.000000e+00
0.000000e+00
0.000000e+00
0.000000e+00
0.000000e+00
0.000000e+00
0.000000e+00
0.000000e+00
0.000000e+00
0.000000e+00
0.000000e+00
0.000000e+00
0.000000e+00
0.000000e+00
0.000000e+00
0.000000e+00
0.000000e+00
6.250000e+00
6.250000e+00
6.250000e+00
6.250000e+00
6.250000e+00
6.250000e+00
6.250000e+00
6.250000e+00
6.250000e+00
6.250000e+00
6.250000e+00
6.250000e+00
6.250000e+00
6.250000e+00
6.250000e+00
6.250000e+00
6.250000e+00
6.250000e+00
6.250000e+00
6.250000e+00
6.250000e+00
6.250000e+00
6.250000e+00
6.250000e+00
6.250000e+00
6.250000e+00
6.250000e+00
6.250000e+00
6.250000e+00
6.250000e+00
6.250000e+00
6.250000e+00
6.250000e+00
1.250000e+01
1.250000e+01
1.250000e+01
1.250000e+01
1.250000e+01
1.250000e+01
1.250000e+01
1.250000e+01
1.250000e+01
1.250000e+01
1.250000e+01
1.250000e+01
1.250000e+01
1.250000e+01
1.250000e+01
1.250000e+01
1.250000e+01
1.250000e+01
1.250000e+01
1.250000e+01
1.250000e+01
1.250000e+01
1.250000e+01
1.250000e+01
1.250000e+01
1.250000e+01
1.250000e+01
1.250000e+01
1.250000e+01
1.250000e+01
1.250000e+01
1.250000e+01
1.250000e+01
1.875000e+01
1.875000e+01
1.875000e+01
1.875000e+01
1.875000e+01
1.875000e+01
1.875000e+01
1.875000e+01
1.875000e+01
1.875000e+01
1.875000e+01
1.875000e+01
1.875000e+01
1.875000e+01
1.875000e+01
1.875000e+01
1.875000e+01
1.875000e+01
1.875000e+01
1.875000e+01
1.875000e+01
1.875000e+01
1.875000e+01
1.875000e+01
1.875000e+01
1.875000e+01
1.875000e+01
1.875000e+01
1.875000e+01
1.875000e+01
1.875000e+01
1.875000e+01
1.875000e+01
2.500000e+01
2.500000e+01
2.500000e+01
2.500000e+01
2.500000e+01
2.500000e+01
2.500000e+01
2.500000e+01
2.500000e+01
2.500000e+01
2.500000e+01
2.500000e+01
2.500000e+01
2.500000e+01
2.500000e+01
2.500000e+01
2.500000e+01
2.500000e+01
2.500000e+01
2.500000e+01
2.500000e+01
2.500000e+01
2.500000e+01
2.500000e+01
2.500000e+01
2.500000e+01
2.500000e+01
2.500000e+01
2.500000e+01
2.500000e+01
2.500000e+01
2.500000e+01
2.500000e+01
3.125000e+01
3.125000e+01
3.125000e+01
3.125000e+01
3.125000e+01
3.125000e+01
3.125000e+01
3.125000e+01
3.125000e+01
3.125000e+01
3.125000e+01
3.125000e+01
3.125000e+01
3.125000e+01
3.125000e+01
3.125000e+01
3.125000e+01
3.125000e+01
3.125000e+01
3.125000e+01
3.125000e+01
3.125000e+01
3.125000e+01
3.125000e+01
3.125000e+01
3.125000e+01
3.125000e+01
3.125000e+01
3.125000e+01
3.125000e+01
3.125000e+01
3.125000e+01
3.125000e+01
3.750000e+01
3.750000e+01
3.750000e+01
3.750000e+01
3.750000e+01
3.750000e+01
3.750000e+01
3.750000e+01
3.750000e+01
3.750000e+01
3.750000e+01
3.750000e+01
3.750000e+01
3.750000e+01
3.750000e+01
3.750000e+01
3.750000e+01
3.750000e+01
3.750000e+01
3.750000e+01
3.750000e+01
3.750000e+01
3.750000e+01
3.750000e+01
3.750000e+01
3.750000e+01
3.750000e+01
3.750000e+01
3.750000e+01
3.750000e+01
3.750000e+01
3.750000e+01
3.750000e+01
4.375000e+01
4.375000e+01
4.375000e+01
4.375000e+01
4.375000e+01
4.375000e+01
4.375000e+01
4.375000e+01
4.375000e+01
4.375000e+01
4.375000e+01
4.375000e+01
4.375000e+01
4.375000e+01
4.375000e+01
4.375000e+01
4.375000e+01
4.375000e+01
4.375000e+01
4.375000e+01
4.375000e+01
4.375000e+01
4.375000e+01
4.375000e+01
4.375000e+01
4.375000e+01
4.375000e+01
4.375000e+01
4.375000e+01
4.375000e+01
4.375000e+01
4.375000e+01
4.375000e+01
5.000000e+01
5.000000e+01
5.000000e+01
5.000000e+01
5.000000e+01
5.000000e+01
5.000000e+01
5.000000e+01
5.000000e+01
5.000000e+01
5.000000e+01
5.000000e+01
5.000000e+01
5.000000e+01
5.000000e+01
5.000000e+01
5.000000e+01
5.000000e+01
5.000000e+01
5.000000e+01
5.000000e+01
5.000000e+01
5.000000e+01
5.000000e+01
5.000000e+01
5.000000e+01
5.000000e+01
5.000000e+01
5.000000e+01
5.000000e+01
5.000000e+01
5.000000e+01
5.000000e+01
5.625000e+01
5.625000e+01
5.625000e+01
5.625000e+01
5.625000e+01
5.625000e+01
5.625000e+01
5.625000e+01
5.625000e+01
5.625000e+01
5.625000e+01
5.625000e+01
5.625000e+01
5.625000e+01
5.625000e+01
5.625000e+01
5.625000e+01
5.625000e+01
5.625000e+01
5.625000e+01
5.625000e+01
5.625000e+01
5.625000e+01
5.625000e+01
5.625000e+01
5.625000e+01
5.625000e+01
5.625000e+01
5.625000e+01
5.625000e+01
5.625000e+01
5.625000e+01
5.625000e+01
6.250000e+01
6.250000e+01
6.250000e+01
6.250000e+01
6.250000e+01
6.250000e+01
6.250000e+01
6.250000e+01
6.250000e+01
6.250000e+01
6.250000e+01
6.250000e+01
6.250000e+01
6.250000e+01
6.250000e+01
6.250000e+01
6.250000e+01
6.250000e+01
6.250000e+01
6.250000e+01
6.250000e+01
6.250000e+01
6.250000e+01
6.250000e+01
6.250000e+01
6.250000e+01
6.250000e+01
6.250000e+01
6.250000e+01
6.250000e+01
6.250000e+01
6.250000e+01
6.250000e+01
6.875000e+01
6.875000e+01
6.875000e+01
6.875000e+01
6.875000e+01
6.875000e+01
6.875000e+01
6.875000e+01
6.875000e+01
6.875000e+01
6.875000e+01
6.875000e+01
6.875000e+01
6.875000e+01
6.875000e+01
6.875000e+01
6.875000e+01
6.875000e+01
6.875000e+01
6.875000e+01
6.875000e+01
6.875000e+01
6.875000e+01
6.875000e+01
6.875000e+01
6.875000e+01
6.875000e+01
6.875000e+01
6.875000e+01
6.875000e+01
6.875000e+01
6.875000e+01
6.875000e+01
7.500000e+01
7.500000e+01
7.500000e+01
7.500000e+01
7.500000e+01
7.500000e+01
7.500000e+01
7.500000e+01
7.500000e+01
7.500000e+01
7.500000e+01
7.500000e+01
7.500000e+01
7.500000e+01
7.500000e+01
7.500000e+01
7.500000e+01
7.500000e+01
7.500000e+01
7.500000e+01
7.500000e+01
7.500000e+01
7.500000e+01
7.500000e+01
7.500000e+01
7.500000e+01
7.500000e+01
7.500000e+01
7.500000e+01
7.500000e+01
7.500000e+01
7.500000e+01
7.500000e+01
8.125000e+01
8.125000e+01
8.125000e+01
8.125000e+01
8.125000e+01
8.125000e+01
8.125000e+01
8.125000e+01
8.125000e+01
8.125000e+01
8.125000e+01
8.125000e+01
8.125000e+01
8.125000e+01
8.125000e+01
8.125000e+01
8.125000e+01
8.125000e+01
8.125000e+01
8.125000e+01
8.125000e+01
8.125000e+01
8.125000e+01
8.125000e+01
8.125000e+01
8.125000e+01
8.125000e+01
8.125000e+01
8.125000e+01
8.125000e+01
8.125000e+01
8.125000e+01
8.125000e+01
8.750000e+01
8.750000e+01
8.750000e+01
8.750000e+01
8.750000e+01
8.750000e+01
8.750000e+01
8.750000e+01
8.750000e+01
8.750000e+01
8.750000e+01
8.750000e+01
8.750000e+01
8.750000e+01
8.750000e+01
8.750000e+01
8.750000e+01
8.750000e+01
8.750000e+01
8.750000e+01
8.750000e+01
8.750000e+01
8.750000e+01
8.750000e+01
8.750000e+01
8.750000e+01
8.750000e+01
8.750000e+01
8.750000e+01
8.750000e+01
8.750000e+01
8.750000e+01
8.750000e+01
9.375000e+01
9.375000e+01
9.375000e+01
9.375000e+01
9.375000e+01
9.375000e+01
9.375000e+01
9.375000e+01
9.375000e+01
9.375000e+01
9.375000e+01
9.375000e+01
9.375000e+01
9.375000e+01
9.375000e+01
9.375000e+01
9.375000e+01
9.375000e+01
9.375000e+01
9.375000e+01
9.375000e+01
9.375000e+01
9.375000e+01
9.375000e+01
9.375000e+01
9.375000e+01
9.375000e+01
9.375000e+01
9.375000e+01
9.375000e+01
9.375000e+01
9.375000e+01
9.375000e+01
1.000000e+02
1.000000e+02
1.000000e+02
1.000000e+02
1.000000e+02
1.000000e+02
1.000000e+02
1.000000e+02
1.000000e+02
1.000000e+02
1.000000e+02
1.000000e+02
1.000000e+02
1.000000e+02
1.000000e+02
1.000000e+02
1.000000e+02
1.000000e+02
1.000000e+02
1.000000e+02
1.000000e+02
1.000000e+02
1.000000e+02
1.000000e+02
1.000000e+02
1.000000e+02
1.000000e+02
1.000000e+02
1.000000e+02
1.000000e+02
1.000000e+02
1.000000e+02
1.000000e+02
0.000000e+00
-3.932316e-01
-7.007417e-01
-1.005259e+00
-1.313207e+00
-1.607929e+00
-1.906714e+00
-2.205662e+00
-2.500965e+00
-2.797055e+00
-3.093276e+00
-3.388315e+00
-3.683053e+00
-3.977552e+00
-4.271417e+00
-4.564704e+00
-4.857426e+00
-5.149444e+00
-5.440670e+00
-5.731031e+00
-6.020478e+00
-6.308958e+00
-6.596196e+00
-6.881549e+00
-7.164346e+00
-7.444624e+00
-7.723891e+00
-8.005775e+00
-8.297145e+00
-8.609864e+00
-8.951596e+00
-9.299041e+00
-9.494290e+00
0.000000e+00
-2.389075e-01
-4.924394e-01
-7.519490e-01
-1.018439e+00
-1.274651e+00
-1.535121e+00
-1.796598e+00
-2.055064e+00
-2.314152e+00
-2.573429e+00
-2.831641e+00
-3.089485e+00
-3.347063e+00
-3.604016e+00
-3.860357e+00
-4.116080e+00
-4.371044e+00
-4.625121e+00
-4.878160e+00
-5.129958e+00
-5.380210e+00
-5.628268e+00
-5.872916e+00
-6.112533e+00
-6.345612e+00
-6.571254e+00
-6.789301e+00
-6.999303e+00
-7.194102e+00
-7.342518e+00
-7.413964e+00
-7.505616e+00
0.000000e+00
-1.657843e-01
-3.455008e-01
-5.516591e-01
-7.696300e-01
-9.844918e-01
-1.205402e+00
-1.428311e+00
-1.650031e+00
-1.872751e+00
-2.095820e+00
-2.318292e+00
-2.540548e+00
-2.762535e+00
-2.983932e+00
-3.204650e+00
-3.424551e+00
-3.643385e+00
-3.860858e+00
-4.076564e+00
-4.289921e+00
-4.500103e+00
-4.705862e+00
-4.905371e+00
-5.096299e+00
-5.276049e+00
-5.441847e+00
-5.590230e+00
-5.715159e+00
-5.803168e+00
-5.833398e+00
-5.830970e+00
-5.917637e+00
0.000000e+00
-1.219452e-01
-2.534307e-01
-4.082237e-01
-5.762425e-01
-7.494585e-01
-9.301109e-01
-1.113721e+00
-1.298305e+00
-1.484446e+00
-1.671166e+00
-1.857818e+00
-2.044419e+00
-2.230696e+00
-2.416326e+00
-2.601083e+00
-2.784660e+00
-2.966650e+00
-3.146544e+00
-3.323642e+00
-3.496986e+00
-3.665304e+00
-3.826909e+00
-3.979626e+00
-4.120797e+00
-4.247319e+00
-4.355556e+00
-4.440955e+00
-4.497386e+00
-4.517693e+00
-4.507383e+00
-4.512003e+00
-4.588892e+00
0.000000e+00
-1.005387e-01
-2.036418e-01
-3.192455e-01
-4.440182e-01
-5.776720e-01
-7.174434e-01
-8.608179e-01
-1.006869e+00
-1.154599e+00
-1.303158e+00
-1.452109e+00
-1.601067e+00
-1.749659e+00
-1.897552e+00
-2.044389e+00
-2.189731e+00
-2.333041e+00
-2.473627e+00
-2.610579e+00
-2.742713e+00
-2.868533e+00
-2.986195e+00
-3.093471e+00
-3.187750e+00
-3.266054e+00
-3.325097e+00
-3.361525e+00
-3.372882e+00
-3.361537e+00
-3.347434e+00
-3.371879e+00
-3.448205e+00
0.000000e+00
-7.699989e-02
-1.558777e-01
-2.392711e-01
-3.298268e-01
-4.265362e-01
-5.281967e-01
-6.335532e-01
-7.414529e-01
-8.509987e-01
-9.615028e-01
-1.072435e+00
-1.183362e+00
-1.293898e+00
-1.403664e+00
-1.512241e+00
-1.619127e+00
-1.723695e+00
-1.825156e+00
-1.922504e+00
-2.014489e+00
-2.099600e+00
-2.176061e+00
-2.241854e+00
-2.294768e+00
-2.332526e+00
-2.353111e+00
-2.355546e+00
-2.341710e+00
-2.320408e+00
-2.314621e+00
-2.348418e+00
-2.425186e+00
0.000000e+00
-5.186328e-02
-1.046721e-01
-1.600312e-01
-2.190676e-01
-2.820517e-01
-3.484022e-01
-4.174016e-01
-4.883110e-01
-5.604611e-01
-6.333133e-01
-7.064265e-01
-7.794187e-01
-8.519383e-01
-9.236246e-01
-9.940660e-01
-1.062761e+00
-1.129084e+00
-1.192249e+00
-1.251283e+00
-1.305014e+00
-1.352075e+00
-1.390946e+00
-1.420029e+00
-1.437781e+00
-1.442976e+00
-1.435203e+00
-1.415829e+00
-1.389697e+00
-1.367945e+00
-1.369022e+00
-1.407604e+00
-1.481482e+00
0.000000e+00
-2.606352e-02
-5.260508e-02
-8.021253e-02
-1.094317e-01
-1.404271e-01
-1.730471e-01
-2.069505e-01
-2.417570e-01
-2.771048e-01
-3.126727e-01
-3.481776e-01
-3.833582e-01
-4.179529e-01
-4.516750e-01
-4.841841e-01
-5.150554e-01
-5.437512e-01
-5.695971e-01
-5.917662e-01
-6.092825e-01
-6.210547e-01
-6.259535e-01
-6.229438e-01
-6.112933e-01
-5.909039e-01
-5.628417e-01
-5.301569e-01
-4.990153e-01
-4.797692e-01
-4.856270e-01
-5.245609e-01
-5.915683e-01
0.000000e+00
-1.401824e-04
-2.186194e-04
-2.236976e-04
-1.344047e-04
7.734915e-05
4.454912e-04
1.010215e-03
1.819509e-03
2.931064e-03
4.414844e-03
6.356898e-03
8.864484e-03
1.207259e-02
1.615284e-02
2.132595e-02
2.787802e-02
3.617939e-02
4.670260e-02
6.003116e-02
7.684498e-02
9.786441e-02
1.237388e-01
1.548707e-01
1.911711e-01
2.317326e-01
2.743982e-01
3.152382e-01
3.480956e-01
3.646692e-01
3.566786e-01
3.211123e-01
2.645435e-01
0.000000e+00
2.577526e-02
5.214635e-02
7.972548e-02
1.091012e-01
1.404936e-01
1.738173e-01
2.088094e-01
2.451833e-01
2.826897e-01
3.211443e-01
3.604330e-01
4.005027e-01
4.413513e-01
4.830190e-01
5.255818e-01
5.691492e-01
6.138701e-01
6.599448e-01
7.076341e-01
7.572426e-01
8.090518e-01
8.631840e-01
9.194062e-01
9.768972e-01
1.033996e+00
1.087941e+00
1.134667e+00
1.168855e+00
1.184645e+00
1.177690e+00
1.148430e+00
1.104377e+00
0.000000e+00
5.154940e-02
1.041453e-01
1.594209e-01
2.185481e-01
2.818493e-01
3.488042e-01
4.187676e-01
4.910868e-01
5.651957e-01
6.406840e-01
7.172679e-01
7.947559e-01
8.730261e-01
9.519985e-01
1.031609e+00
1.111786e+00
1.192438e+00
1.273456e+00
1.354723e+00
1.436109e+00
1.517410e+00
1.598194e+00
1.677622e+00
1.754279e+00
1.826048e+00
1.890028e+00
1.942563e+00
1.979558e+00
1.997345e+00
1.994334e+00
1.973095e+00
1.941628e+00
0.000000e+00
7.663918e-02
1.552289e-01
2.384485e-01
3.289885e-01
4.258825e-01
5.279774e-01
6.340811e-01
7.431140e-01
8.542674e-01
9.669644e-01
1.080812e+00
1.195539e+00
1.310943e+00
1.426859e+00
1.543118e+00
1.659503e+00
1.775711e+00
1.891335e+00
2.005868e+00
2.118713e+00
2.229121e+00
2.336046e+00
2.438035e+00
2.533195e+00
2.619214e+00
2.693408e+00
2.752842e+00
2.794689e+00
2.816978e+00
2.819864e+00
2.807086e+00
2.786961e+00
0.000000e+00
1.001041e-01
2.028287e-01
3.181446e-01
4.427694e-01
5.764354e-01
7.164059e-01
8.602149e-01
1.006993e+00
1.155809e+00
1.305903e+00
1.456945e+00
1.608673e+00
1.760842e+00
1.913258e+00
2.065705e+00
2.217886e+00
2.369366e+00
2.519529e+00
2.667546e+00
2.812343e+00
2.952496e+00
3.086165e+00
3.211163e+00
3.325147e+00
3.425789e+00
3.510862e+00
3.578320e+00
3.626536e+00
3.654841e+00
3.664446e+00
3.659634e+00
3.648936e+00
0.000000e+00
1.214565e-01
2.524960e-01
4.069376e-01
5.746954e-01
7.477552e-01
9.283613e-01
1.112051e+00
1.296870e+00
1.483443e+00
1.670858e+00
1.858546e+00
2.046594e+00
2.234796e+00
2.422891e+00
2.610709e+00
2.797952e+00
2.984142e+00
3.168628e+00
3.350466e+00
3.528133e+00
3.699299e+00
3.860955e+00
4.009903e+00
4.143280e+00
4.258835e+00
4.354947e+00
4.430574e+00
4.485306e+00
4.519642e+00
4.535564e+00
4.537502e+00
4.533890e+00
0.000000e+00
1.654200e-01
3.448130e-01
5.507045e-01
7.684536e-01
9.831177e-01
1.203863e+00
1.426637e+00
1.648241e+00
1.870864e+00
2.093889e+00
2.316400e+00
2.538787e+00
2.760992e+00
2.982683e+00
3.203743e+00
3.423931e+00
3.642794e+00
3.859836e+00
4.074295e+00
4.284393e+00
4.486755e+00
4.676793e+00
4.849896e+00
5.002456e+00
5.132220e+00
5.238162e+00
5.320273e+00
5.379464e+00
5.417592e+00
5.437625e+00
5.444146e+00
5.444868e+00
0.000000e+00
2.388413e-01
4.923310e-01
7.518072e-01
1.018244e+00
1.274373e+00
1.534753e+00
1.796117e+00
2.054413e+00
2.313250e+00
2.572188e+00
2.829956e+00
3.087195e+00
3.343935e+00
3.599742e+00
3.854523e+00
4.108063e+00
4.359904e+00
4.609681e+00
4.856830e+00
5.099362e+00
5.332841e+00
5.551001e+00
5.747666e+00
5.918304e+00
6.060428e+00
6.173357e+00
6.257928e+00
6.316402e+00
6.352441e+00
6.370952e+00
6.377695e+00
6.379334e+00
0.000000e+00
3.935773e-01
7.013562e-01
1.006143e+00
1.314286e+00
1.609160e+00
1.908101e+00
2.207182e+00
2.502570e+00
2.798675e+00
3.094816e+00
3.389637e+00
3.683940e+00
3.977693e+00
4.270405e+00
4.561993e+00
4.852223e+00
5.140607e+00
5.426745e+00
5.709831e+00
5.987145e+00
6.252959e+00
6.499493e+00
6.719261e+00
6.906789e+00
7.058985e+00
7.174892e+00
7.255545e+00
7.304141e+00
7.326393e+00
7.330725e+00
7.327612e+00
7.325795e+00
0.000000e+00
-2.395859e-01
-4.584739e-01
-7.260055e-01
-1.027900e+00
-1.364959e+00
-1.741008e+00
-2.152719e+00
-2.600891e+00
-3.086722e+00
-3.609629e+00
-4.169830e+00
-4.767758e+00
-5.403375e+00
-6.076700e+00
-6.787831e+00
-7.536759e+00
-8.323423e+00
-9.147735e+00
-1.000956e+01
-1.090872e+01
-1.184508e+01
-1.281847e+01
-1.382899e+01
-1.487739e+01
-1.596580e+01
-1.709849e+01
-1.828265e+01
-1.952918e+01
-2.085509e+01
-2.230383e+01
-2.401530e+01
-2.636643e+01
0.000000e+00
-1.488338e-01
-3.784234e-01
-6.414339e-01
-9.445257e-01
-1.282345e+00
-1.657324e+00
-2.069455e+00
-2.517934e+00
-3.003537e+00
-3.526591e+00
-4.087005e+00
-4.685008e+00
-5.320769e+00
-5.994297e+00
-6.705630e+00
-7.454789e+00
-8.241733e+00
-9.066372e+00
-9.928569e+00
-1.082817e+01
-1.176507e+01
-1.273924e+01
-1.375086e+01
-1.480069e+01
-1.589061e+01
-1.702453e+01
-1.820936e+01
-1.945644e+01
-2.078574e+01
-2.224187e+01
-2.392498e+01
-2.606305e+01
0.000000e+00
-1.137691e-01
-3.183318e-01
-5.763928e-01
-8.767490e-01
-1.213039e+00
-1.586746e+00
-1.998332e+00
-2.446541e+00
-2.931911e+00
-3.454925e+00
-4.015420e+00
-4.613538e+00
-5.249482e+00
-5.923274e+00
-6.634938e+00
-7.384510e+00
-8.171969e+00
-8.997252e+00
-9.860259e+00
-1.076089e+01
-1.169910e+01
-1.267500e+01
-1.368889e+01
-1.474155e+01
-1.583484e+01
-1.697265e+01
-1.816236e+01
-1.941755e+01
-2.076252e+01
-2.222574e+01
-2.380941e+01
-2.549017e+01
0.000000e+00
-1.075441e-01
-2.906501e-01
-5.355127e-01
-8.282488e-01
-1.159915e+00
-1.530821e+00
-1.940475e+00
-2.387553e+00
-2.872302e+00
-3.394973e+00
-3.955384e+00
-4.553618e+00
-5.189826e+00
-5.864036e+00
-6.576286e+00
-7.326618e+00
-8.115046e+00
-8.941558e+00
-9.806119e+00
-1.070870e+01
-1.164934e+01
-1.262819e+01
-1.364563e+01
-1.470245e+01
-1.580050e+01
-1.694368e+01
-1.813961e+01
-1.940230e+01
-2.075298e+01
-2.219019e+01
-2.364895e+01
-2.499786e+01
0.000000e+00
-1.144429e-01
-2.864783e-01
-5.181887e-01
-7.994709e-01
-1.124293e+00
-1.490489e+00
-1.896723e+00
-2.341782e+00
-2.825355e+00
-3.347331e+00
-3.907506e+00
-4.505855e+00
-5.142433e+00
-5.817268e+00
-6.530406e+00
-7.281906e+00
-8.071819e+00
-8.900194e+00
-9.767062e+00
-1.067245e+01
-1.161643e+01
-1.259913e+01
-1.362087e+01
-1.468232e+01
-1.578511e+01
-1.693262e+01
-1.813131e+01
-1.939202e+01
-2.072534e+01
-2.210747e+01
-2.344586e+01
-2.463706e+01
0.000000e+00
-1.176483e-01
-2.873071e-01
-5.102542e-01
-7.831192e-01
-1.101376e+00
-1.462769e+00
-1.865487e+00
-2.308278e+00
-2.790498e+00
-3.311714e+00
-3.871639e+00
-4.470151e+00
-5.107220e+00
-5.782862e+00
-6.497138e+00
-7.250131e+00
-8.041936e+00
-8.872651e+00
-9.742357e+00
-1.065110e+01
-1.159890e+01
-1.258578e+01
-1.361182e+01
-1.467736e+01
-1.578337e+01
-1.693193e+01
-1.812675e+01
-1.937282e+01
-2.066946e+01
-2.197831e+01
-2.321907e+01
-2.430708e+01
0.000000e+00
-1.188572e-01
-2.875330e-01
-5.063412e-01
-7.737824e-01
-1.087400e+00
-1.444995e+00
-1.844886e+00
-2.285801e+00
-2.766866e+00
-3.287490e+00
-3.847292e+00
-4.446065e+00
-5.083729e+00
-5.760297e+00
-6.475847e+00
-7.230495e+00
-8.024381e+00
-8.857643e+00
-9.730377e+00
-1.064261e+01
-1.159423e+01
-1.258504e+01
-1.361471e+01
-1.468296e+01
-1.578965e+01
-1.693492e+01
-1.811893e+01
-1.934043e+01
-2.058961e+01
-2.182657e+01
-2.298565e+01
-2.399814e+01
0.000000e+00
-1.193666e-01
-2.874980e-01
-5.043925e-01
-7.691134e-01
-1.080024e+00
-1.435359e+00
-1.833544e+00
-2.273317e+00
-2.753729e+00
-3.274106e+00
-3.834003e+00
-4.433171e+00
-5.071510e+00
-5.749039e+00
-6.465861e+00
-7.222133e+00
-8.018036e+00
-8.853735e+00
-9.729324e+00
-1.064476e+01
-1.159976e+01
-1.259377e+01
-1.362591e+01
-1.469501e+01
-1.579953e+01
-1.693743e+01
-1.810541e+01
-1.929703e+01
-2.049713e+01
-2.166966e+01
-2.276210e+01
-2.371966e+01
0.000000e+00
-1.195597e-01
-2.875736e-01
-5.039721e-01
-7.679450e-01
-1.078095e+00
-1.432809e+00
-1.830582e+00
-2.270161e+00
-2.750583e+00
-3.271155e+00
-3.831422e+00
-4.431128e+00
-5.070182e+00
-5.748620e+00
-6.466580e+00
-7.224256e+00
-8.021867e+00
-8.859603e+00
-9.737547e+00
-1.065556e+01
-1.161316e+01
-1.260935e+01
-1.364258e+01
-1.471060e+01
-1.581044e+01
-1.693795e+01
-1.808701e+01
-1.924772e+01
-2.040265e+01
-2.152100e+01
-2.256175e+01
-2.348231e+01
0.000000e+00
-1.195414e-01
-2.878555e-01
-5.049688e-01
-7.699646e-01
-1.081218e+00
-1.436975e+00
-1.835670e+00
-2.276053e+00
-2.757189e+00
-3.278418e+00
-3.839325e+00
-4.439690e+00
-5.079451e+00
-5.758673e+00
-6.477524e+00
-7.236232e+00
-8.035050e+00
-8.874196e+00
-9.753748e+00
-1.067349e+01
-1.163271e+01
-1.262996e+01
-1.366292e+01
-1.472826e+01
-1.582157e+01
-1.693698e+01
-1.806638e+01
-1.919814e+01
-2.031481e+01
-2.139090e+01
-2.239497e+01
-2.329471e+01
0.000000e+00
-1.191854e-01
-2.882070e-01
-5.074380e-01
-7.754160e-01
-1.089704e+00
-1.448122e+00
-1.849008e+00
-2.291111e+00
-2.773582e+00
-3.295863e+00
-3.857623e+00
-4.458712e+00
-5.099119e+00
-5.778942e+00
-6.498370e+00
-7.257654e+00
-8.057068e+00
-8.896860e+00
-9.777132e+00
-1.069764e+01
-1.165747e+01
-1.265472e+01
-1.368628e+01
-1.474778e+01
-1.583353e+01
-1.693635e+01
-1.804701e+01
-1.915343e+01
-2.023958e+01
-2.128490e+01
-2.226575e+01
-2.315799e+01
0.000000e+00
-1.180835e-01
-2.882120e-01
-5.117610e-01
-7.853992e-01
-1.104622e+00
-1.467198e+00
-1.871343e+00
-2.315834e+00
-2.800063e+00
-3.323645e+00
-3.886356e+00
-4.488155e+00
-5.129096e+00
-5.809307e+00
-6.528987e+00
-7.288389e+00
-8.087787e+00
-8.927447e+00
-9.807536e+00
-1.072785e+01
-1.168735e+01
-1.268370e+01
-1.371302e+01
-1.476995e+01
-1.584779e+01
-1.693848e+01
-1.803229e+01
-1.911753e+01
-2.018020e+01
-2.120420e+01
-2.217231e+01
-2.306729e+01
0.000000e+00
-1.149103e-01
-2.874842e-01
-5.199467e-01
-8.022038e-01
-1.128234e+00
-1.495909e+00
-1.903921e+00
-2.351093e+00
-2.837161e+00
-3.362069e+00
-3.925689e+00
-4.528084e+00
-5.169406e+00
-5.849795e+00
-6.569449e+00
-7.328606e+00
-8.127499e+00
-8.966388e+00
-9.845528e+00
-1.076483e+01
-1.172320e+01
-1.271786e+01
-1.374422e+01
-1.479612e+01
-1.586611e+01
-1.694562e+01
-1.802487e+01
-1.909290e+01
-2.013778e+01
-2.114730e+01
-2.210991e+01
-2.301498e+01
0.000000e+00
-1.079390e-01
-2.916126e-01
-5.373396e-01
-8.312034e-01
-1.164248e+00
-1.536838e+00
-1.948513e+00
-2.397982e+00
-2.885555e+00
-3.411546e+00
-3.975850e+00
-4.578643e+00
-5.220169e+00
-5.900561e+00
-6.620006e+00
-7.378717e+00
-8.176857e+00
-9.014636e+00
-9.892373e+00
-1.081008e+01
-1.176657e+01
-1.275870e+01
-1.378131e+01
-1.482766e+01
-1.588992e+01
-1.695931e+01
-1.802622e+01
-1.908044e+01
-2.011181e+01
-2.111135e+01
-2.207253e+01
-2.299190e+01
0.000000e+00
-1.140299e-01
-3.191916e-01
-5.781702e-01
-8.797324e-01
-1.217483e+00
-1.592967e+00
-2.006684e+00
-2.457412e+00
-2.945761e+00
-3.472284e+00
-4.036896e+00
-4.639826e+00
-5.281364e+00
-5.961629e+00
-6.680783e+00
-7.439007e+00
-8.236401e+00
-9.073111e+00
-9.949404e+00
-1.086521e+01
-1.181912e+01
-1.280767e+01
-1.382539e+01
-1.486538e+01
-1.591976e+01
-1.697983e+01
-1.803625e+01
-1.907943e+01
-2.010046e+01
-2.109265e+01
-2.205369e+01
-2.298758e+01
0.000000e+00
-1.490267e-01
-3.792358e-01
-6.431755e-01
-9.474912e-01
-1.286797e+00
-1.663578e+00
-2.077864e+00
-2.528888e+00
-3.017502e+00
-3.544110e+00
-4.108689e+00
-4.711551e+00
-5.352947e+00
-6.032977e+00
-6.751793e+00
-7.509536e+00
-8.306282e+00
-9.142142e+00
-1.001720e+01
-1.093099e+01
-1.188163e+01
-1.286536e+01
-1.387674e+01
-1.490914e+01
-1.595499e+01
-1.700594e+01
-1.805301e+01
-1.908711e+01
-2.010009e+01
-2.108658e+01
-2.204686e+01
-2.299076e+01
0.000000e+00
-2.398325e-01
-4.593188e-01
-7.277793e-01
-1.030884e+00
-1.369431e+00
-1.747284e+00
-2.161142e+00
-2.611848e+00
-3.100673e+00
-3.627113e+00
-4.191446e+00
-4.794177e+00
-5.435349e+00
-6.115067e+00
-6.833521e+00
-7.590784e+00
-8.386917e+00
-9.222031e+00
-1.009594e+01
-1.100747e+01
-1.195402e+01
-1.293153e+01