TITLE = "Solution"
VARIABLES = x, y, u, v, psiu, psiv, t, stress
ZONE T="structure" N=561 E=512 F=FEBLOCK ET=QUADRILATERAL VARLOCATION=([7,8]=cellcentered)
0.000000e+00
6.250000e+00
1.250000e+01
1.875000e+01
2.500000e+01
3.125000e+01
3.750000e+01
4.375000e+01
5.000000e+01
5.625000e+01
6.250000e+01
6.875000e+01
7.500000e+01
8.125000e+01
8.750000e+01
9.375000e+01
1.000000e+02
1.062500e+02
1.125000e+02
1.187500e+02
1.250000e+02
1.312500e+02
1.375000e+02
1.437500e+02
1.500000e+02
1.562500e+02
1.625000e+02
1.687500e+02
1.750000e+02
1.812500e+02
1.875000e+02
1.937500e+02
2.000000e+02
0.000000e+00
6.250000e+00
1.250000e+01
1.875000e+01
2.500000e+01
3.125000e+01
3.750000e+01
4.375000e+01
5.000000e+01
5.625000e+01
6.250000e+01
6.875000e+01
7.500000e+01
8.125000e+01
8.750000e+01
9.375000e+01
1.000000e+02
1.062500e+02
1.125000e+02
1.187500e+02
1.250000e+02
1.312500e+02
1.375000e+02
1.437500e+02
1.500000e+02
1.562500e+02
1.625000e+02
1.687500e+02
1.750000e+02
1.812500e+02
1.875000e+02
1.937500e+02
2.000000e+02
0.000000e+00
6.250000e+00
1.250000e+01
1.875000e+01
2.500000e+01
3.125000e+01
3.750000e+01
4.375000e+01
5.000000e+01
5.625000e+01
6.250000e+01
6.875000e+01
7.500000e+01
8.125000e+01
8.750000e+01
9.375000e+01
1.000000e+02
1.062500e+02
1.125000e+02
1.187500e+02
1.250000e+02
1.312500e+02
1.375000e+02
1.437500e+02
1.500000e+02
1.562500e+02
1.625000e+02
1.687500e+02
1.750000e+02
1.812500e+02
1.875000e+02
1.937500e+02
2.000000e+02
0.000000e+00
6.250000e+00
1.250000e+01
1.875000e+01
2.500000e+01
3.125000e+01
3.750000e+01
4.375000e+01
5.000000e+01
5.625000e+01
6.250000e+01
6.875000e+01
7.500000e+01
8.125000e+01
8.750000e+01
9.375000e+01
1.000000e+02
1.062500e+02
1.125000e+02
1.187500e+02
1.250000e+02
1.312500e+02
1.375000e+02
1.437500e+02
1.500000e+02
1.562500e+02
1.625000e+02
1.687500e+02
1.750000e+02
1.812500e+02
1.875000e+02
1.937500e+02
2.000000e+02
0.000000e+00
6.250000e+00
1.250000e+01
1.875000e+01
2.500000e+01
3.125000e+01
3.750000e+01
4.375000e+01
5.000000e+01
5.625000e+01
6.250000e+01
6.875000e+01
7.500000e+01
8.125000e+01
8.750000e+01
9.375000e+01
1.000000e+02
1.062500e+02
1.125000e+02
1.187500e+02
1.250000e+02
1.312500e+02
1.375000e+02
1.437500e+02
1.500000e+02
1.562500e+02
1.625000e+02
1.687500e+02
1.750000e+02
1.812500e+02
1.875000e+02
1.937500e+02
2.000000e+02
0.000000e+00
6.250000e+00
1.250000e+01
1.875000e+01
2.500000e+01
3.125000e+01
3.750000e+01
4.375000e+01
5.000000e+01
5.625000e+01
6.250000e+01
6.875000e+01
7.500000e+01
8.125000e+01
8.750000e+01
9.375000e+01
1.000000e+02
1.062500e+02
1.125000e+02
1.187500e+02
1.250000e+02
1.312500e+02
1.375000e+02
1.437500e+02
1.500000e+02
1.562500e+02
1.625000e+02
1.687500e+02
1.750000e+02
1.812500e+02
1.875000e+02
1.937500e+02
2.000000e+02
0.000000e+00
6.250000e+00
1.250000e+01
1.875000e+01
2.500000e+01
3.125000e+01
3.750000e+01
4.375000e+01
5.000000e+01
5.625000e+01
6.250000e+01
6.875000e+01
7.500000e+01
8.125000e+01
8.750000e+01
9.375000e+01
1.000000e+02
1.062500e+02
1.125000e+02
1.187500e+02
1.250000e+02
1.312500e+02
1.375000e+02
1.437500e+02
1.500000e+02
1.562500e+02
1.625000e+02
1.687500e+02
1.750000e+02
1.812500e+02
1.875000e+02
1.937500e+02
2.000000e+02
0.000000e+00
6.250000e+00
1.250000e+01
1.875000e+01
2.500000e+01
3.125000e+01
3.750000e+01
4.375000e+01
5.000000e+01
5.625000e+01
6.250000e+01
6.875000e+01
7.500000e+01
8.125000e+01
8.750000e+01
9.375000e+01
1.000000e+02
1.062500e+02
1.125000e+02
1.187500e+02
1.250000e+02
1.312500e+02
1.375000e+02
1.437500e+02
1.500000e+02
1.562500e+02
1.625000e+02
1.687500e+02
1.750000e+02
1.812500e+02
1.875000e+02
1.937500e+02
2.000000e+02
0.000000e+00
6.250000e+00
1.250000e+01
1.875000e+01
2.500000e+01
3.125000e+01
3.750000e+01
4.375000e+01
5.000000e+01
5.625000e+01
6.250000e+01
6.875000e+01
7.500000e+01
8.125000e+01
8.750000e+01
9.375000e+01
1.000000e+02
1.062500e+02
1.125000e+02
1.187500e+02
1.250000e+02
1.312500e+02
1.375000e+02
1.437500e+02
1.500000e+02
1.562500e+02
1.625000e+02
1.687500e+02
1.750000e+02
1.812500e+02
1.875000e+02
1.937500e+02
2.000000e+02
0.000000e+00
6.250000e+00
1.250000e+01
1.875000e+01
2.500000e+01
3.125000e+01
3.750000e+01
4.375000e+01
5.000000e+01
5.625000e+01
6.250000e+01
6.875000e+01
7.500000e+01
8.125000e+01
8.750000e+01
9.375000e+01
1.000000e+02
1.062500e+02
1.125000e+02
1.187500e+02
1.250000e+02
1.312500e+02
1.375000e+02
1.437500e+02
1.500000e+02
1.562500e+02
1.625000e+02
1.687500e+02
1.750000e+02
1.812500e+02
1.875000e+02
1.937500e+02
2.000000e+02
0.000000e+00
6.250000e+00
1.250000e+01
1.875000e+01
2.500000e+01
3.125000e+01
3.750000e+01
4.375000e+01
5.000000e+01
5.625000e+01
6.250000e+01
6.875000e+01
7.500000e+01
8.125000e+01
8.750000e+01
9.375000e+01
1.000000e+02
1.062500e+02
1.125000e+02
1.187500e+02
1.250000e+02
1.312500e+02
1.375000e+02
1.437500e+02
1.500000e+02
1.562500e+02
1.625000e+02
1.687500e+02
1.750000e+02
1.812500e+02
1.875000e+02
1.937500e+02
2.000000e+02
0.000000e+00
6.250000e+00
1.250000e+01
1.875000e+01
2.500000e+01
3.125000e+01
3.750000e+01
4.375000e+01
5.000000e+01
5.625000e+01
6.250000e+01
6.875000e+01
7.500000e+01
8.125000e+01
8.750000e+01
9.375000e+01
1.000000e+02
1.062500e+02
1.125000e+02
1.187500e+02
1.250000e+02
1.312500e+02
1.375000e+02
1.437500e+02
1.500000e+02
1.562500e+02
1.625000e+02
1.687500e+02
1.750000e+02
1.812500e+02
1.875000e+02
1.937500e+02
2.000000e+02
0.000000e+00
6.250000e+00
1.250000e+01
1.875000e+01
2.500000e+01
3.125000e+01
3.750000e+01
4.375000e+01
5.000000e+01
5.625000e+01
6.250000e+01
6.875000e+01
7.500000e+01
8.125000e+01
8.750000e+01
9.375000e+01
1.000000e+02
1.062500e+02
1.125000e+02
1.187500e+02
1.250000e+02
1.312500e+02
1.375000e+02
1.437500e+02
1.500000e+02
1.562500e+02
1.625000e+02
1.687500e+02
1.750000e+02
1.812500e+02
1.875000e+02
1.937500e+02
2.000000e+02
0.000000e+00
6.250000e+00
1.250000e+01
1.875000e+01
2.500000e+01
3.125000e+01
3.750000e+01
4.375000e+01
5.000000e+01
5.625000e+01
6.250000e+01
6.875000e+01
7.500000e+01
8.125000e+01
8.750000e+01
9.375000e+01
1.000000e+02
1.062500e+02
1.125000e+02
1.187500e+02
1.250000e+02
1.312500e+02
1.375000e+02
1.437500e+02
1.500000e+02
1.562500e+02
1.625000e+02
1.687500e+02
1.750000e+02
1.812500e+02
1.875000e+02
1.937500e+02
2.000000e+02
0.000000e+00
6.250000e+00
1.250000e+01
1.875000e+01
2.500000e+01
3.125000e+01
3.750000e+01
4.375000e+01
5.000000e+01
5.625000e+01
6.250000e+01
6.875000e+01
7.500000e+01
8.125000e+01
8.750000e+01
9.375000e+01
1.000000e+02
1.062500e+02
1.125000e+02
1.187500e+02
1.250000e+02
1.312500e+02
1.375000e+02
1.437500e+02
1.500000e+02
1.562500e+02
1.625000e+02
1.687500e+02
1.750000e+02
1.812500e+02
1.875000e+02
1.937500e+02
2.000000e+02
0.000000e+00
6.250000e+00
1.250000e+01
1.875000e+01
2.500000e+01
3.125000e+01
3.750000e+01
4.375000e+01
5.000000e+01
5.625000e+01
6.250000e+01
6.875000e+01
7.500000e+01
8.125000e+01
8.750000e+01
9.375000e+01
1.000000e+02
1.062500e+02
1.125000e+02
1.187500e+02
1.250000e+02
1.312500e+02
1.375000e+02
1.437500e+02
1.500000e+02
1.562500e+02
1.625000e+02
1.687500e+02
1.750000e+02
1.812500e+02
1.875000e+02
1.937500e+02
2.000000e+02
0.000000e+00
6.250000e+00
1.250000e+01
1.875000e+01
2.500000e+01
3.125000e+01
3.750000e+01
4.375000e+01
5.000000e+01
5.625000e+01
6.250000e+01
6.875000e+01
7.500000e+01
8.125000e+01
8.750000e+01
9.375000e+01
1.000000e+02
1.062500e+02
1.125000e+02
1.187500e+02
1.250000e+02
1.312500e+02
1.375000e+02
1.437500e+02
1.500000e+02
1.562500e+02
1.625000e+02
1.687500e+02
1.750000e+02
1.812500e+02
1.875000e+02
1.937500e+02
2.000000e+02
0.000000e+00
0.000000e+00
0.000000e+00
0.000000e+00
0.000000e+00
0.000000e+00
0.000000e+00
0.000000e+00
0.000000e+00
0.000000e+00
0.000000e+00
0.000000e+00
0.000000e+00
0.000000e+00
0.000000e+00
0.000000e+00
0.000000e+00
0.000000e+00
0.000000e+00
0.000000e+00
0.000000e+00
0.000000e+00
0.000000e+00
0.000000e+00
0.000000e+00
0.000000e+00
0.000000e+00
0.000000e+00
0.000000e+00
0.000000e+00
0.000000e+00
0.000000e+00
0.000000e+00
6.250000e+00
6.250000e+00
6.250000e+00
6.250000e+00
6.250000e+00
6.250000e+00
6.250000e+00
6.250000e+00
6.250000e+00
6.250000e+00
6.250000e+00
6.250000e+00
6.250000e+00
6.250000e+00
6.250000e+00
6.250000e+00
6.250000e+00
6.250000e+00
6.250000e+00
6.250000e+00
6.250000e+00
6.250000e+00
6.250000e+00
6.250000e+00
6.250000e+00
6.250000e+00
6.250000e+00
6.250000e+00
6.250000e+00
6.250000e+00
6.250000e+00
6.250000e+00
6.250000e+00
1.250000e+01
1.250000e+01
1.250000e+01
1.250000e+01
1.250000e+01
1.250000e+01
1.250000e+01
1.250000e+01
1.250000e+01
1.250000e+01
1.250000e+01
1.250000e+01
1.250000e+01
1.250000e+01
1.250000e+01
1.250000e+01
1.250000e+01
1.250000e+01
1.250000e+01
1.250000e+01
1.250000e+01
1.250000e+01
1.250000e+01
1.250000e+01
1.250000e+01
1.250000e+01
1.250000e+01
1.250000e+01
1.250000e+01
1.250000e+01
1.250000e+01
1.250000e+01
1.250000e+01
1.875000e+01
1.875000e+01
1.875000e+01
1.875000e+01
1.875000e+01
1.875000e+01
1.875000e+01
1.875000e+01
1.875000e+01
1.875000e+01
1.875000e+01
1.875000e+01
1.875000e+01
1.875000e+01
1.875000e+01
1.875000e+01
1.875000e+01
1.875000e+01
1.875000e+01
1.875000e+01
1.875000e+01
1.875000e+01
1.875000e+01
1.875000e+01
1.875000e+01
1.875000e+01
1.875000e+01
1.875000e+01
1.875000e+01
1.875000e+01
1.875000e+01
1.875000e+01
1.875000e+01
2.500000e+01
2.500000e+01
2.500000e+01
2.500000e+01
2.500000e+01
2.500000e+01
2.500000e+01
2.500000e+01
2.500000e+01
2.500000e+01
2.500000e+01
2.500000e+01
2.500000e+01
2.500000e+01
2.500000e+01
2.500000e+01
2.500000e+01
2.500000e+01
2.500000e+01
2.500000e+01
2.500000e+01
2.500000e+01
2.500000e+01
2.500000e+01
2.500000e+01
2.500000e+01
2.500000e+01
2.500000e+01
2.500000e+01
2.500000e+01
2.500000e+01
2.500000e+01
2.500000e+01
3.125000e+01
3.125000e+01
3.125000e+01
3.125000e+01
3.125000e+01
3.125000e+01
3.125000e+01
3.125000e+01
3.125000e+01
3.125000e+01
3.125000e+01
3.125000e+01
3.125000e+01
3.125000e+01
3.125000e+01
3.125000e+01
3.125000e+01
3.125000e+01
3.125000e+01
3.125000e+01
3.125000e+01
3.125000e+01
3.125000e+01
3.125000e+01
3.125000e+01
3.125000e+01
3.125000e+01
3.125000e+01
3.125000e+01
3.125000e+01
3.125000e+01
3.125000e+01
3.125000e+01
3.750000e+01
3.750000e+01
3.750000e+01
3.750000e+01
3.750000e+01
3.750000e+01
3.750000e+01
3.750000e+01
3.750000e+01
3.750000e+01
3.750000e+01
3.750000e+01
3.750000e+01
3.750000e+01
3.750000e+01
3.750000e+01
3.750000e+01
3.750000e+01
3.750000e+01
3.750000e+01
3.750000e+01
3.750000e+01
3.750000e+01
3.750000e+01
3.750000e+01
3.750000e+01
3.750000e+01
3.750000e+01
3.750000e+01
3.750000e+01
3.750000e+01
3.750000e+01
3.750000e+01
4.375000e+01
4.375000e+01
4.375000e+01
4.375000e+01
4.375000e+01
4.375000e+01
4.375000e+01
4.375000e+01
4.375000e+01
4.375000e+01
4.375000e+01
4.375000e+01
4.375000e+01
4.375000e+01
4.375000e+01
4.375000e+01
4.375000e+01
4.375000e+01
4.375000e+01
4.375000e+01
4.375000e+01
4.375000e+01
4.375000e+01
4.375000e+01
4.375000e+01
4.375000e+01
4.375000e+01
4.375000e+01
4.375000e+01
4.375000e+01
4.375000e+01
4.375000e+01
4.375000e+01
5.000000e+01
5.000000e+01
5.000000e+01
5.000000e+01
5.000000e+01
5.000000e+01
5.000000e+01
5.000000e+01
5.000000e+01
5.000000e+01
5.000000e+01
5.000000e+01
5.000000e+01
5.000000e+01
5.000000e+01
5.000000e+01
5.000000e+01
5.000000e+01
5.000000e+01
5.000000e+01
5.000000e+01
5.000000e+01
5.000000e+01
5.000000e+01
5.000000e+01
5.000000e+01
5.000000e+01
5.000000e+01
5.000000e+01
5.000000e+01
5.000000e+01
5.000000e+01
5.000000e+01
5.625000e+01
5.625000e+01
5.625000e+01
5.625000e+01
5.625000e+01
5.625000e+01
5.625000e+01
5.625000e+01
5.625000e+01
5.625000e+01
5.625000e+01
5.625000e+01
5.625000e+01
5.625000e+01
5.625000e+01
5.625000e+01
5.625000e+01
5.625000e+01
5.625000e+01
5.625000e+01
5.625000e+01
5.625000e+01
5.625000e+01
5.625000e+01
5.625000e+01
5.625000e+01
5.625000e+01
5.625000e+01
5.625000e+01
5.625000e+01
5.625000e+01
5.625000e+01
5.625000e+01
6.250000e+01
6.250000e+01
6.250000e+01
6.250000e+01
6.250000e+01
6.250000e+01
6.250000e+01
6.250000e+01
6.250000e+01
6.250000e+01
6.250000e+01
6.250000e+01
6.250000e+01
6.250000e+01
6.250000e+01
6.250000e+01
6.250000e+01
6.250000e+01
6.250000e+01
6.250000e+01
6.250000e+01
6.250000e+01
6.250000e+01
6.250000e+01
6.250000e+01
6.250000e+01
6.250000e+01
6.250000e+01
6.250000e+01
6.250000e+01
6.250000e+01
6.250000e+01
6.250000e+01
6.875000e+01
6.875000e+01
6.875000e+01
6.875000e+01
6.875000e+01
6.875000e+01
6.875000e+01
6.875000e+01
6.875000e+01
6.875000e+01
6.875000e+01
6.875000e+01
6.875000e+01
6.875000e+01
6.875000e+01
6.875000e+01
6.875000e+01
6.875000e+01
6.875000e+01
6.875000e+01
6.875000e+01
6.875000e+01
6.875000e+01
6.875000e+01
6.875000e+01
6.875000e+01
6.875000e+01
6.875000e+01
6.875000e+01
6.875000e+01
6.875000e+01
6.875000e+01
6.875000e+01
7.500000e+01
7.500000e+01
7.500000e+01
7.500000e+01
7.500000e+01
7.500000e+01
7.500000e+01
7.500000e+01
7.500000e+01
7.500000e+01
7.500000e+01
7.500000e+01
7.500000e+01
7.500000e+01
7.500000e+01
7.500000e+01
7.500000e+01
7.500000e+01
7.500000e+01
7.500000e+01
7.500000e+01
7.500000e+01
7.500000e+01
7.500000e+01
7.500000e+01
7.500000e+01
7.500000e+01
7.500000e+01
7.500000e+01
7.500000e+01
7.500000e+01
7.500000e+01
7.500000e+01
8.125000e+01
8.125000e+01
8.125000e+01
8.125000e+01
8.125000e+01
8.125000e+01
8.125000e+01
8.125000e+01
8.125000e+01
8.125000e+01
8.125000e+01
8.125000e+01
8.125000e+01
8.125000e+01
8.125000e+01
8.125000e+01
8.125000e+01
8.125000e+01
8.125000e+01
8.125000e+01
8.125000e+01
8.125000e+01
8.125000e+01
8.125000e+01
8.125000e+01
8.125000e+01
8.125000e+01
8.125000e+01
8.125000e+01
8.125000e+01
8.125000e+01
8.125000e+01
8.125000e+01
8.750000e+01
8.750000e+01
8.750000e+01
8.750000e+01
8.750000e+01
8.750000e+01
8.750000e+01
8.750000e+01
8.750000e+01
8.750000e+01
8.750000e+01
8.750000e+01
8.750000e+01
8.750000e+01
8.750000e+01
8.750000e+01
8.750000e+01
8.750000e+01
8.750000e+01
8.750000e+01
8.750000e+01
8.750000e+01
8.750000e+01
8.750000e+01
8.750000e+01
8.750000e+01
8.750000e+01
8.750000e+01
8.750000e+01
8.750000e+01
8.750000e+01
8.750000e+01
8.750000e+01
9.375000e+01
9.375000e+01
9.375000e+01
9.375000e+01
9.375000e+01
9.375000e+01
9.375000e+01
9.375000e+01
9.375000e+01
9.375000e+01
9.375000e+01
9.375000e+01
9.375000e+01
9.375000e+01
9.375000e+01
9.375000e+01
9.375000e+01
9.375000e+01
9.375000e+01
9.375000e+01
9.375000e+01
9.375000e+01
9.375000e+01
9.375000e+01
9.375000e+01
9.375000e+01
9.375000e+01
9.375000e+01
9.375000e+01
9.375000e+01
9.375000e+01
9.375000e+01
9.375000e+01
1.000000e+02
1.000000e+02
1.000000e+02
1.000000e+02
1.000000e+02
1.000000e+02
1.000000e+02
1.000000e+02
1.000000e+02
1.000000e+02
1.000000e+02
1.000000e+02
1.000000e+02
1.000000e+02
1.000000e+02
1.000000e+02
1.000000e+02
1.000000e+02
1.000000e+02
1.000000e+02
1.000000e+02
1.000000e+02
1.000000e+02
1.000000e+02
1.000000e+02
1.000000e+02
1.000000e+02
1.000000e+02
1.000000e+02
1.000000e+02
1.000000e+02
1.000000e+02
1.000000e+02
0.000000e+00
-4.038650e-01
-7.136031e-01
-1.024420e+00
-1.334729e+00
-1.630754e+00
-1.933720e+00
-2.233984e+00
-2.530362e+00
-2.829215e+00
-3.127071e+00
-3.423689e+00
-3.720863e+00
-4.017621e+00
-4.313834e+00
-4.609988e+00
-4.905871e+00
-5.201456e+00
-5.496884e+00
-5.792149e+00
-6.087403e+00
-6.382940e+00
-6.678998e+00
-6.976034e+00
-7.274887e+00
-7.576350e+00
-7.881225e+00
-8.191516e+00
-8.512397e+00
-8.854931e+00
-9.228184e+00
-9.598323e+00
-9.800558e+00
0.000000e+00
-2.383906e-01
-4.902589e-01
-7.513033e-01
-1.018335e+00
-1.273746e+00
-1.536970e+00
-1.799150e+00
-2.058177e+00
-2.319551e+00
-2.580232e+00
-2.839803e+00
-3.099814e+00
-3.359444e+00
-3.618500e+00
-3.877374e+00
-4.135871e+00
-4.393913e+00
-4.651567e+00
-4.908754e+00
-5.165473e+00
-5.421755e+00
-5.677398e+00
-5.932119e+00
-6.185603e+00
-6.437045e+00
-6.684994e+00
-6.927994e+00
-7.164432e+00
-7.385953e+00
-7.556434e+00
-7.634264e+00
-7.731848e+00
0.000000e+00
-1.579336e-01
-3.313446e-01
-5.350078e-01
-7.504434e-01
-9.623365e-01
-1.183949e+00
-1.406573e+00
-1.628244e+00
-1.852409e+00
-2.076492e+00
-2.300121e+00
-2.524236e+00
-2.748120e+00
-2.971570e+00
-3.194752e+00
-3.417410e+00
-3.639363e+00
-3.860481e+00
-4.080476e+00
-4.299008e+00
-4.515591e+00
-4.729356e+00
-4.939065e+00
-5.143084e+00
-5.339057e+00
-5.523662e+00
-5.692361e+00
-5.837835e+00
-5.944619e+00
-5.985247e+00
-5.984274e+00
-6.073287e+00
0.000000e+00
-1.132350e-01
-2.346555e-01
-3.838920e-01
-5.452247e-01
-7.142238e-01
-8.936289e-01
-1.076007e+00
-1.260175e+00
-1.447098e+00
-1.634633e+00
-1.822496e+00
-2.010884e+00
-2.199130e+00
-2.387013e+00
-2.574417e+00
-2.760979e+00
-2.946370e+00
-3.130209e+00
-3.311928e+00
-3.490789e+00
-3.665780e+00
-3.835446e+00
-3.997843e+00
-4.150484e+00
-4.290164e+00
-4.412730e+00
-4.512731e+00
-4.582638e+00
-4.612894e+00
-4.605938e+00
-4.611842e+00
-4.690215e+00
0.000000e+00
-9.535224e-02
-1.915750e-01
-3.011308e-01
-4.203903e-01
-5.502327e-01
-6.875172e-01
-8.290403e-01
-9.742983e-01
-1.121790e+00
-1.270485e+00
-1.420058e+00
-1.569953e+00
-1.719756e+00
-1.869186e+00
-2.017874e+00
-2.165420e+00
-2.311363e+00
-2.455102e+00
-2.595850e+00
-2.732571e+00
-2.863905e+00
-2.988085e+00
-3.102883e+00
-3.205589e+00
-3.292985e+00
-3.361339e+00
-3.406620e+00
-3.425402e+00
-3.418467e+00
-3.404492e+00
-3.429560e+00
-3.507210e+00
0.000000e+00
-7.399114e-02
-1.488898e-01
-2.279103e-01
-3.147313e-01
-4.082029e-01
-5.073352e-01
-6.109632e-01
-7.176414e-01
-8.264341e-01
-9.365886e-01
-1.047467e+00
-1.158607e+00
-1.269610e+00
-1.380094e+00
-1.489662e+00
-1.597856e+00
-1.704110e+00
-1.807706e+00
-1.907714e+00
-2.002947e+00
-2.091912e+00
-2.172790e+00
-2.243431e+00
-2.301415e+00
-2.344184e+00
-2.369332e+00
-2.375400e+00
-2.363719e+00
-2.342395e+00
-2.335826e+00
-2.369535e+00
-2.446285e+00
0.000000e+00
-5.018879e-02
-1.007491e-01
-1.535610e-01
-2.100755e-01
-2.708128e-01
-3.352798e-01
-4.027926e-01
-4.725677e-01
-5.438590e-01
-6.160845e-01
-6.887562e-01
-7.614595e-01
-8.338356e-01
-9.055278e-01
-9.761454e-01
-1.045227e+00
-1.112194e+00
-1.176308e+00
-1.236628e+00
-1.291979e+00
-1.340939e+00
-1.381861e+00
-1.412946e+00
-1.432395e+00
-1.438674e+00
-1.431031e+00
-1.410484e+00
-1.381599e+00
-1.355823e+00
-1.353944e+00
-1.392054e+00
-1.466717e+00
0.000000e+00
-2.533915e-02
-5.088556e-02
-7.729480e-02
-1.052601e-01
-1.350585e-01
-1.666048e-01
-1.995714e-01
-2.335573e-01
-2.681685e-01
-3.030494e-01
-3.378898e-01
-3.724092e-01
-4.063371e-01
-4.393893e-01
-4.712403e-01
-5.014920e-01
-5.296403e-01
-5.550386e-01
-5.768668e-01
-5.941149e-01
-6.055973e-01
-6.100159e-01
-6.060965e-01
-5.928217e-01
-5.698035e-01
-5.378731e-01
-4.999942e-01
-4.625484e-01
-4.368673e-01
-4.387807e-01
-4.778525e-01
-5.484714e-01
0.000000e+00
-2.120756e-04
-3.284352e-04
-3.318910e-04
-1.928527e-04
1.282158e-04
6.790160e-04
1.515000e-03
2.700311e-03
4.309525e-03
6.429866e-03
9.163967e-03
1.263356e-02
1.698465e-02
2.239510e-02
2.908540e-02
3.733383e-02
4.749635e-02
6.003029e-02
7.551635e-02
9.466678e-02
1.182977e-01
1.472345e-01
1.821224e-01
2.231285e-01
2.695283e-01
3.191620e-01
3.677873e-01
4.085100e-01
4.315914e-01
4.266778e-01
3.895132e-01
3.271946e-01
0.000000e+00
2.490710e-02
5.020502e-02
7.658471e-02
1.047994e-01
1.352046e-01
1.678087e-01
2.023923e-01
2.386804e-01
2.764252e-01
3.154433e-01
3.556261e-01
3.969319e-01
4.393749e-01
4.830146e-01
5.279462e-01
5.742973e-01
6.222275e-01
6.719348e-01
7.236659e-01
7.777260e-01
8.344559e-01
8.941234e-01
9.566924e-01
1.021491e+00
1.086835e+00
1.149661e+00
1.205250e+00
1.247270e+00
1.268506e+00
1.263261e+00
1.231462e+00
1.181611e+00
0.000000e+00
4.973044e-02
9.999238e-02
1.527045e-01
2.093815e-01
2.706186e-01
3.360094e-01
4.049709e-01
4.768371e-01
5.510009e-01
6.270439e-01
7.046699e-01
7.836886e-01
8.640038e-01
9.455661e-01
1.028348e+00
1.112325e+00
1.197447e+00
1.283624e+00
1.370713e+00
1.458538e+00
1.546895e+00
1.635450e+00
1.723476e+00
1.809542e+00
1.891258e+00
1.965166e+00
2.026806e+00
2.071120e+00
2.093445e+00
2.091465e+00
2.067823e+00
2.031751e+00
0.000000e+00
7.348236e-02
1.479880e-01
2.267889e-01
3.136266e-01
4.074150e-01
5.072390e-01
6.120197e-01
7.204145e-01
8.316146e-01
9.450171e-01
1.060158e+00
1.176777e+00
1.294702e+00
1.413802e+00
1.533957e+00
1.655013e+00
1.776743e+00
1.898796e+00
2.020649e+00
2.141639e+00
2.261001e+00
2.377764e+00
2.490476e+00
2.596996e+00
2.694471e+00
2.779488e+00
2.848313e+00
2.897341e+00
2.923964e+00
2.928033e+00
2.913661e+00
2.890449e+00
0.000000e+00
9.474667e-02
1.904554e-01
2.996198e-01
4.187035e-01
5.486133e-01
6.862491e-01
8.284826e-01
9.748896e-01
1.124073e+00
1.275137e+00
1.427902e+00
1.581985e+00
1.737153e+00
1.893314e+00
2.050278e+00
2.207809e+00
2.365585e+00
2.523079e+00
2.679502e+00
2.833831e+00
2.984775e+00
3.130576e+00
3.268818e+00
3.396526e+00
3.510513e+00
3.607699e+00
3.685317e+00
3.741174e+00
3.774239e+00
3.785679e+00
3.780292e+00
3.767914e+00
0.000000e+00
1.125243e-01
2.333143e-01
3.820478e-01
5.430150e-01
7.118172e-01
8.911881e-01
1.073729e+00
1.258317e+00
1.445989e+00
1.634701e+00
1.824282e+00
2.015057e+00
2.206493e+00
2.398496e+00
2.591053e+00
2.783865e+00
2.976587e+00
3.168670e+00
3.359280e+00
3.547380e+00
3.731267e+00
3.907992e+00
4.073550e+00
4.223767e+00
4.355129e+00
4.465091e+00
4.552029e+00
4.615206e+00
4.655005e+00
4.673555e+00
4.675872e+00
4.671680e+00
0.000000e+00
1.573760e-01
3.303104e-01
5.335805e-01
7.487047e-01
9.603308e-01
1.181721e+00
1.404175e+00
1.625730e+00
1.849862e+00
2.074039e+00
2.297926e+00
2.522515e+00
2.747138e+00
2.971630e+00
3.196176e+00
3.420523e+00
3.644388e+00
3.867324e+00
4.088752e+00
4.308137e+00
4.523800e+00
4.731404e+00
4.924586e+00
5.097304e+00
5.245440e+00
5.366956e+00
5.461431e+00
5.529706e+00
5.573788e+00
5.597002e+00
5.604572e+00
5.605398e+00
0.000000e+00
2.382614e-01
4.900519e-01
7.510304e-01
1.017977e+00
1.273278e+00
1.536381e+00
1.798405e+00
2.057212e+00
2.318294e+00
2.578598e+00
2.837667e+00
3.097017e+00
3.355771e+00
3.613656e+00
3.870969e+00
4.127429e+00
4.382770e+00
4.636630e+00
4.888657e+00
5.138834e+00
5.385604e+00
5.623278e+00
5.842986e+00
6.036580e+00
6.199094e+00
6.328728e+00
6.426042e+00
6.493458e+00
6.535087e+00
6.556511e+00
6.564330e+00
6.566228e+00
0.000000e+00
4.043737e-01
7.144814e-01
1.025659e+00
1.336214e+00
1.632441e+00
1.935613e+00
2.236025e+00
2.532485e+00
2.831327e+00
3.129025e+00
3.425274e+00
3.721785e+00
4.017470e+00
4.312058e+00
4.605875e+00
4.898566e+00
5.189875e+00
5.479513e+00
5.767196e+00
6.052771e+00
6.333773e+00
6.602577e+00
6.848108e+00
7.060634e+00
7.234349e+00
7.367141e+00
7.459793e+00
7.515776e+00
7.541508e+00
7.546585e+00
7.543029e+00
7.540938e+00
0.000000e+00
-2.449608e-01
-4.775128e-01
-7.653291e-01
-1.089407e+00
-1.451101e+00
-1.853480e+00
-2.291294e+00
-2.766438e+00
-3.279503e+00
-3.829338e+00
-4.416780e+00
-5.042106e+00
-5.705085e+00
-6.406016e+00
-7.145080e+00
-7.922309e+00
-8.737857e+00
-9.591856e+00
-1.048441e+01
-1.141568e+01
-1.238586e+01
-1.339527e+01
-1.444463e+01
-1.553532e+01
-1.666973e+01
-1.785202e+01
-1.908918e+01
-2.039142e+01
-2.177366e+01
-2.327524e+01
-2.504479e+01
-2.749493e+01
0.000000e+00
-1.525098e-01
-3.970266e-01
-6.799036e-01
-1.005989e+00
-1.367965e+00
-1.769202e+00
-2.207889e+00
-2.683013e+00
-3.195752e+00
-3.745913e+00
-4.333407e+00
-4.958700e+00
-5.621838e+00
-6.322873e+00
-7.062019e+00
-7.839382e+00
-8.655059e+00
-9.509193e+00
-1.040189e+01
-1.133328e+01
-1.230359e+01
-1.331313e+01
-1.436259e+01
-1.545336e+01
-1.658792e+01
-1.777043e+01
-1.900769e+01
-2.031046e+01
-2.169687e+01
-2.321001e+01
-2.495268e+01
-2.716321e+01
0.000000e+00
-1.186412e-01
-3.374440e-01
-6.158026e-01
-9.389754e-01
-1.299029e+00
-1.698820e+00
-2.136935e+00
-2.611523e+00
-3.123911e+00
-3.673987e+00
-4.261419e+00
-4.886714e+00
-5.549957e+00
-6.251145e+00
-6.990497e+00
-7.768135e+00
-8.584161e+00
-9.438729e+00
-1.033197e+01
-1.126404e+01
-1.223522e+01
-1.324591e+01
-1.429687e+01
-1.538955e+01
-1.652659e+01
-1.771234e+01
-1.895423e+01
-2.026560e+01
-2.167106e+01
-2.319829e+01
-2.483910e+01
-2.657056e+01
0.000000e+00
-1.176716e-01
-3.135240e-01
-5.787529e-01
-8.931167e-01
-1.247872e+00
-1.644372e+00
-2.080003e+00
-2.553121e+00
-3.064605e+00
-3.614073e+00
-4.201230e+00
-4.826459e+00
-5.489794e+00
-6.191250e+00
-6.931024e+00
-7.709243e+00
-8.526038e+00
-9.381595e+00
-1.027609e+01
-1.120976e+01
-1.218297e+01
-1.319621e+01
-1.425031e+01
-1.534680e+01
-1.648831e+01
-1.767931e+01
-1.892776e+01
-2.024807e+01
-2.166295e+01
-2.316861e+01
-2.468096e+01
-2.607541e+01
0.000000e+00
-1.300839e-01
-3.167297e-01
-5.678471e-01
-8.696366e-01
-1.216636e+00
-1.607225e+00
-2.038441e+00
-2.509025e+00
-3.018745e+00
-3.567064e+00
-4.153729e+00
-4.778802e+00
-5.442273e+00
-6.144177e+00
-6.884652e+00
-7.663843e+00
-8.481921e+00
-9.339110e+00
-1.023566e+01
-1.117187e+01
-1.214816e+01
-1.316508e+01
-1.422344e+01
-1.532463e+01
-1.647102e+01
-1.766662e+01
-1.891836e+01
-2.023809e+01
-2.163775e+01
-2.308831e+01
-2.447727e+01
-2.570862e+01
0.000000e+00
-1.358635e-01
-3.229095e-01
-5.647142e-01
-8.579042e-01
-1.197885e+00
-1.582599e+00
-2.009621e+00
-2.477404e+00
-2.985229e+00
-3.532405e+00
-4.118553e+00
-4.743541e+00
-5.407290e+00
-6.109822e+00
-6.851253e+00
-7.631746e+00
-8.451522e+00
-9.310851e+00
-1.021005e+01
-1.114946e+01
-1.212950e+01
-1.315064e+01
-1.421351e+01
-1.531912e+01
-1.646911e+01
-1.766612e+01
-1.891435e+01
-2.021987e+01
-2.158359e+01
-2.295812e+01
-2.424922e+01
-2.537632e+01
0.000000e+00
-1.384203e-01
-3.259413e-01
-5.640354e-01
-8.517866e-01
-1.186962e+00
-1.567348e+00
-1.991070e+00
-2.456617e+00
-2.962920e+00
-3.509233e+00
-4.095060e+00
-4.720127e+00
-5.384314e+00
-6.087626e+00
-6.830175e+00
-7.612157e+00
-8.433841e+00
-9.295551e+00
-1.019764e+01
-1.114047e+01
-1.212437e+01
-1.314962e+01
-1.421646e+01
-1.532521e+01
-1.647633e+01
-1.767041e+01
-1.890790e+01
-2.018842e+01
-2.150337e+01
-2.280468e+01
-2.401574e+01
-2.506703e+01
0.000000e+00
-1.396000e-01
-3.273108e-01
-5.639232e-01
-8.490938e-01
-1.181499e+00
-1.559439e+00
-1.981233e+00
-2.445443e+00
-2.950931e+00
-3.496869e+00
-4.082697e+00
-4.708081e+00
-5.372869e+00
-6.077062e+00
-6.820785e+00
-7.604271e+00
-8.427835e+00
-9.291847e+00
-1.019668e+01
-1.114268e+01
-1.213001e+01
-1.315867e+01
-1.422833e+01
-1.533837e+01
-1.648774e+01
-1.767469e+01
-1.889594e+01
-2.014535e+01
-2.140816e+01
-2.264200e+01
-2.378557e+01
-2.477807e+01
0.000000e+00
-1.400228e-01
-3.278793e-01
-5.641898e-01
-8.487191e-01
-1.180406e+00
-1.557731e+00
-1.979112e+00
-2.443133e+00
-2.948652e+00
-3.494821e+00
-4.081061e+00
-4.707026e+00
-5.372563e+00
-6.077680e+00
-6.822525e+00
-7.607360e+00
-8.432540e+00
-9.298470e+00
-1.020554e+01
-1.115402e+01
-1.214394e+01
-1.317491e+01
-1.424594e+01
-1.535529e+01
-1.650027e+01
-1.767682e+01
-1.887851e+01
-2.009510e+01
-2.130829e+01
-2.248243e+01
-2.356921e+01
-2.451852e+01
0.000000e+00
-1.398667e-01
-3.278606e-01
-5.648061e-01
-8.503846e-01
-1.183288e+00
-1.561826e+00
-1.984326e+00
-2.449359e+00
-2.955796e+00
-3.502822e+00
-4.089891e+00
-4.716687e+00
-5.383081e+00
-6.089103e+00
-6.834920e+00
-7.620813e+00
-8.447159e+00
-9.314380e+00
-1.022287e+01
-1.117286e+01
-1.216424e+01
-1.319625e+01
-1.426717e+01
-1.537410e+01
-1.651271e+01
-1.767685e+01
-1.885776e+01
-2.004284e+01
-2.121297e+01
-2.233868e+01
-2.338269e+01
-2.430628e+01
0.000000e+00
-1.389272e-01
-3.269880e-01
-5.657271e-01
-8.542750e-01
-1.190425e+00
-1.571981e+00
-1.997083e+00
-2.464236e+00
-2.972393e+00
-3.520827e+00
-4.109072e+00
-4.736884e+00
-5.404185e+00
-6.111030e+00
-6.857598e+00
-7.644172e+00
-8.471123e+00
-9.338867e+00
-1.024779e+01
-1.119815e+01
-1.218975e+01
-1.322156e+01
-1.429115e+01
-1.539443e+01
-1.652550e+01
-1.767651e+01
-1.883723e+01
-1.999423e+01
-2.112952e+01
-2.221929e+01
-2.323548e+01
-2.414917e+01
0.000000e+00
-1.365527e-01
-3.243403e-01
-5.670653e-01
-8.614034e-01
-1.202791e+00
-1.589194e+00
-2.018204e+00
-2.488296e+00
-2.998785e+00
-3.549008e+00
-4.138622e+00
-4.767537e+00
-5.435719e+00
-6.143248e+00
-6.890314e+00
-7.677174e+00
-8.504167e+00
-9.371667e+00
-1.028004e+01
-1.122960e+01
-1.222028e+01
-1.325088e+01
-1.431830e+01
-1.541722e+01
-1.654035e+01
-1.767859e+01
-1.882098e+01
-1.995430e+01
-2.106267e+01
-2.212739e+01
-2.312811e+01
-2.404421e+01
0.000000e+00
-1.308596e-01
-3.183612e-01
-5.706337e-01
-8.738715e-01
-1.222635e+00
-1.615351e+00
-2.049056e+00
-2.522527e+00
-3.035581e+00
-3.587709e+00
-4.178699e+00
-4.808662e+00
-5.477623e+00
-6.185665e+00
-6.932983e+00
-7.719802e+00
-8.546400e+00
-9.413066e+00
-1.032010e+01
-1.126795e+01
-1.225683e+01
-1.328550e+01
-1.435015e+01
-1.544434e+01
-1.655960e+01
-1.768603e+01
-1.881249e+01
-1.992650e+01
-2.101447e+01
-2.206224e+01
-2.305612e+01
-2.398343e+01
0.000000e+00
-1.183755e-01
-3.151286e-01
-5.816892e-01
-8.977275e-01
-1.254500e+00
-1.653434e+00
-2.091906e+00
-2.568310e+00
-3.083600e+00
-3.637416e+00
-4.229506e+00
-4.860308e+00
-5.529876e+00
-6.238248e+00
-6.985648e+00
-7.772248e+00
-8.598253e+00
-9.463846e+00
-1.036921e+01
-1.131494e+01
-1.230153e+01
-1.332770e+01
-1.438896e+01
-1.547790e+01
-1.658532e+01
-1.770098e+01
-1.881386e+01
-1.991235e+01
-2.098485e+01
-2.202095e+01
-2.301293e+01
-2.395650e+01
0.000000e+00
-1.191448e-01
-3.388994e-01
-6.186634e-01
-9.436308e-01
-1.305815e+00
-1.708168e+00
-2.149282e+00
-2.627338e+00
-3.143753e+00
-3.698444e+00
-4.291116e+00
-4.922339e+00
-5.592206e+00
-6.300715e+00
-7.048089e+00
-7.834446e+00
-8.659909e+00
-9.524579e+00
-1.042857e+01
-1.137245e+01
-1.235671e+01
-1.337977e+01
-1.443660e+01
-1.551932e+01
-1.661851e+01
-1.772405e+01
-1.882526e+01
-1.991127e+01
-2.097190e+01
-2.199946e+01
-2.299113e+01
-2.395137e+01
0.000000e+00
-1.528965e-01
-3.984031e-01
-6.827032e-01
-1.010614e+00
-1.374757e+00
-1.778583e+00
-2.220306e+00
-2.698943e+00
-3.215759e+00
-3.770598e+00
-4.363408e+00
-4.994709e+00
-5.664555e+00
-6.372984e+00
-7.120201e+00
-7.906276e+00
-8.731266e+00
-9.595245e+00
-1.049837e+01
-1.144106e+01
-1.242324e+01
-1.344256e+01
-1.449357e+01
-1.556850e+01
-1.665845e+01
-1.775383e+01
-1.884449e+01
-1.992016e+01
-2.097155e+01
-2.199249e+01
-2.298321e+01
-2.395499e+01
0.000000e+00
-2.454141e-01
-4.789268e-01
-7.681663e-01
-1.094052e+00
-1.457918e+00
-1.862884e+00
-2.303723e+00
-2.782369e+00
-3.299491e+00
-3.853974e+00
-4.446688e+00
-5.077958e+00
-5.747550e+00
-6.455745e+00
-7.202712e+00
-7.988433e+00
-8.812960e+00
-9.676358e+00
-1.057887e+01
-1.152072e+01
-1.250079e+01
-1.351546e+01