TITLE = "Solution"
VARIABLES = x, y, u, v, psiu, psiv, t, stress
ZONE T="structure" N=561 E=512 F=FEBLOCK ET=QUADRILATERAL VARLOCATION=([7,8]=cellcentered)
0.000000e+00
6.250000e+00
1.250000e+01
1.875000e+01
2.500000e+01
3.125000e+01
3.750000e+01
4.375000e+01
5.000000e+01
5.625000e+01
6.250000e+01
6.875000e+01
7.500000e+01
8.125000e+01
8.750000e+01
9.375000e+01
1.000000e+02
1.062500e+02
1.125000e+02
1.187500e+02
1.250000e+02
1.312500e+02
1.375000e+02
1.437500e+02
1.500000e+02
1.562500e+02
1.625000e+02
1.687500e+02
1.750000e+02
1.812500e+02
1.875000e+02
1.937500e+02
2.000000e+02
0.000000e+00
6.250000e+00
1.250000e+01
1.875000e+01
2.500000e+01
3.125000e+01
3.750000e+01
4.375000e+01
5.000000e+01
5.625000e+01
6.250000e+01
6.875000e+01
7.500000e+01
8.125000e+01
8.750000e+01
9.375000e+01
1.000000e+02
1.062500e+02
1.125000e+02
1.187500e+02
1.250000e+02
1.312500e+02
1.375000e+02
1.437500e+02
1.500000e+02
1.562500e+02
1.625000e+02
1.687500e+02
1.750000e+02
1.812500e+02
1.875000e+02
1.937500e+02
2.000000e+02
0.000000e+00
6.250000e+00
1.250000e+01
1.875000e+01
2.500000e+01
3.125000e+01
3.750000e+01
4.375000e+01
5.000000e+01
5.625000e+01
6.250000e+01
6.875000e+01
7.500000e+01
8.125000e+01
8.750000e+01
9.375000e+01
1.000000e+02
1.062500e+02
1.125000e+02
1.187500e+02
1.250000e+02
1.312500e+02
1.375000e+02
1.437500e+02
1.500000e+02
1.562500e+02
1.625000e+02
1.687500e+02
1.750000e+02
1.812500e+02
1.875000e+02
1.937500e+02
2.000000e+02
0.000000e+00
6.250000e+00
1.250000e+01
1.875000e+01
2.500000e+01
3.125000e+01
3.750000e+01
4.375000e+01
5.000000e+01
5.625000e+01
6.250000e+01
6.875000e+01
7.500000e+01
8.125000e+01
8.750000e+01
9.375000e+01
1.000000e+02
1.062500e+02
1.125000e+02
1.187500e+02
1.250000e+02
1.312500e+02
1.375000e+02
1.437500e+02
1.500000e+02
1.562500e+02
1.625000e+02
1.687500e+02
1.750000e+02
1.812500e+02
1.875000e+02
1.937500e+02
2.000000e+02
0.000000e+00
6.250000e+00
1.250000e+01
1.875000e+01
2.500000e+01
3.125000e+01
3.750000e+01
4.375000e+01
5.000000e+01
5.625000e+01
6.250000e+01
6.875000e+01
7.500000e+01
8.125000e+01
8.750000e+01
9.375000e+01
1.000000e+02
1.062500e+02
1.125000e+02
1.187500e+02
1.250000e+02
1.312500e+02
1.375000e+02
1.437500e+02
1.500000e+02
1.562500e+02
1.625000e+02
1.687500e+02
1.750000e+02
1.812500e+02
1.875000e+02
1.937500e+02
2.000000e+02
0.000000e+00
6.250000e+00
1.250000e+01
1.875000e+01
2.500000e+01
3.125000e+01
3.750000e+01
4.375000e+01
5.000000e+01
5.625000e+01
6.250000e+01
6.875000e+01
7.500000e+01
8.125000e+01
8.750000e+01
9.375000e+01
1.000000e+02
1.062500e+02
1.125000e+02
1.187500e+02
1.250000e+02
1.312500e+02
1.375000e+02
1.437500e+02
1.500000e+02
1.562500e+02
1.625000e+02
1.687500e+02
1.750000e+02
1.812500e+02
1.875000e+02
1.937500e+02
2.000000e+02
0.000000e+00
6.250000e+00
1.250000e+01
1.875000e+01
2.500000e+01
3.125000e+01
3.750000e+01
4.375000e+01
5.000000e+01
5.625000e+01
6.250000e+01
6.875000e+01
7.500000e+01
8.125000e+01
8.750000e+01
9.375000e+01
1.000000e+02
1.062500e+02
1.125000e+02
1.187500e+02
1.250000e+02
1.312500e+02
1.375000e+02
1.437500e+02
1.500000e+02
1.562500e+02
1.625000e+02
1.687500e+02
1.750000e+02
1.812500e+02
1.875000e+02
1.937500e+02
2.000000e+02
0.000000e+00
6.250000e+00
1.250000e+01
1.875000e+01
2.500000e+01
3.125000e+01
3.750000e+01
4.375000e+01
5.000000e+01
5.625000e+01
6.250000e+01
6.875000e+01
7.500000e+01
8.125000e+01
8.750000e+01
9.375000e+01
1.000000e+02
1.062500e+02
1.125000e+02
1.187500e+02
1.250000e+02
1.312500e+02
1.375000e+02
1.437500e+02
1.500000e+02
1.562500e+02
1.625000e+02
1.687500e+02
1.750000e+02
1.812500e+02
1.875000e+02
1.937500e+02
2.000000e+02
0.000000e+00
6.250000e+00
1.250000e+01
1.875000e+01
2.500000e+01
3.125000e+01
3.750000e+01
4.375000e+01
5.000000e+01
5.625000e+01
6.250000e+01
6.875000e+01
7.500000e+01
8.125000e+01
8.750000e+01
9.375000e+01
1.000000e+02
1.062500e+02
1.125000e+02
1.187500e+02
1.250000e+02
1.312500e+02
1.375000e+02
1.437500e+02
1.500000e+02
1.562500e+02
1.625000e+02
1.687500e+02
1.750000e+02
1.812500e+02
1.875000e+02
1.937500e+02
2.000000e+02
0.000000e+00
6.250000e+00
1.250000e+01
1.875000e+01
2.500000e+01
3.125000e+01
3.750000e+01
4.375000e+01
5.000000e+01
5.625000e+01
6.250000e+01
6.875000e+01
7.500000e+01
8.125000e+01
8.750000e+01
9.375000e+01
1.000000e+02
1.062500e+02
1.125000e+02
1.187500e+02
1.250000e+02
1.312500e+02
1.375000e+02
1.437500e+02
1.500000e+02
1.562500e+02
1.625000e+02
1.687500e+02
1.750000e+02
1.812500e+02
1.875000e+02
1.937500e+02
2.000000e+02
0.000000e+00
6.250000e+00
1.250000e+01
1.875000e+01
2.500000e+01
3.125000e+01
3.750000e+01
4.375000e+01
5.000000e+01
5.625000e+01
6.250000e+01
6.875000e+01
7.500000e+01
8.125000e+01
8.750000e+01
9.375000e+01
1.000000e+02
1.062500e+02
1.125000e+02
1.187500e+02
1.250000e+02
1.312500e+02
1.375000e+02
1.437500e+02
1.500000e+02
1.562500e+02
1.625000e+02
1.687500e+02
1.750000e+02
1.812500e+02
1.875000e+02
1.937500e+02
2.000000e+02
0.000000e+00
6.250000e+00
1.250000e+01
1.875000e+01
2.500000e+01
3.125000e+01
3.750000e+01
4.375000e+01
5.000000e+01
5.625000e+01
6.250000e+01
6.875000e+01
7.500000e+01
8.125000e+01
8.750000e+01
9.375000e+01
1.000000e+02
1.062500e+02
1.125000e+02
1.187500e+02
1.250000e+02
1.312500e+02
1.375000e+02
1.437500e+02
1.500000e+02
1.562500e+02
1.625000e+02
1.687500e+02
1.750000e+02
1.812500e+02
1.875000e+02
1.937500e+02
2.000000e+02
0.000000e+00
6.250000e+00
1.250000e+01
1.875000e+01
2.500000e+01
3.125000e+01
3.750000e+01
4.375000e+01
5.000000e+01
5.625000e+01
6.250000e+01
6.875000e+01
7.500000e+01
8.125000e+01
8.750000e+01
9.375000e+01
1.000000e+02
1.062500e+02
1.125000e+02
1.187500e+02
1.250000e+02
1.312500e+02
1.375000e+02
1.437500e+02
1.500000e+02
1.562500e+02
1.625000e+02
1.687500e+02
1.750000e+02
1.812500e+02
1.875000e+02
1.937500e+02
2.000000e+02
0.000000e+00
6.250000e+00
1.250000e+01
1.875000e+01
2.500000e+01
3.125000e+01
3.750000e+01
4.375000e+01
5.000000e+01
5.625000e+01
6.250000e+01
6.875000e+01
7.500000e+01
8.125000e+01
8.750000e+01
9.375000e+01
1.000000e+02
1.062500e+02
1.125000e+02
1.187500e+02
1.250000e+02
1.312500e+02
1.375000e+02
1.437500e+02
1.500000e+02
1.562500e+02
1.625000e+02
1.687500e+02
1.750000e+02
1.812500e+02
1.875000e+02
1.937500e+02
2.000000e+02
0.000000e+00
6.250000e+00
1.250000e+01
1.875000e+01
2.500000e+01
3.125000e+01
3.750000e+01
4.375000e+01
5.000000e+01
5.625000e+01
6.250000e+01
6.875000e+01
7.500000e+01
8.125000e+01
8.750000e+01
9.375000e+01
1.000000e+02
1.062500e+02
1.125000e+02
1.187500e+02
1.250000e+02
1.312500e+02
1.375000e+02
1.437500e+02
1.500000e+02
1.562500e+02
1.625000e+02
1.687500e+02
1.750000e+02
1.812500e+02
1.875000e+02
1.937500e+02
2.000000e+02
0.000000e+00
6.250000e+00
1.250000e+01
1.875000e+01
2.500000e+01
3.125000e+01
3.750000e+01
4.375000e+01
5.000000e+01
5.625000e+01
6.250000e+01
6.875000e+01
7.500000e+01
8.125000e+01
8.750000e+01
9.375000e+01
1.000000e+02
1.062500e+02
1.125000e+02
1.187500e+02
1.250000e+02
1.312500e+02
1.375000e+02
1.437500e+02
1.500000e+02
1.562500e+02
1.625000e+02
1.687500e+02
1.750000e+02
1.812500e+02
1.875000e+02
1.937500e+02
2.000000e+02
0.000000e+00
6.250000e+00
1.250000e+01
1.875000e+01
2.500000e+01
3.125000e+01
3.750000e+01
4.375000e+01
5.000000e+01
5.625000e+01
6.250000e+01
6.875000e+01
7.500000e+01
8.125000e+01
8.750000e+01
9.375000e+01
1.000000e+02
1.062500e+02
1.125000e+02
1.187500e+02
1.250000e+02
1.312500e+02
1.375000e+02
1.437500e+02
1.500000e+02
1.562500e+02
1.625000e+02
1.687500e+02
1.750000e+02
1.812500e+02
1.875000e+02
1.937500e+02
2.000000e+02
0.000000e+00
0.000000e+00
0.000000e+00
0.000000e+00
0.000000e+00
0.000000e+00
0.000000e+00
0.000000e+00
0.000000e+00
0.000000e+00
0.000000e+00
0.000000e+00
0.000000e+00
0.000000e+00
0.000000e+00
0.000000e+00
0.000000e+00
0.000000e+00
0.000000e+00
0.000000e+00
0.000000e+00
0.000000e+00
0.000000e+00
0.000000e+00
0.000000e+00
0.000000e+00
0.000000e+00
0.000000e+00
0.000000e+00
0.000000e+00
0.000000e+00
0.000000e+00
0.000000e+00
6.250000e+00
6.250000e+00
6.250000e+00
6.250000e+00
6.250000e+00
6.250000e+00
6.250000e+00
6.250000e+00
6.250000e+00
6.250000e+00
6.250000e+00
6.250000e+00
6.250000e+00
6.250000e+00
6.250000e+00
6.250000e+00
6.250000e+00
6.250000e+00
6.250000e+00
6.250000e+00
6.250000e+00
6.250000e+00
6.250000e+00
6.250000e+00
6.250000e+00
6.250000e+00
6.250000e+00
6.250000e+00
6.250000e+00
6.250000e+00
6.250000e+00
6.250000e+00
6.250000e+00
1.250000e+01
1.250000e+01
1.250000e+01
1.250000e+01
1.250000e+01
1.250000e+01
1.250000e+01
1.250000e+01
1.250000e+01
1.250000e+01
1.250000e+01
1.250000e+01
1.250000e+01
1.250000e+01
1.250000e+01
1.250000e+01
1.250000e+01
1.250000e+01
1.250000e+01
1.250000e+01
1.250000e+01
1.250000e+01
1.250000e+01
1.250000e+01
1.250000e+01
1.250000e+01
1.250000e+01
1.250000e+01
1.250000e+01
1.250000e+01
1.250000e+01
1.250000e+01
1.250000e+01
1.875000e+01
1.875000e+01
1.875000e+01
1.875000e+01
1.875000e+01
1.875000e+01
1.875000e+01
1.875000e+01
1.875000e+01
1.875000e+01
1.875000e+01
1.875000e+01
1.875000e+01
1.875000e+01
1.875000e+01
1.875000e+01
1.875000e+01
1.875000e+01
1.875000e+01
1.875000e+01
1.875000e+01
1.875000e+01
1.875000e+01
1.875000e+01
1.875000e+01
1.875000e+01
1.875000e+01
1.875000e+01
1.875000e+01
1.875000e+01
1.875000e+01
1.875000e+01
1.875000e+01
2.500000e+01
2.500000e+01
2.500000e+01
2.500000e+01
2.500000e+01
2.500000e+01
2.500000e+01
2.500000e+01
2.500000e+01
2.500000e+01
2.500000e+01
2.500000e+01
2.500000e+01
2.500000e+01
2.500000e+01
2.500000e+01
2.500000e+01
2.500000e+01
2.500000e+01
2.500000e+01
2.500000e+01
2.500000e+01
2.500000e+01
2.500000e+01
2.500000e+01
2.500000e+01
2.500000e+01
2.500000e+01
2.500000e+01
2.500000e+01
2.500000e+01
2.500000e+01
2.500000e+01
3.125000e+01
3.125000e+01
3.125000e+01
3.125000e+01
3.125000e+01
3.125000e+01
3.125000e+01
3.125000e+01
3.125000e+01
3.125000e+01
3.125000e+01
3.125000e+01
3.125000e+01
3.125000e+01
3.125000e+01
3.125000e+01
3.125000e+01
3.125000e+01
3.125000e+01
3.125000e+01
3.125000e+01
3.125000e+01
3.125000e+01
3.125000e+01
3.125000e+01
3.125000e+01
3.125000e+01
3.125000e+01
3.125000e+01
3.125000e+01
3.125000e+01
3.125000e+01
3.125000e+01
3.750000e+01
3.750000e+01
3.750000e+01
3.750000e+01
3.750000e+01
3.750000e+01
3.750000e+01
3.750000e+01
3.750000e+01
3.750000e+01
3.750000e+01
3.750000e+01
3.750000e+01
3.750000e+01
3.750000e+01
3.750000e+01
3.750000e+01
3.750000e+01
3.750000e+01
3.750000e+01
3.750000e+01
3.750000e+01
3.750000e+01
3.750000e+01
3.750000e+01
3.750000e+01
3.750000e+01
3.750000e+01
3.750000e+01
3.750000e+01
3.750000e+01
3.750000e+01
3.750000e+01
4.375000e+01
4.375000e+01
4.375000e+01
4.375000e+01
4.375000e+01
4.375000e+01
4.375000e+01
4.375000e+01
4.375000e+01
4.375000e+01
4.375000e+01
4.375000e+01
4.375000e+01
4.375000e+01
4.375000e+01
4.375000e+01
4.375000e+01
4.375000e+01
4.375000e+01
4.375000e+01
4.375000e+01
4.375000e+01
4.375000e+01
4.375000e+01
4.375000e+01
4.375000e+01
4.375000e+01
4.375000e+01
4.375000e+01
4.375000e+01
4.375000e+01
4.375000e+01
4.375000e+01
5.000000e+01
5.000000e+01
5.000000e+01
5.000000e+01
5.000000e+01
5.000000e+01
5.000000e+01
5.000000e+01
5.000000e+01
5.000000e+01
5.000000e+01
5.000000e+01
5.000000e+01
5.000000e+01
5.000000e+01
5.000000e+01
5.000000e+01
5.000000e+01
5.000000e+01
5.000000e+01
5.000000e+01
5.000000e+01
5.000000e+01
5.000000e+01
5.000000e+01
5.000000e+01
5.000000e+01
5.000000e+01
5.000000e+01
5.000000e+01
5.000000e+01
5.000000e+01
5.000000e+01
5.625000e+01
5.625000e+01
5.625000e+01
5.625000e+01
5.625000e+01
5.625000e+01
5.625000e+01
5.625000e+01
5.625000e+01
5.625000e+01
5.625000e+01
5.625000e+01
5.625000e+01
5.625000e+01
5.625000e+01
5.625000e+01
5.625000e+01
5.625000e+01
5.625000e+01
5.625000e+01
5.625000e+01
5.625000e+01
5.625000e+01
5.625000e+01
5.625000e+01
5.625000e+01
5.625000e+01
5.625000e+01
5.625000e+01
5.625000e+01
5.625000e+01
5.625000e+01
5.625000e+01
6.250000e+01
6.250000e+01
6.250000e+01
6.250000e+01
6.250000e+01
6.250000e+01
6.250000e+01
6.250000e+01
6.250000e+01
6.250000e+01
6.250000e+01
6.250000e+01
6.250000e+01
6.250000e+01
6.250000e+01
6.250000e+01
6.250000e+01
6.250000e+01
6.250000e+01
6.250000e+01
6.250000e+01
6.250000e+01
6.250000e+01
6.250000e+01
6.250000e+01
6.250000e+01
6.250000e+01
6.250000e+01
6.250000e+01
6.250000e+01
6.250000e+01
6.250000e+01
6.250000e+01
6.875000e+01
6.875000e+01
6.875000e+01
6.875000e+01
6.875000e+01
6.875000e+01
6.875000e+01
6.875000e+01
6.875000e+01
6.875000e+01
6.875000e+01
6.875000e+01
6.875000e+01
6.875000e+01
6.875000e+01
6.875000e+01
6.875000e+01
6.875000e+01
6.875000e+01
6.875000e+01
6.875000e+01
6.875000e+01
6.875000e+01
6.875000e+01
6.875000e+01
6.875000e+01
6.875000e+01
6.875000e+01
6.875000e+01
6.875000e+01
6.875000e+01
6.875000e+01
6.875000e+01
7.500000e+01
7.500000e+01
7.500000e+01
7.500000e+01
7.500000e+01
7.500000e+01
7.500000e+01
7.500000e+01
7.500000e+01
7.500000e+01
7.500000e+01
7.500000e+01
7.500000e+01
7.500000e+01
7.500000e+01
7.500000e+01
7.500000e+01
7.500000e+01
7.500000e+01
7.500000e+01
7.500000e+01
7.500000e+01
7.500000e+01
7.500000e+01
7.500000e+01
7.500000e+01
7.500000e+01
7.500000e+01
7.500000e+01
7.500000e+01
7.500000e+01
7.500000e+01
7.500000e+01
8.125000e+01
8.125000e+01
8.125000e+01
8.125000e+01
8.125000e+01
8.125000e+01
8.125000e+01
8.125000e+01
8.125000e+01
8.125000e+01
8.125000e+01
8.125000e+01
8.125000e+01
8.125000e+01
8.125000e+01
8.125000e+01
8.125000e+01
8.125000e+01
8.125000e+01
8.125000e+01
8.125000e+01
8.125000e+01
8.125000e+01
8.125000e+01
8.125000e+01
8.125000e+01
8.125000e+01
8.125000e+01
8.125000e+01
8.125000e+01
8.125000e+01
8.125000e+01
8.125000e+01
8.750000e+01
8.750000e+01
8.750000e+01
8.750000e+01
8.750000e+01
8.750000e+01
8.750000e+01
8.750000e+01
8.750000e+01
8.750000e+01
8.750000e+01
8.750000e+01
8.750000e+01
8.750000e+01
8.750000e+01
8.750000e+01
8.750000e+01
8.750000e+01
8.750000e+01
8.750000e+01
8.750000e+01
8.750000e+01
8.750000e+01
8.750000e+01
8.750000e+01
8.750000e+01
8.750000e+01
8.750000e+01
8.750000e+01
8.750000e+01
8.750000e+01
8.750000e+01
8.750000e+01
9.375000e+01
9.375000e+01
9.375000e+01
9.375000e+01
9.375000e+01
9.375000e+01
9.375000e+01
9.375000e+01
9.375000e+01
9.375000e+01
9.375000e+01
9.375000e+01
9.375000e+01
9.375000e+01
9.375000e+01
9.375000e+01
9.375000e+01
9.375000e+01
9.375000e+01
9.375000e+01
9.375000e+01
9.375000e+01
9.375000e+01
9.375000e+01
9.375000e+01
9.375000e+01
9.375000e+01
9.375000e+01
9.375000e+01
9.375000e+01
9.375000e+01
9.375000e+01
9.375000e+01
1.000000e+02
1.000000e+02
1.000000e+02
1.000000e+02
1.000000e+02
1.000000e+02
1.000000e+02
1.000000e+02
1.000000e+02
1.000000e+02
1.000000e+02
1.000000e+02
1.000000e+02
1.000000e+02
1.000000e+02
1.000000e+02
1.000000e+02
1.000000e+02
1.000000e+02
1.000000e+02
1.000000e+02
1.000000e+02
1.000000e+02
1.000000e+02
1.000000e+02
1.000000e+02
1.000000e+02
1.000000e+02
1.000000e+02
1.000000e+02
1.000000e+02
1.000000e+02
1.000000e+02
0.000000e+00
-4.720606e-01
-7.825093e-01
-1.122462e+00
-1.424191e+00
-1.716179e+00
-2.027979e+00
-2.315453e+00
-2.615190e+00
-2.908815e+00
-3.205931e+00
-3.505038e+00
-3.804315e+00
-4.104067e+00
-4.404080e+00
-4.705354e+00
-5.007819e+00
-5.311052e+00
-5.613609e+00
-5.915951e+00
-6.218171e+00
-6.520034e+00
-6.822429e+00
-7.120066e+00
-7.413512e+00
-7.718312e+00
-8.017660e+00
-8.348463e+00
-8.667633e+00
-9.021116e+00
-9.509864e+00
-9.926422e+00
-1.013061e+01
0.000000e+00
-2.335093e-01
-4.702902e-01
-7.357933e-01
-1.001792e+00
-1.254536e+00
-1.524406e+00
-1.784711e+00
-2.047208e+00
-2.312232e+00
-2.572681e+00
-2.837825e+00
-3.098226e+00
-3.362097e+00
-3.623494e+00
-3.885719e+00
-4.148241e+00
-4.408826e+00
-4.671783e+00
-4.931833e+00
-5.194189e+00
-5.454430e+00
-5.715986e+00
-5.976192e+00
-6.237413e+00
-6.498441e+00
-6.757950e+00
-7.022104e+00
-7.276483e+00
-7.533449e+00
-7.787707e+00
-7.888782e+00
-7.994597e+00
0.000000e+00
-1.029611e-01
-2.381075e-01
-4.345786e-01
-6.531548e-01
-8.604623e-01
-1.086361e+00
-1.313799e+00
-1.541015e+00
-1.772688e+00
-1.996561e+00
-2.223857e+00
-2.446064e+00
-2.671265e+00
-2.894869e+00
-3.117349e+00
-3.339890e+00
-3.560420e+00
-3.784033e+00
-4.006259e+00
-4.231125e+00
-4.454370e+00
-4.678671e+00
-4.907557e+00
-5.137546e+00
-5.360524e+00
-5.572917e+00
-5.770329e+00
-5.949880e+00
-6.098877e+00
-6.186328e+00
-6.191880e+00
-6.284769e+00
0.000000e+00
-1.024790e-01
-1.859447e-01
-3.410773e-01
-4.640723e-01
-6.188029e-01
-7.958657e-01
-9.654326e-01
-1.158657e+00
-1.336383e+00
-1.521450e+00
-1.704168e+00
-1.886046e+00
-2.071794e+00
-2.255752e+00
-2.441262e+00
-2.626254e+00
-2.813240e+00
-3.002994e+00
-3.194336e+00
-3.388282e+00
-3.581647e+00
-3.775992e+00
-3.970986e+00
-4.157010e+00
-4.331125e+00
-4.480647e+00
-4.612971e+00
-4.713847e+00
-4.777254e+00
-4.792378e+00
-4.809685e+00
-4.890168e+00
0.000000e+00
-9.300910e-02
-1.845438e-01
-2.755180e-01
-3.889584e-01
-5.047102e-01
-6.369096e-01
-7.712756e-01
-9.162475e-01
-1.057326e+00
-1.203489e+00
-1.348927e+00
-1.492425e+00
-1.641797e+00
-1.785006e+00
-1.934979e+00
-2.080829e+00
-2.230134e+00
-2.379875e+00
-2.528446e+00
-2.678973e+00
-2.825160e+00
-2.969730e+00
-3.107090e+00
-3.235494e+00
-3.349596e+00
-3.446623e+00
-3.520679e+00
-3.569228e+00
-3.593650e+00
-3.597057e+00
-3.626885e+00
-3.698331e+00
0.000000e+00
-7.441618e-02
-1.458810e-01
-2.208810e-01
-3.023249e-01
-3.918466e-01
-4.866271e-01
-5.878919e-01
-6.916386e-01
-7.994768e-01
-9.069497e-01
-1.015744e+00
-1.124526e+00
-1.232586e+00
-1.341997e+00
-1.450062e+00
-1.559348e+00
-1.667441e+00
-1.775274e+00
-1.881882e+00
-1.985881e+00
-2.086851e+00
-2.181734e+00
-2.269365e+00
-2.346961e+00
-2.412614e+00
-2.463975e+00
-2.498901e+00
-2.521488e+00
-2.521870e+00
-2.517183e+00
-2.543687e+00
-2.609519e+00
0.000000e+00
-5.126993e-02
-1.019911e-01
-1.538377e-01
-2.092884e-01
-2.686327e-01
-3.320386e-01
-3.984503e-01
-4.676684e-01
-5.383476e-01
-6.100288e-01
-6.817971e-01
-7.533645e-01
-8.247258e-01
-8.955689e-01
-9.662161e-01
-1.036044e+00
-1.105014e+00
-1.172448e+00
-1.237760e+00
-1.300090e+00
-1.358036e+00
-1.410222e+00
-1.454791e+00
-1.490741e+00
-1.515837e+00
-1.529791e+00
-1.535191e+00
-1.518881e+00
-1.489118e+00
-1.477914e+00
-1.501269e+00
-1.565588e+00
0.000000e+00
-2.702727e-02
-5.390234e-02
-8.135371e-02
-1.100927e-01
-1.405704e-01
-1.726682e-01
-2.062386e-01
-2.408583e-01
-2.761971e-01
-3.117068e-01
-3.470338e-01
-3.818878e-01
-4.161011e-01
-4.496468e-01
-4.823434e-01
-5.140008e-01
-5.441909e-01
-5.725695e-01
-5.986163e-01
-6.216434e-01
-6.408181e-01
-6.548837e-01
-6.628907e-01
-6.632091e-01
-6.565647e-01
-6.406729e-01
-6.022272e-01
-5.524882e-01
-5.010451e-01
-4.743109e-01
-4.975137e-01
-5.645281e-01
0.000000e+00
-1.994659e-03
-4.036654e-03
-6.039955e-03
-7.891644e-03
-9.466512e-03
-1.070095e-02
-1.159931e-02
-1.221097e-02
-1.251359e-02
-1.240525e-02
-1.173281e-02
-1.034885e-02
-8.087583e-03
-4.721638e-03
-1.417672e-04
5.899767e-03
1.382574e-02
2.371614e-02
3.547151e-02
4.967148e-02
6.662258e-02
8.603043e-02
1.106102e-01
1.411446e-01
1.823730e-01
2.426410e-01
3.148574e-01
3.882183e-01
4.392851e-01
4.550555e-01
4.227114e-01
3.428790e-01
0.000000e+00
2.318782e-02
4.614876e-02
6.975832e-02
9.497524e-02
1.225088e-01
1.524050e-01
1.844074e-01
2.179685e-01
2.526481e-01
2.880850e-01
3.241431e-01
3.608043e-01
3.985094e-01
4.377886e-01
4.790052e-01
5.226340e-01
5.684525e-01
6.163597e-01
6.657577e-01
7.156342e-01
7.669455e-01
8.223959e-01
8.817511e-01
9.493057e-01
1.032516e+00
1.122362e+00
1.213916e+00
1.288291e+00
1.332127e+00
1.329243e+00
1.283424e+00
1.220588e+00
0.000000e+00
4.783401e-02
9.513357e-02
1.436631e-01
1.961268e-01
2.532557e-01
3.152106e-01
3.808915e-01
4.495144e-01
5.197521e-01
5.907624e-01
6.616806e-01
7.325847e-01
8.041992e-01
8.776871e-01
9.547854e-01
1.035841e+00
1.119721e+00
1.205277e+00
1.292096e+00
1.381672e+00
1.471235e+00
1.563426e+00
1.666242e+00
1.774984e+00
1.885794e+00
1.995320e+00
2.084317e+00
2.148397e+00
2.174948e+00
2.167312e+00
2.137345e+00
2.093239e+00
0.000000e+00
7.142951e-02
1.401707e-01
2.128475e-01
2.924328e-01
3.809793e-01
4.761260e-01
5.774219e-01
6.819245e-01
7.897884e-01
8.980531e-01
1.006815e+00
1.115068e+00
1.223788e+00
1.333451e+00
1.443837e+00
1.557791e+00
1.674991e+00
1.794572e+00
1.917445e+00
2.046052e+00
2.182353e+00
2.324501e+00
2.466761e+00
2.604953e+00
2.734175e+00
2.846412e+00
2.935446e+00
2.991074e+00
3.019113e+00
3.022609e+00
3.004575e+00
2.977025e+00
0.000000e+00
9.021482e-02
1.791815e-01
2.691965e-01
3.833271e-01
5.023821e-01
6.349876e-01
7.726169e-01
9.164403e-01
1.059833e+00
1.206630e+00
1.353159e+00
1.500466e+00
1.651687e+00
1.802593e+00
1.957605e+00
2.113053e+00
2.273158e+00
2.438594e+00
2.605008e+00
2.774147e+00
2.946079e+00
3.116178e+00
3.280830e+00
3.433966e+00
3.575010e+00
3.695888e+00
3.786800e+00
3.853360e+00
3.892549e+00
3.905488e+00
3.898966e+00
3.884455e+00
0.000000e+00
9.871489e-02
1.796211e-01
3.321299e-01
4.595774e-01
6.226254e-01
8.048401e-01
9.744215e-01
1.168090e+00
1.345398e+00
1.528407e+00
1.708513e+00
1.891316e+00
2.080952e+00
2.275027e+00
2.476431e+00
2.680253e+00
2.885921e+00
3.096206e+00
3.309472e+00
3.519923e+00
3.724667e+00
3.920904e+00
4.105503e+00
4.280237e+00
4.437681e+00
4.572928e+00
4.679854e+00
4.756426e+00
4.804217e+00
4.826424e+00
4.829239e+00
4.824502e+00
0.000000e+00
1.006457e-01
2.315829e-01
4.201860e-01
6.372908e-01
8.474922e-01
1.078822e+00
1.309892e+00
1.539739e+00
1.774476e+00
1.998223e+00
2.224197e+00
2.445974e+00
2.672483e+00
2.900514e+00
3.131966e+00
3.365768e+00
3.596824e+00
3.828416e+00
4.060997e+00
4.295307e+00
4.524249e+00
4.744800e+00
4.966025e+00
5.176900e+00
5.363368e+00
5.512985e+00
5.627718e+00
5.710217e+00
5.763103e+00
5.790804e+00
5.799859e+00
5.800972e+00
0.000000e+00
2.337859e-01
4.715622e-01
7.363867e-01
1.001751e+00
1.253982e+00
1.523113e+00
1.783784e+00
2.045679e+00
2.310355e+00
2.570253e+00
2.834450e+00
3.093865e+00
3.355858e+00
3.615681e+00
3.875384e+00
4.135359e+00
4.392756e+00
4.650534e+00
4.904540e+00
5.159861e+00
5.413310e+00
5.666590e+00
5.925020e+00
6.168852e+00
6.369684e+00
6.527206e+00
6.644048e+00
6.724267e+00
6.773481e+00
6.798626e+00
6.807733e+00
6.809971e+00
0.000000e+00
4.732650e-01
7.897579e-01
1.135026e+00
1.439711e+00
1.729623e+00
2.037743e+00
2.322521e+00
2.619331e+00
2.910169e+00
3.205822e+00
3.505235e+00
3.802684e+00
4.100194e+00
4.393522e+00
4.684584e+00
4.972323e+00
5.261646e+00
5.552060e+00
5.840052e+00
6.127496e+00
6.415726e+00
6.707394e+00
7.000124e+00
7.265470e+00
7.476297e+00
7.634493e+00
7.743402e+00
7.808285e+00
7.837407e+00
7.842494e+00
7.837870e+00
7.835315e+00
0.000000e+00
-2.791655e-01
-5.894063e-01
-9.861100e-01
-1.418272e+00
-1.887871e+00
-2.398076e+00
-2.938924e+00
-3.515372e+00
-4.123300e+00
-4.765172e+00
-5.443082e+00
-6.157360e+00
-6.909827e+00
-7.699078e+00
-8.526999e+00
-9.393354e+00
-1.029980e+01
-1.124617e+01
-1.223207e+01
-1.325801e+01
-1.432370e+01
-1.543076e+01
-1.657775e+01
-1.776238e+01
-1.898612e+01
-2.025330e+01
-2.157437e+01
-2.295604e+01
-2.441870e+01
-2.597935e+01
-2.778733e+01
-3.032497e+01
0.000000e+00
-1.801418e-01
-5.089681e-01
-8.983482e-01
-1.337322e+00
-1.803447e+00
-2.313528e+00
-2.856479e+00
-3.431154e+00
-4.040185e+00
-4.680997e+00
-5.359260e+00
-6.073263e+00
-6.825929e+00
-7.615195e+00
-8.442803e+00
-9.309324e+00
-1.021545e+01
-1.116218e+01
-1.214790e+01
-1.317398e+01
-1.423934e+01
-1.534650e+01
-1.649425e+01
-1.767866e+01
-1.890194e+01
-2.016758e+01
-2.148702e+01
-2.287017e+01
-2.432380e+01
-2.590379e+01
-2.769895e+01
-2.994997e+01
0.000000e+00
-1.591873e-01
-4.499013e-01
-8.418566e-01
-1.270739e+00
-1.734545e+00
-2.242658e+00
-2.783407e+00
-3.359424e+00
-3.967261e+00
-4.609174e+00
-5.287545e+00
-6.001747e+00
-6.754505e+00
-7.544377e+00
-8.372055e+00
-9.239051e+00
-1.014491e+01
-1.109154e+01
-1.207714e+01
-1.310308e+01
-1.416814e+01
-1.527377e+01
-1.642084e+01
-1.760622e+01
-1.883229e+01
-2.009981e+01
-2.142436e+01
-2.281133e+01
-2.428543e+01
-2.590831e+01
-2.759299e+01
-2.934134e+01
0.000000e+00
-2.044879e-01
-4.499429e-01
-8.383690e-01
-1.236002e+00
-1.688829e+00
-2.195456e+00
-2.723204e+00
-3.305638e+00
-3.907667e+00
-4.552604e+00
-5.231247e+00
-5.943849e+00
-6.699256e+00
-7.486942e+00
-8.317378e+00
-9.182969e+00
-1.008919e+01
-1.103551e+01
-1.201991e+01
-1.304679e+01
-1.411063e+01
-1.521542e+01
-1.636220e+01
-1.754989e+01
-1.878215e+01
-2.005579e+01
-2.138755e+01
-2.278329e+01
-2.427694e+01
-2.589254e+01
-2.744220e+01
-2.884130e+01
0.000000e+00
-2.206246e-01
-4.886755e-01
-8.336859e-01
-1.233817e+00
-1.669291e+00
-2.166284e+00
-2.688350e+00
-3.265738e+00
-3.867689e+00
-4.511602e+00
-5.192054e+00
-5.903183e+00
-6.661156e+00
-7.446984e+00
-8.279475e+00
-9.144227e+00
-1.005049e+01
-1.099684e+01
-1.198030e+01
-1.300774e+01
-1.407141e+01
-1.517757e+01
-1.632515e+01
-1.751643e+01
-1.875200e+01
-2.003381e+01
-2.136916e+01
-2.276749e+01
-2.425685e+01
-2.579234e+01
-2.724121e+01
-2.850777e+01
0.000000e+00
-2.275555e-01
-5.050947e-01
-8.396508e-01
-1.227342e+00
-1.662458e+00
-2.144676e+00
-2.669177e+00
-3.236117e+00
-3.840870e+00
-4.482883e+00
-5.162513e+00
-5.877793e+00
-6.631774e+00
-7.422473e+00
-8.251691e+00
-9.119158e+00
-1.002530e+01
-1.097161e+01
-1.195741e+01
-1.298412e+01
-1.405103e+01
-1.515900e+01
-1.630932e+01
-1.750275e+01
-1.874020e+01
-2.002454e+01
-2.135930e+01
-2.274686e+01
-2.419590e+01
-2.563721e+01
-2.700544e+01
-2.821024e+01
0.000000e+00
-2.312481e-01
-5.113046e-01
-8.428583e-01
-1.225307e+00
-1.656380e+00
-2.133934e+00
-2.655673e+00
-3.219534e+00
-3.823226e+00
-4.465350e+00
-5.144922e+00
-5.861710e+00
-6.615783e+00
-7.407410e+00
-8.237057e+00
-9.105199e+00
-1.001259e+01
-1.095980e+01
-1.194741e+01
-1.297580e+01
-1.404522e+01
-1.515606e+01
-1.630856e+01
-1.750335e+01
-1.874101e+01
-2.002145e+01
-2.135276e+01
-2.270815e+01
-2.410596e+01
-2.548225e+01
-2.678273e+01
-2.792462e+01
0.000000e+00
-2.326473e-01
-5.136265e-01
-8.443013e-01
-1.224709e+00
-1.653627e+00
-2.129241e+00
-2.649487e+00
-3.212297e+00
-3.815732e+00
-4.458192e+00
-5.138589e+00
-5.856293e+00
-6.611198e+00
-7.403511e+00
-8.233809e+00
-9.102860e+00
-1.001137e+01
-1.095999e+01
-1.194929e+01
-1.297968e+01
-1.405143e+01
-1.516451e+01
-1.631893e+01
-1.751277e+01
-1.875023e+01
-2.002298e+01
-2.133514e+01
-2.265588e+01
-2.400044e+01
-2.533082e+01
-2.657407e+01
-2.766025e+01
0.000000e+00
-2.329370e-01
-5.142211e-01
-8.449246e-01
-1.225186e+00
-1.654034e+00
-2.129736e+00
-2.650248e+00
-3.213537e+00
-3.817745e+00
-4.461278e+00
-5.142857e+00
-5.861695e+00
-6.617557e+00
-7.410620e+00
-8.241541e+00
-9.111514e+00
-1.002124e+01
-1.097105e+01
-1.196172e+01
-1.299384e+01
-1.406692e+01
-1.518131e+01
-1.633638e+01
-1.752935e+01
-1.876133e+01
-2.001982e+01
-2.130281e+01
-2.259942e+01
-2.389301e+01
-2.516391e+01
-2.633194e+01
-2.732372e+01
0.000000e+00
-2.324837e-01
-5.136826e-01
-8.450533e-01
-1.226758e+00
-1.657542e+00
-2.135337e+00
-2.657854e+00
-3.222995e+00
-3.828973e+00
-4.474240e+00
-5.157367e+00
-5.877431e+00
-6.634408e+00
-7.428408e+00
-8.259752e+00
-9.130869e+00
-1.004189e+01
-1.099270e+01
-1.198349e+01
-1.301712e+01
-1.409016e+01
-1.520287e+01
-1.635978e+01
-1.754556e+01
-1.876557e+01
-2.000689e+01
-2.126697e+01
-2.253432e+01
-2.379098e+01
-2.499610e+01
-2.609721e+01
-2.705616e+01
0.000000e+00
-2.310097e-01
-5.114815e-01
-8.443500e-01
-1.229448e+00
-1.664425e+00
-2.146471e+00
-2.672702e+00
-3.240982e+00
-3.849491e+00
-4.496930e+00
-5.181602e+00
-5.902607e+00
-6.660930e+00
-7.455919e+00
-8.288380e+00
-9.160955e+00
-1.007324e+01
-1.102509e+01
-1.201484e+01
-1.304779e+01
-1.411877e+01
-1.522926e+01
-1.637974e+01
-1.755688e+01
-1.876151e+01
-1.999160e+01
-2.122944e+01
-2.247119e+01
-2.368687e+01
-2.484638e+01
-2.591550e+01
-2.686394e+01
0.000000e+00
-2.273627e-01
-5.055554e-01
-8.419179e-01
-1.233543e+00
-1.675340e+00
-2.164306e+00
-2.695556e+00
-3.268521e+00
-3.880030e+00
-4.529466e+00
-5.215398e+00
-5.936541e+00
-6.695934e+00
-7.492058e+00
-8.326989e+00
-9.201273e+00
-1.011462e+01
-1.106644e+01
-1.205522e+01
-1.308348e+01
-1.415058e+01
-1.525534e+01
-1.639560e+01
-1.756351e+01
-1.875863e+01
-1.997681e+01
-2.120176e+01
-2.241662e+01
-2.360307e+01
-2.473313e+01
-2.578628e+01
-2.673870e+01
0.000000e+00
-2.203376e-01
-4.895234e-01
-8.371365e-01
-1.242018e+00
-1.689106e+00
-2.193148e+00
-2.725821e+00
-3.308227e+00
-3.920135e+00
-4.572181e+00
-5.258724e+00
-5.979152e+00
-6.741357e+00
-7.537790e+00
-8.376402e+00
-9.251656e+00
-1.016405e+01
-1.111434e+01
-1.209979e+01
-1.312297e+01
-1.418442e+01
-1.528114e+01
-1.641187e+01
-1.757257e+01
-1.876404e+01
-1.997648e+01
-2.118672e+01
-2.238171e+01
-2.354289e+01
-2.465434e+01
-2.570051e+01
-2.666767e+01
0.000000e+00
-2.032130e-01
-4.507036e-01
-8.426616e-01
-1.249138e+00
-1.715011e+00
-2.232659e+00
-2.768807e+00
-3.358927e+00
-3.970277e+00
-4.623108e+00
-5.309069e+00
-6.031976e+00
-6.796120e+00
-7.596011e+00
-8.436063e+00
-9.311418e+00
-1.022202e+01
-1.116882e+01
-1.215036e+01
-1.316833e+01
-1.422255e+01
-1.531047e+01
-1.643390e+01
-1.759598e+01
-1.878752e+01
-1.999277e+01
-2.118794e+01
-2.236397e+01
-2.350678e+01
-2.460472e+01
-2.564950e+01
-2.663693e+01
0.000000e+00
-1.563644e-01
-4.486101e-01
-8.456723e-01
-1.286625e+00
-1.764168e+00
-2.284412e+00
-2.833767e+00
-3.418117e+00
-4.033583e+00
-4.682386e+00
-5.369193e+00
-6.093901e+00
-6.859082e+00
-7.662047e+00
-8.501897e+00
-9.377034e+00
-1.028578e+01
-1.123036e+01
-1.220922e+01
-1.322282e+01
-1.427049e+01
-1.535127e+01
-1.647571e+01
-1.764051e+01
-1.882924e+01
-2.002022e+01
-2.120195e+01
-2.236255e+01
-2.349112e+01
-2.457911e+01
-2.562394e+01
-2.663172e+01
0.000000e+00
-1.767884e-01
-5.066751e-01
-9.024715e-01
-1.354052e+00
-1.834444e+00
-2.356332e+00
-2.908698e+00
-3.491318e+00
-4.107453e+00
-4.754741e+00
-5.441543e+00
-6.166450e+00
-6.932134e+00
-7.735463e+00
-8.575368e+00
-9.449500e+00
-1.035672e+01
-1.130012e+01
-1.227758e+01
-1.328943e+01
-1.433392e+01
-1.541525e+01
-1.654095e+01
-1.770234e+01
-1.887860e+01
-2.005633e+01
-2.122498e+01
-2.237314e+01
-2.349060e+01
-2.457080e+01
-2.561474e+01
-2.663640e+01
0.000000e+00
-2.766293e-01
-5.882328e-01
-9.910666e-01
-1.435175e+00
-1.918315e+00
-2.440468e+00
-2.990923e+00
-3.575257e+00
-4.190237e+00
-4.838893e+00
-5.525356e+00
-6.250226e+00
-7.015491e+00
-7.818098e+00
-8.657553e+00
-9.530764e+00
-1.043801e+01
-1.138049e+01
-1.235746e+01
-1.336887e+01
-1.441355e+01