TITLE = "Solution"
VARIABLES = x, y, u, v, psiu, psiv, t, stress
ZONE T="structure" N=561 E=512 F=FEBLOCK ET=QUADRILATERAL VARLOCATION=([7,8]=cellcentered)
0.000000e+00
6.250000e+00
1.250000e+01
1.875000e+01
2.500000e+01
3.125000e+01
3.750000e+01
4.375000e+01
5.000000e+01
5.625000e+01
6.250000e+01
6.875000e+01
7.500000e+01
8.125000e+01
8.750000e+01
9.375000e+01
1.000000e+02
1.062500e+02
1.125000e+02
1.187500e+02
1.250000e+02
1.312500e+02
1.375000e+02
1.437500e+02
1.500000e+02
1.562500e+02
1.625000e+02
1.687500e+02
1.750000e+02
1.812500e+02
1.875000e+02
1.937500e+02
2.000000e+02
0.000000e+00
6.250000e+00
1.250000e+01
1.875000e+01
2.500000e+01
3.125000e+01
3.750000e+01
4.375000e+01
5.000000e+01
5.625000e+01
6.250000e+01
6.875000e+01
7.500000e+01
8.125000e+01
8.750000e+01
9.375000e+01
1.000000e+02
1.062500e+02
1.125000e+02
1.187500e+02
1.250000e+02
1.312500e+02
1.375000e+02
1.437500e+02
1.500000e+02
1.562500e+02
1.625000e+02
1.687500e+02
1.750000e+02
1.812500e+02
1.875000e+02
1.937500e+02
2.000000e+02
0.000000e+00
6.250000e+00
1.250000e+01
1.875000e+01
2.500000e+01
3.125000e+01
3.750000e+01
4.375000e+01
5.000000e+01
5.625000e+01
6.250000e+01
6.875000e+01
7.500000e+01
8.125000e+01
8.750000e+01
9.375000e+01
1.000000e+02
1.062500e+02
1.125000e+02
1.187500e+02
1.250000e+02
1.312500e+02
1.375000e+02
1.437500e+02
1.500000e+02
1.562500e+02
1.625000e+02
1.687500e+02
1.750000e+02
1.812500e+02
1.875000e+02
1.937500e+02
2.000000e+02
0.000000e+00
6.250000e+00
1.250000e+01
1.875000e+01
2.500000e+01
3.125000e+01
3.750000e+01
4.375000e+01
5.000000e+01
5.625000e+01
6.250000e+01
6.875000e+01
7.500000e+01
8.125000e+01
8.750000e+01
9.375000e+01
1.000000e+02
1.062500e+02
1.125000e+02
1.187500e+02
1.250000e+02
1.312500e+02
1.375000e+02
1.437500e+02
1.500000e+02
1.562500e+02
1.625000e+02
1.687500e+02
1.750000e+02
1.812500e+02
1.875000e+02
1.937500e+02
2.000000e+02
0.000000e+00
6.250000e+00
1.250000e+01
1.875000e+01
2.500000e+01
3.125000e+01
3.750000e+01
4.375000e+01
5.000000e+01
5.625000e+01
6.250000e+01
6.875000e+01
7.500000e+01
8.125000e+01
8.750000e+01
9.375000e+01
1.000000e+02
1.062500e+02
1.125000e+02
1.187500e+02
1.250000e+02
1.312500e+02
1.375000e+02
1.437500e+02
1.500000e+02
1.562500e+02
1.625000e+02
1.687500e+02
1.750000e+02
1.812500e+02
1.875000e+02
1.937500e+02
2.000000e+02
0.000000e+00
6.250000e+00
1.250000e+01
1.875000e+01
2.500000e+01
3.125000e+01
3.750000e+01
4.375000e+01
5.000000e+01
5.625000e+01
6.250000e+01
6.875000e+01
7.500000e+01
8.125000e+01
8.750000e+01
9.375000e+01
1.000000e+02
1.062500e+02
1.125000e+02
1.187500e+02
1.250000e+02
1.312500e+02
1.375000e+02
1.437500e+02
1.500000e+02
1.562500e+02
1.625000e+02
1.687500e+02
1.750000e+02
1.812500e+02
1.875000e+02
1.937500e+02
2.000000e+02
0.000000e+00
6.250000e+00
1.250000e+01
1.875000e+01
2.500000e+01
3.125000e+01
3.750000e+01
4.375000e+01
5.000000e+01
5.625000e+01
6.250000e+01
6.875000e+01
7.500000e+01
8.125000e+01
8.750000e+01
9.375000e+01
1.000000e+02
1.062500e+02
1.125000e+02
1.187500e+02
1.250000e+02
1.312500e+02
1.375000e+02
1.437500e+02
1.500000e+02
1.562500e+02
1.625000e+02
1.687500e+02
1.750000e+02
1.812500e+02
1.875000e+02
1.937500e+02
2.000000e+02
0.000000e+00
6.250000e+00
1.250000e+01
1.875000e+01
2.500000e+01
3.125000e+01
3.750000e+01
4.375000e+01
5.000000e+01
5.625000e+01
6.250000e+01
6.875000e+01
7.500000e+01
8.125000e+01
8.750000e+01
9.375000e+01
1.000000e+02
1.062500e+02
1.125000e+02
1.187500e+02
1.250000e+02
1.312500e+02
1.375000e+02
1.437500e+02
1.500000e+02
1.562500e+02
1.625000e+02
1.687500e+02
1.750000e+02
1.812500e+02
1.875000e+02
1.937500e+02
2.000000e+02
0.000000e+00
6.250000e+00
1.250000e+01
1.875000e+01
2.500000e+01
3.125000e+01
3.750000e+01
4.375000e+01
5.000000e+01
5.625000e+01
6.250000e+01
6.875000e+01
7.500000e+01
8.125000e+01
8.750000e+01
9.375000e+01
1.000000e+02
1.062500e+02
1.125000e+02
1.187500e+02
1.250000e+02
1.312500e+02
1.375000e+02
1.437500e+02
1.500000e+02
1.562500e+02
1.625000e+02
1.687500e+02
1.750000e+02
1.812500e+02
1.875000e+02
1.937500e+02
2.000000e+02
0.000000e+00
6.250000e+00
1.250000e+01
1.875000e+01
2.500000e+01
3.125000e+01
3.750000e+01
4.375000e+01
5.000000e+01
5.625000e+01
6.250000e+01
6.875000e+01
7.500000e+01
8.125000e+01
8.750000e+01
9.375000e+01
1.000000e+02
1.062500e+02
1.125000e+02
1.187500e+02
1.250000e+02
1.312500e+02
1.375000e+02
1.437500e+02
1.500000e+02
1.562500e+02
1.625000e+02
1.687500e+02
1.750000e+02
1.812500e+02
1.875000e+02
1.937500e+02
2.000000e+02
0.000000e+00
6.250000e+00
1.250000e+01
1.875000e+01
2.500000e+01
3.125000e+01
3.750000e+01
4.375000e+01
5.000000e+01
5.625000e+01
6.250000e+01
6.875000e+01
7.500000e+01
8.125000e+01
8.750000e+01
9.375000e+01
1.000000e+02
1.062500e+02
1.125000e+02
1.187500e+02
1.250000e+02
1.312500e+02
1.375000e+02
1.437500e+02
1.500000e+02
1.562500e+02
1.625000e+02
1.687500e+02
1.750000e+02
1.812500e+02
1.875000e+02
1.937500e+02
2.000000e+02
0.000000e+00
6.250000e+00
1.250000e+01
1.875000e+01
2.500000e+01
3.125000e+01
3.750000e+01
4.375000e+01
5.000000e+01
5.625000e+01
6.250000e+01
6.875000e+01
7.500000e+01
8.125000e+01
8.750000e+01
9.375000e+01
1.000000e+02
1.062500e+02
1.125000e+02
1.187500e+02
1.250000e+02
1.312500e+02
1.375000e+02
1.437500e+02
1.500000e+02
1.562500e+02
1.625000e+02
1.687500e+02
1.750000e+02
1.812500e+02
1.875000e+02
1.937500e+02
2.000000e+02
0.000000e+00
6.250000e+00
1.250000e+01
1.875000e+01
2.500000e+01
3.125000e+01
3.750000e+01
4.375000e+01
5.000000e+01
5.625000e+01
6.250000e+01
6.875000e+01
7.500000e+01
8.125000e+01
8.750000e+01
9.375000e+01
1.000000e+02
1.062500e+02
1.125000e+02
1.187500e+02
1.250000e+02
1.312500e+02
1.375000e+02
1.437500e+02
1.500000e+02
1.562500e+02
1.625000e+02
1.687500e+02
1.750000e+02
1.812500e+02
1.875000e+02
1.937500e+02
2.000000e+02
0.000000e+00
6.250000e+00
1.250000e+01
1.875000e+01
2.500000e+01
3.125000e+01
3.750000e+01
4.375000e+01
5.000000e+01
5.625000e+01
6.250000e+01
6.875000e+01
7.500000e+01
8.125000e+01
8.750000e+01
9.375000e+01
1.000000e+02
1.062500e+02
1.125000e+02
1.187500e+02
1.250000e+02
1.312500e+02
1.375000e+02
1.437500e+02
1.500000e+02
1.562500e+02
1.625000e+02
1.687500e+02
1.750000e+02
1.812500e+02
1.875000e+02
1.937500e+02
2.000000e+02
0.000000e+00
6.250000e+00
1.250000e+01
1.875000e+01
2.500000e+01
3.125000e+01
3.750000e+01
4.375000e+01
5.000000e+01
5.625000e+01
6.250000e+01
6.875000e+01
7.500000e+01
8.125000e+01
8.750000e+01
9.375000e+01
1.000000e+02
1.062500e+02
1.125000e+02
1.187500e+02
1.250000e+02
1.312500e+02
1.375000e+02
1.437500e+02
1.500000e+02
1.562500e+02
1.625000e+02
1.687500e+02
1.750000e+02
1.812500e+02
1.875000e+02
1.937500e+02
2.000000e+02
0.000000e+00
6.250000e+00
1.250000e+01
1.875000e+01
2.500000e+01
3.125000e+01
3.750000e+01
4.375000e+01
5.000000e+01
5.625000e+01
6.250000e+01
6.875000e+01
7.500000e+01
8.125000e+01
8.750000e+01
9.375000e+01
1.000000e+02
1.062500e+02
1.125000e+02
1.187500e+02
1.250000e+02
1.312500e+02
1.375000e+02
1.437500e+02
1.500000e+02
1.562500e+02
1.625000e+02
1.687500e+02
1.750000e+02
1.812500e+02
1.875000e+02
1.937500e+02
2.000000e+02
0.000000e+00
6.250000e+00
1.250000e+01
1.875000e+01
2.500000e+01
3.125000e+01
3.750000e+01
4.375000e+01
5.000000e+01
5.625000e+01
6.250000e+01
6.875000e+01
7.500000e+01
8.125000e+01
8.750000e+01
9.375000e+01
1.000000e+02
1.062500e+02
1.125000e+02
1.187500e+02
1.250000e+02
1.312500e+02
1.375000e+02
1.437500e+02
1.500000e+02
1.562500e+02
1.625000e+02
1.687500e+02
1.750000e+02
1.812500e+02
1.875000e+02
1.937500e+02
2.000000e+02
0.000000e+00
0.000000e+00
0.000000e+00
0.000000e+00
0.000000e+00
0.000000e+00
0.000000e+00
0.000000e+00
0.000000e+00
0.000000e+00
0.000000e+00
0.000000e+00
0.000000e+00
0.000000e+00
0.000000e+00
0.000000e+00
0.000000e+00
0.000000e+00
0.000000e+00
0.000000e+00
0.000000e+00
0.000000e+00
0.000000e+00
0.000000e+00
0.000000e+00
0.000000e+00
0.000000e+00
0.000000e+00
0.000000e+00
0.000000e+00
0.000000e+00
0.000000e+00
0.000000e+00
6.250000e+00
6.250000e+00
6.250000e+00
6.250000e+00
6.250000e+00
6.250000e+00
6.250000e+00
6.250000e+00
6.250000e+00
6.250000e+00
6.250000e+00
6.250000e+00
6.250000e+00
6.250000e+00
6.250000e+00
6.250000e+00
6.250000e+00
6.250000e+00
6.250000e+00
6.250000e+00
6.250000e+00
6.250000e+00
6.250000e+00
6.250000e+00
6.250000e+00
6.250000e+00
6.250000e+00
6.250000e+00
6.250000e+00
6.250000e+00
6.250000e+00
6.250000e+00
6.250000e+00
1.250000e+01
1.250000e+01
1.250000e+01
1.250000e+01
1.250000e+01
1.250000e+01
1.250000e+01
1.250000e+01
1.250000e+01
1.250000e+01
1.250000e+01
1.250000e+01
1.250000e+01
1.250000e+01
1.250000e+01
1.250000e+01
1.250000e+01
1.250000e+01
1.250000e+01
1.250000e+01
1.250000e+01
1.250000e+01
1.250000e+01
1.250000e+01
1.250000e+01
1.250000e+01
1.250000e+01
1.250000e+01
1.250000e+01
1.250000e+01
1.250000e+01
1.250000e+01
1.250000e+01
1.875000e+01
1.875000e+01
1.875000e+01
1.875000e+01
1.875000e+01
1.875000e+01
1.875000e+01
1.875000e+01
1.875000e+01
1.875000e+01
1.875000e+01
1.875000e+01
1.875000e+01
1.875000e+01
1.875000e+01
1.875000e+01
1.875000e+01
1.875000e+01
1.875000e+01
1.875000e+01
1.875000e+01
1.875000e+01
1.875000e+01
1.875000e+01
1.875000e+01
1.875000e+01
1.875000e+01
1.875000e+01
1.875000e+01
1.875000e+01
1.875000e+01
1.875000e+01
1.875000e+01
2.500000e+01
2.500000e+01
2.500000e+01
2.500000e+01
2.500000e+01
2.500000e+01
2.500000e+01
2.500000e+01
2.500000e+01
2.500000e+01
2.500000e+01
2.500000e+01
2.500000e+01
2.500000e+01
2.500000e+01
2.500000e+01
2.500000e+01
2.500000e+01
2.500000e+01
2.500000e+01
2.500000e+01
2.500000e+01
2.500000e+01
2.500000e+01
2.500000e+01
2.500000e+01
2.500000e+01
2.500000e+01
2.500000e+01
2.500000e+01
2.500000e+01
2.500000e+01
2.500000e+01
3.125000e+01
3.125000e+01
3.125000e+01
3.125000e+01
3.125000e+01
3.125000e+01
3.125000e+01
3.125000e+01
3.125000e+01
3.125000e+01
3.125000e+01
3.125000e+01
3.125000e+01
3.125000e+01
3.125000e+01
3.125000e+01
3.125000e+01
3.125000e+01
3.125000e+01
3.125000e+01
3.125000e+01
3.125000e+01
3.125000e+01
3.125000e+01
3.125000e+01
3.125000e+01
3.125000e+01
3.125000e+01
3.125000e+01
3.125000e+01
3.125000e+01
3.125000e+01
3.125000e+01
3.750000e+01
3.750000e+01
3.750000e+01
3.750000e+01
3.750000e+01
3.750000e+01
3.750000e+01
3.750000e+01
3.750000e+01
3.750000e+01
3.750000e+01
3.750000e+01
3.750000e+01
3.750000e+01
3.750000e+01
3.750000e+01
3.750000e+01
3.750000e+01
3.750000e+01
3.750000e+01
3.750000e+01
3.750000e+01
3.750000e+01
3.750000e+01
3.750000e+01
3.750000e+01
3.750000e+01
3.750000e+01
3.750000e+01
3.750000e+01
3.750000e+01
3.750000e+01
3.750000e+01
4.375000e+01
4.375000e+01
4.375000e+01
4.375000e+01
4.375000e+01
4.375000e+01
4.375000e+01
4.375000e+01
4.375000e+01
4.375000e+01
4.375000e+01
4.375000e+01
4.375000e+01
4.375000e+01
4.375000e+01
4.375000e+01
4.375000e+01
4.375000e+01
4.375000e+01
4.375000e+01
4.375000e+01
4.375000e+01
4.375000e+01
4.375000e+01
4.375000e+01
4.375000e+01
4.375000e+01
4.375000e+01
4.375000e+01
4.375000e+01
4.375000e+01
4.375000e+01
4.375000e+01
5.000000e+01
5.000000e+01
5.000000e+01
5.000000e+01
5.000000e+01
5.000000e+01
5.000000e+01
5.000000e+01
5.000000e+01
5.000000e+01
5.000000e+01
5.000000e+01
5.000000e+01
5.000000e+01
5.000000e+01
5.000000e+01
5.000000e+01
5.000000e+01
5.000000e+01
5.000000e+01
5.000000e+01
5.000000e+01
5.000000e+01
5.000000e+01
5.000000e+01
5.000000e+01
5.000000e+01
5.000000e+01
5.000000e+01
5.000000e+01
5.000000e+01
5.000000e+01
5.000000e+01
5.625000e+01
5.625000e+01
5.625000e+01
5.625000e+01
5.625000e+01
5.625000e+01
5.625000e+01
5.625000e+01
5.625000e+01
5.625000e+01
5.625000e+01
5.625000e+01
5.625000e+01
5.625000e+01
5.625000e+01
5.625000e+01
5.625000e+01
5.625000e+01
5.625000e+01
5.625000e+01
5.625000e+01
5.625000e+01
5.625000e+01
5.625000e+01
5.625000e+01
5.625000e+01
5.625000e+01
5.625000e+01
5.625000e+01
5.625000e+01
5.625000e+01
5.625000e+01
5.625000e+01
6.250000e+01
6.250000e+01
6.250000e+01
6.250000e+01
6.250000e+01
6.250000e+01
6.250000e+01
6.250000e+01
6.250000e+01
6.250000e+01
6.250000e+01
6.250000e+01
6.250000e+01
6.250000e+01
6.250000e+01
6.250000e+01
6.250000e+01
6.250000e+01
6.250000e+01
6.250000e+01
6.250000e+01
6.250000e+01
6.250000e+01
6.250000e+01
6.250000e+01
6.250000e+01
6.250000e+01
6.250000e+01
6.250000e+01
6.250000e+01
6.250000e+01
6.250000e+01
6.250000e+01
6.875000e+01
6.875000e+01
6.875000e+01
6.875000e+01
6.875000e+01
6.875000e+01
6.875000e+01
6.875000e+01
6.875000e+01
6.875000e+01
6.875000e+01
6.875000e+01
6.875000e+01
6.875000e+01
6.875000e+01
6.875000e+01
6.875000e+01
6.875000e+01
6.875000e+01
6.875000e+01
6.875000e+01
6.875000e+01
6.875000e+01
6.875000e+01
6.875000e+01
6.875000e+01
6.875000e+01
6.875000e+01
6.875000e+01
6.875000e+01
6.875000e+01
6.875000e+01
6.875000e+01
7.500000e+01
7.500000e+01
7.500000e+01
7.500000e+01
7.500000e+01
7.500000e+01
7.500000e+01
7.500000e+01
7.500000e+01
7.500000e+01
7.500000e+01
7.500000e+01
7.500000e+01
7.500000e+01
7.500000e+01
7.500000e+01
7.500000e+01
7.500000e+01
7.500000e+01
7.500000e+01
7.500000e+01
7.500000e+01
7.500000e+01
7.500000e+01
7.500000e+01
7.500000e+01
7.500000e+01
7.500000e+01
7.500000e+01
7.500000e+01
7.500000e+01
7.500000e+01
7.500000e+01
8.125000e+01
8.125000e+01
8.125000e+01
8.125000e+01
8.125000e+01
8.125000e+01
8.125000e+01
8.125000e+01
8.125000e+01
8.125000e+01
8.125000e+01
8.125000e+01
8.125000e+01
8.125000e+01
8.125000e+01
8.125000e+01
8.125000e+01
8.125000e+01
8.125000e+01
8.125000e+01
8.125000e+01
8.125000e+01
8.125000e+01
8.125000e+01
8.125000e+01
8.125000e+01
8.125000e+01
8.125000e+01
8.125000e+01
8.125000e+01
8.125000e+01
8.125000e+01
8.125000e+01
8.750000e+01
8.750000e+01
8.750000e+01
8.750000e+01
8.750000e+01
8.750000e+01
8.750000e+01
8.750000e+01
8.750000e+01
8.750000e+01
8.750000e+01
8.750000e+01
8.750000e+01
8.750000e+01
8.750000e+01
8.750000e+01
8.750000e+01
8.750000e+01
8.750000e+01
8.750000e+01
8.750000e+01
8.750000e+01
8.750000e+01
8.750000e+01
8.750000e+01
8.750000e+01
8.750000e+01
8.750000e+01
8.750000e+01
8.750000e+01
8.750000e+01
8.750000e+01
8.750000e+01
9.375000e+01
9.375000e+01
9.375000e+01
9.375000e+01
9.375000e+01
9.375000e+01
9.375000e+01
9.375000e+01
9.375000e+01
9.375000e+01
9.375000e+01
9.375000e+01
9.375000e+01
9.375000e+01
9.375000e+01
9.375000e+01
9.375000e+01
9.375000e+01
9.375000e+01
9.375000e+01
9.375000e+01
9.375000e+01
9.375000e+01
9.375000e+01
9.375000e+01
9.375000e+01
9.375000e+01
9.375000e+01
9.375000e+01
9.375000e+01
9.375000e+01
9.375000e+01
9.375000e+01
1.000000e+02
1.000000e+02
1.000000e+02
1.000000e+02
1.000000e+02
1.000000e+02
1.000000e+02
1.000000e+02
1.000000e+02
1.000000e+02
1.000000e+02
1.000000e+02
1.000000e+02
1.000000e+02
1.000000e+02
1.000000e+02
1.000000e+02
1.000000e+02
1.000000e+02
1.000000e+02
1.000000e+02
1.000000e+02
1.000000e+02
1.000000e+02
1.000000e+02
1.000000e+02
1.000000e+02
1.000000e+02
1.000000e+02
1.000000e+02
1.000000e+02
1.000000e+02
1.000000e+02
0.000000e+00
-8.093905e-02
-1.468520e-01
-2.079119e-01
-2.665136e-01
-3.231025e-01
-3.777925e-01
-4.305796e-01
-4.814301e-01
-5.303057e-01
-5.771762e-01
-6.220213e-01
-6.648299e-01
-7.056004e-01
-7.443421e-01
-7.810761e-01
-8.158353e-01
-8.486669e-01
-8.796367e-01
-9.088344e-01
-9.363793e-01
-9.624279e-01
-9.871871e-01
-1.010932e+00
-1.034032e+00
-1.056987e+00
-1.080495e+00
-1.105548e+00
-1.133603e+00
-1.166802e+00
-1.207925e+00
-1.256932e+00
-1.286840e+00
0.000000e+00
-5.426716e-02
-1.129077e-01
-1.681987e-01
-2.207520e-01
-2.710669e-01
-3.194090e-01
-3.658958e-01
-4.105729e-01
-4.534545e-01
-4.945437e-01
-5.338414e-01
-5.713491e-01
-6.070720e-01
-6.410222e-01
-6.732191e-01
-7.036902e-01
-7.324724e-01
-7.596154e-01
-7.851844e-01
-8.092627e-01
-8.319540e-01
-8.533872e-01
-8.737200e-01
-8.931415e-01
-9.118693e-01
-9.301332e-01
-9.481222e-01
-9.658347e-01
-9.826944e-01
-9.967430e-01
-1.004956e+00
-1.016391e+00
0.000000e+00
-4.304447e-02
-8.861691e-02
-1.350176e-01
-1.801057e-01
-2.235326e-01
-2.652705e-01
-3.053592e-01
-3.438339e-01
-3.807185e-01
-4.160289e-01
-4.497764e-01
-4.819697e-01
-5.126182e-01
-5.417333e-01
-5.693297e-01
-5.954252e-01
-6.200418e-01
-6.432069e-01
-6.649540e-01
-6.853214e-01
-7.043502e-01
-7.220805e-01
-7.385438e-01
-7.537463e-01
-7.676397e-01
-7.800651e-01
-7.906568e-01
-7.986984e-01
-8.030284e-01
-8.026486e-01
-8.002170e-01
-8.135697e-01
0.000000e+00
-3.415192e-02
-7.018972e-02
-1.072145e-01
-1.441532e-01
-1.801976e-01
-2.150390e-01
-2.485665e-01
-2.807501e-01
-3.115885e-01
-3.410899e-01
-3.692639e-01
-3.961196e-01
-4.216653e-01
-4.459091e-01
-4.688579e-01
-4.905178e-01
-5.108941e-01
-5.299909e-01
-5.478093e-01
-5.643451e-01
-5.795830e-01
-5.934892e-01
-6.059987e-01
-6.169962e-01
-6.262875e-01
-6.335652e-01
-6.383847e-01
-6.402247e-01
-6.388586e-01
-6.355408e-01
-6.353427e-01
-6.480646e-01
0.000000e+00
-2.650679e-02
-5.427675e-02
-8.293393e-02
-1.118242e-01
-1.403606e-01
-1.681494e-01
-1.949910e-01
-2.207945e-01
-2.455254e-01
-2.691745e-01
-2.917430e-01
-3.132347e-01
-3.336533e-01
-3.530006e-01
-3.712747e-01
-3.884697e-01
-4.045751e-01
-4.195744e-01
-4.334423e-01
-4.461417e-01
-4.576184e-01
-4.677939e-01
-4.765562e-01
-4.837505e-01
-4.891734e-01
-4.925858e-01
-4.937827e-01
-4.928005e-01
-4.903975e-01
-4.888386e-01
-4.924386e-01
-5.032910e-01
0.000000e+00
-1.948110e-02
-3.979677e-02
-6.076508e-02
-8.202387e-02
-1.031765e-01
-1.239081e-01
-1.440135e-01
-1.633802e-01
-1.819537e-01
-1.997111e-01
-2.166440e-01
-2.327493e-01
-2.480244e-01
-2.624637e-01
-2.760565e-01
-2.887868e-01
-3.006312e-01
-3.115578e-01
-3.215238e-01
-3.304730e-01
-3.383329e-01
-3.450117e-01
-3.503974e-01
-3.543620e-01
-3.567811e-01
-3.575836e-01
-3.568633e-01
-3.550879e-01
-3.533988e-01
-3.538101e-01
-3.583995e-01
-3.673793e-01
0.000000e+00
-1.282099e-02
-2.614908e-02
-3.989991e-02
-5.387747e-02
-6.784663e-02
-8.159677e-02
-9.497423e-02
-1.078828e-01
-1.202696e-01
-1.321078e-01
-1.433839e-01
-1.540891e-01
-1.642147e-01
-1.737484e-01
-1.826727e-01
-1.909634e-01
-1.985889e-01
-2.055080e-01
-2.116699e-01
-2.170126e-01
-2.214637e-01
-2.249424e-01
-2.273665e-01
-2.286690e-01
-2.288306e-01
-2.279400e-01
-2.262920e-01
-2.245138e-01
-2.236518e-01
-2.249967e-01
-2.294651e-01
-2.367139e-01
0.000000e+00
-6.368235e-03
-1.297722e-02
-1.979294e-02
-2.672934e-02
-3.367690e-02
-4.053160e-02
-4.721201e-02
-5.366307e-02
-5.985119e-02
-6.575646e-02
-7.136570e-02
-7.666740e-02
-8.164842e-02
-8.629177e-02
-9.057514e-02
-9.446979e-02
-9.793980e-02
-1.009415e-01
-1.034238e-01
-1.053293e-01
-1.065977e-01
-1.071723e-01
-1.070125e-01
-1.061152e-01
-1.045489e-01
-1.025031e-01
-1.003475e-01
-9.867418e-02
-9.825508e-02
-9.983306e-02
-1.037311e-01
-1.094828e-01
0.000000e+00
-1.036793e-05
-2.244366e-05
-3.554413e-05
-4.898226e-05
-6.184525e-05
-7.274830e-05
-7.957549e-05
-7.918612e-05
-6.704620e-05
-3.680936e-05
2.021995e-05
1.156685e-04
2.647617e-04
4.870237e-04
8.069457e-04
1.254560e-03
1.865684e-03
2.681591e-03
3.747722e-03
5.110803e-03
6.813488e-03
8.885314e-03
1.132852e-02
1.409735e-02
1.707053e-02
2.002042e-02
2.259044e-02
2.430600e-02
2.465380e-02
2.325280e-02
2.008020e-02
1.563690e-02
0.000000e+00
6.348684e-03
1.293480e-02
1.972563e-02
2.663638e-02
3.355921e-02
4.039267e-02
4.705926e-02
5.350979e-02
5.971912e-02
6.567924e-02
7.139330e-02
7.687165e-02
8.212983e-02
8.718768e-02
9.206921e-02
9.680261e-02
1.014200e-01
1.059566e-01
1.104486e-01
1.149296e-01
1.194243e-01
1.239390e-01
1.284487e-01
1.328802e-01
1.370936e-01
1.408684e-01
1.439044e-01
1.458551e-01
1.464073e-01
1.454070e-01
1.429970e-01
1.396993e-01
0.000000e+00
1.280494e-02
2.611403e-02
3.984396e-02
5.379963e-02
6.774721e-02
8.147806e-02
9.484168e-02
1.077465e-01
1.201464e-01
1.320241e-01
1.433793e-01
1.542213e-01
1.645646e-01
1.744275e-01
1.838308e-01
1.927981e-01
2.013550e-01
2.095279e-01
2.173422e-01
2.248182e-01
2.319652e-01
2.387735e-01
2.452040e-01
2.511758e-01
2.565566e-01
2.611591e-01
2.647538e-01
2.671066e-01
2.680473e-01
2.675637e-01
2.658961e-01
2.635945e-01
0.000000e+00
1.947076e-02
3.977386e-02
6.072798e-02
8.197137e-02
1.031081e-01
1.238245e-01
1.439174e-01
1.632772e-01
1.818537e-01
1.996297e-01
2.166057e-01
2.327903e-01
2.481961e-01
2.628376e-01
2.767306e-01
2.898911e-01
3.023358e-01
3.140807e-01
3.251392e-01
3.355192e-01
3.452182e-01
3.542174e-01
3.624745e-01
3.699165e-01
3.764353e-01
3.818903e-01
3.861240e-01
3.889952e-01
3.904338e-01
3.905148e-01
3.895366e-01
3.880820e-01
0.000000e+00
2.650408e-02
5.427020e-02
8.292244e-02
1.118066e-01
1.403359e-01
1.681169e-01
1.949506e-01
2.207472e-01
2.454732e-01
2.691214e-01
2.916957e-01
3.132040e-01
3.336554e-01
3.530588e-01
3.714220e-01
3.887518e-01
4.050538e-01
4.203318e-01
4.345867e-01
4.478141e-01
4.600017e-01
4.711263e-01
4.811494e-01
4.900147e-01
4.976479e-01
5.039614e-01
5.088682e-01
5.123071e-01
5.142827e-01
5.149236e-01
5.145563e-01
5.137900e-01
0.000000e+00
3.415811e-02
7.020254e-02
1.072337e-01
1.441781e-01
1.802275e-01
2.150730e-01
2.486028e-01
2.807858e-01
3.116194e-01
3.411093e-01
3.692618e-01
3.960820e-01
4.215730e-01
4.457354e-01
4.685673e-01
4.900643e-01
5.102192e-01
5.290222e-01
5.464598e-01
5.625142e-01
5.771632e-01
5.903791e-01
6.021286e-01
6.123741e-01
6.210772e-01
6.282053e-01
6.337423e-01
6.377050e-01
6.401677e-01
6.413005e-01
6.414355e-01
6.411813e-01
0.000000e+00
4.305980e-02
8.865003e-02
1.350696e-01
1.801772e-01
2.236247e-01
2.653836e-01
3.054916e-01
3.439817e-01
3.808745e-01
4.161798e-01
4.499002e-01
4.820333e-01
5.125731e-01
5.415101e-01
5.688309e-01
5.945189e-01
6.185531e-01
6.409081e-01
6.615540e-01
6.804567e-01
6.975795e-01
7.128855e-01
7.263403e-01
7.379184e-01
7.476107e-01
7.554348e-01
7.614460e-01
7.657481e-01
7.685036e-01
7.699458e-01
7.704155e-01
7.704716e-01
0.000000e+00
5.429014e-02
1.129586e-01
1.682807e-01
2.208685e-01
2.712223e-01
3.196073e-01
3.661382e-01
4.108582e-01
4.537776e-01
4.948915e-01
5.341884e-01
5.716538e-01
6.072704e-01
6.410179e-01
6.728719e-01
7.028035e-01
7.307777e-01
7.567524e-01
7.806786e-01
8.025008e-01
8.221604e-01
8.395997e-01
8.547684e-01
8.676350e-01
8.782000e-01
8.865135e-01
8.926924e-01
8.969370e-01
8.995378e-01
9.008666e-01
9.013483e-01
9.014663e-01
0.000000e+00
8.096415e-02
1.469116e-01
2.080140e-01
2.666657e-01
3.233135e-01
3.780716e-01
4.309342e-01
4.818664e-01
5.308270e-01
5.777784e-01
6.226877e-01
6.655265e-01
7.062674e-01
7.448815e-01
7.813365e-01
8.155936e-01
8.476052e-01
8.773130e-01
9.046462e-01
9.295228e-01
9.518511e-01
9.715356e-01
9.884858e-01
1.002632e+00
1.013944e+00
1.022464e+00
1.028333e+00
1.031831e+00
1.033408e+00
1.033694e+00
1.033457e+00
1.033323e+00
0.000000e+00
-5.001863e-02
-8.729364e-02
-1.279705e-01
-1.732668e-01
-2.244333e-01
-2.818258e-01
-3.455443e-01
-4.155251e-01
-4.916183e-01
-5.736224e-01
-6.613053e-01
-7.544165e-01
-8.526958e-01
-9.558776e-01
-1.063694e+00
-1.175879e+00
-1.292171e+00
-1.412318e+00
-1.536081e+00
-1.663245e+00
-1.793630e+00
-1.927105e+00
-2.063619e+00
-2.203241e+00
-2.346228e+00
-2.493149e+00
-2.645114e+00
-2.804243e+00
-2.974737e+00
-3.165659e+00
-3.398393e+00
-3.719921e+00
0.000000e+00
-3.108479e-02
-7.010195e-02
-1.110528e-01
-1.569802e-01
-2.087026e-01
-2.666526e-01
-3.309285e-01
-4.014725e-01
-4.781345e-01
-5.607117e-01
-6.489700e-01
-7.426573e-01
-8.415109e-01
-9.452626e-01
-1.053642e+00
-1.166380e+00
-1.283211e+00
-1.403877e+00
-1.528134e+00
-1.655761e+00
-1.786566e+00
-1.920408e+00
-2.057221e+00
-2.197053e+00
-2.340141e+00
-2.487022e+00
-2.638772e+00
-2.797467e+00
-2.967238e+00
-3.156685e+00
-3.384238e+00
-3.684628e+00
0.000000e+00
-2.283367e-02
-5.651608e-02
-9.690815e-02
-1.429156e-01
-1.950189e-01
-2.534262e-01
-3.181918e-01
-3.892381e-01
-4.664080e-01
-5.494950e-01
-6.382632e-01
-7.324596e-01
-8.318204e-01
-9.360764e-01
-1.044956e+00
-1.158189e+00
-1.275508e+00
-1.396654e+00
-1.521382e+00
-1.649465e+00
-1.780713e+00
-1.914984e+00
-2.052213e+00
-2.192456e+00
-2.335960e+00
-2.483289e+00
-2.635544e+00
-2.794778e+00
-2.964708e+00
-3.151691e+00
-3.363235e+00
-3.597901e+00
0.000000e+00
-1.828440e-02
-4.785797e-02
-8.609605e-02
-1.315120e-01
-1.835990e-01
-2.422561e-01
-3.073845e-01
-3.788441e-01
-4.564491e-01
-5.399798e-01
-6.291949e-01
-7.238387e-01
-8.236470e-01
-9.283509e-01
-1.037680e+00
-1.151364e+00
-1.269137e+00
-1.390742e+00
-1.515934e+00
-1.644492e+00
-1.776229e+00
-1.911010e+00
-2.048780e+00
-2.189608e+00
-2.333756e+00
-2.481779e+00
-2.634693e+00
-2.794177e+00
-2.962683e+00
-3.142555e+00
-3.332263e+00
-3.508862e+00
0.000000e+00
-1.547181e-02
-4.219597e-02
-7.841832e-02
-1.227989e-01
-1.745442e-01
-2.332233e-01
-2.985633e-01
-3.703281e-01
-4.482833e-01
-5.321853e-01
-6.217811e-01
-7.168106e-01
-8.170087e-01
-9.221076e-01
-1.031839e+00
-1.145934e+00
-1.264132e+00
-1.386178e+00
-1.511832e+00
-1.640876e+00
-1.773131e+00
-1.908466e+00
-2.046830e+00
-2.188289e+00
-2.333069e+00
-2.481626e+00
-2.634690e+00
-2.793226e+00
-2.958013e+00
-3.128264e+00
-3.297729e+00
-3.451528e+00
0.000000e+00
-1.368214e-02
-3.848104e-02
-7.313493e-02
-1.165163e-01
-1.677768e-01
-2.263282e-01
-2.917518e-01
-3.637176e-01
-4.419353e-01
-5.261314e-01
-6.160379e-01
-7.113883e-01
-8.119163e-01
-9.173553e-01
-1.027440e+00
-1.141905e+00
-1.260493e+00
-1.382953e+00
-1.509050e+00
-1.638569e+00
-1.771329e+00
-1.907199e+00
-2.046113e+00
-2.188093e+00
-2.333279e+00
-2.481925e+00
-2.634353e+00
-2.790739e+00
-2.950555e+00
-3.111366e+00
-3.267427e+00
-3.410066e+00
0.000000e+00
-1.256987e-02
-3.613228e-02
-6.970064e-02
-1.123076e-01
-1.631262e-01
-2.215037e-01
-2.869354e-01
-3.590199e-01
-4.374194e-01
-5.218323e-01
-6.119761e-01
-7.075783e-01
-8.083713e-01
-9.140903e-01
-1.024472e+00
-1.139257e+00
-1.258189e+00
-1.381021e+00
-1.507518e+00
-1.637466e+00
-1.770676e+00
-1.906997e+00
-2.046327e+00
-2.188617e+00
-2.333870e+00
-2.482100e+00
-2.633220e+00
-2.786796e+00
-2.941576e+00
-3.094883e+00
-3.242297e+00
-3.378402e+00
0.000000e+00
-1.195866e-02
-3.482899e-02
-6.776534e-02
-1.098942e-01
-1.604173e-01
-2.186608e-01
-2.840781e-01
-3.562267e-01
-4.347387e-01
-5.192936e-01
-6.095992e-01
-7.053793e-01
-8.063663e-01
-9.122971e-01
-1.022912e+00
-1.137953e+00
-1.257168e+00
-1.380310e+00
-1.507143e+00
-1.637442e+00
-1.771004e+00
-1.907646e+00
-2.047211e+00
-2.189560e+00
-2.334545e+00
-2.481953e+00
-2.631383e+00
-2.782036e+00
-2.932431e+00
-3.080151e+00
-3.221874e+00
-3.353902e+00
0.000000e+00
-1.176172e-02
-3.440850e-02
-6.713806e-02
-1.091077e-01
-1.595308e-01
-2.177295e-01
-2.831458e-01
-3.553249e-01
-4.338894e-01
-5.185135e-01
-6.089032e-01
-7.047825e-01
-8.058855e-01
-9.119519e-01
-1.022724e+00
-1.137947e+00
-1.257369e+00
-1.380742e+00
-1.507821e+00
-1.638370e+00
-1.772162e+00
-1.908974e+00
-2.048584e+00
-2.190758e+00
-2.335212e+00
-2.481554e+00
-2.629182e+00
-2.777140e+00
-2.923971e+00
-3.067632e+00
-3.205586e+00
-3.335125e+00
0.000000e+00
-1.195292e-02
-3.482101e-02
-6.775845e-02
-1.098921e-01
-1.604245e-01
-2.186832e-01
-2.841237e-01
-3.563061e-01
-4.348655e-01
-5.194854e-01
-6.098783e-01
-7.057732e-01
-8.069080e-01
-9.130255e-01
-1.023871e+00
-1.139189e+00
-1.258728e+00
-1.382236e+00
-1.509458e+00
-1.640142e+00
-1.774031e+00
-1.910860e+00
-2.050343e+00
-2.192159e+00
-2.335914e+00
-2.481092e+00
-2.626986e+00
-2.772614e+00
-2.916649e+00
-3.057406e+00
-3.192923e+00
-3.321132e+00
0.000000e+00
-1.255885e-02
-3.611696e-02
-6.968738e-02
-1.123034e-01
-1.631397e-01
-2.215463e-01
-2.870224e-01
-3.591714e-01
-4.376618e-01
-5.221994e-01
-6.125107e-01
-7.083332e-01
-8.094101e-01
-9.154876e-01
-1.026312e+00
-1.141630e+00
-1.261187e+00
-1.384723e+00
-1.511975e+00
-1.642672e+00
-1.776528e+00
-1.913235e+00
-2.052452e+00
-2.193784e+00
-2.336756e+00
-2.480779e+00
-2.625103e+00
-2.768787e+00
-2.910669e+00
-3.049386e+00
-3.183425e+00
-3.311199e+00
0.000000e+00
-1.366682e-02
-3.845976e-02
-7.311644e-02
-1.165103e-01
-1.677953e-01
-2.263872e-01
-2.918727e-01
-3.639285e-01
-4.422732e-01
-5.266437e-01
-6.167845e-01
-7.124433e-01
-8.133690e-01
-9.193106e-01
-1.030016e+00
-1.145231e+00
-1.264696e+00
-1.388149e+00
-1.515314e+00
-1.645901e+00
-1.779600e+00
-1.916066e+00
-2.054911e+00
-2.195685e+00
-2.337859e+00
-2.480799e+00
-2.623755e+00
-2.765849e+00
-2.906090e+00
-3.043399e+00
-3.176650e+00
-3.304687e+00
0.000000e+00
-1.545379e-02
-4.217096e-02
-7.839659e-02
-1.227919e-01
-1.745666e-01
-2.332945e-01
-2.987091e-01
-3.705828e-01
-4.486914e-01
-5.328044e-01
-6.226838e-01
-7.180865e-01
-8.187661e-01
-9.244736e-01
-1.034957e+00
-1.149961e+00
-1.269225e+00
-1.392478e+00
-1.519436e+00
-1.649794e+00
-1.783221e+00
-1.919344e+00
-2.057740e+00
-2.197920e+00
-2.339318e+00
-2.481282e+00
-2.623074e+00
-2.763886e+00
-2.902876e+00
-3.039220e+00
-3.172152e+00
-3.300961e+00
0.000000e+00
-1.826589e-02
-4.783234e-02
-8.607404e-02
-1.315061e-01
-1.836253e-01
-2.423363e-01
-3.075473e-01
-3.791273e-01
-4.569019e-01
-5.406661e-01
-6.301946e-01
-7.252505e-01
-8.255904e-01
-9.309658e-01
-1.041125e+00
-1.155810e+00
-1.274758e+00
-1.397693e+00
-1.524325e+00
-1.654338e+00
-1.787384e+00
-1.923073e+00
-2.060957e+00
-2.200525e+00
-2.341191e+00
-2.482293e+00
-2.623111e+00
-2.762896e+00
-2.900927e+00
-3.036592e+00
-3.169466e+00
-3.299337e+00
0.000000e+00
-2.281752e-02
-5.649366e-02
-9.688963e-02
-1.429138e-01
-1.950509e-01
-2.535148e-01
-3.183669e-01
-3.895390e-01
-4.668858e-01
-5.502154e-01
-6.393089e-01
-7.339321e-01
-8.338419e-01
-9.387901e-01
-1.048523e+00
-1.162783e+00
-1.281303e+00
-1.403804e+00
-1.529991e+00
-1.659542e+00
-1.792100e+00
-1.927264e+00
-2.064575e+00
-2.203510e+00
-2.343476e+00
-2.483813e+00
-2.623819e+00
-2.762785e+00
-2.900074e+00
-3.035230e+00
-3.168116e+00
-3.299053e+00
0.000000e+00
-3.107438e-02
-7.008671e-02
-1.110420e-01
-1.569869e-01
-2.087443e-01
-2.667524e-01
-3.311163e-01
-4.017876e-01
-4.786277e-01
-5.614476e-01
-6.500296e-01
-7.441396e-01
-8.435344e-01
-9.479645e-01
-1.057176e+00
-1.170907e+00
-1.288891e+00
-1.410846e+00
-1.536472e+00
-1.665444e+00
-1.797402e+00
-1.931940e+00
-2.068598e+00
-2.206852e+00
-2.346114e+00
-2.485734e+00
-2.625030e+00
-2.763325e+00
-2.900034e+00
-3.034786e+00
-3.167628e+00
-3.299294e+00
0.000000e+00
-5.001708e-02
-8.728864e-02
-1.279714e-01
-1.732871e-01
-2.244908e-01
-2.819433e-01
-3.457512e-01
-4.158602e-01
-4.921310e-01
-5.743748e-01
-6.623743e-01
-7.558958e-01
-8.546956e-01
-9.585234e-01
-1.067123e+00
-1.180233e+00
-1.297582e+00
-1.418885e+00
-1.543840e+00
-1.672119e+00
-1.803358e+00
-1.937153e+00