TITLE = "Solution"
VARIABLES = x, y, u, v, psiu, psiv, t, stress
ZONE T="structure" N=561 E=512 F=FEBLOCK ET=QUADRILATERAL VARLOCATION=([7,8]=cellcentered)
0.000000e+00
6.250000e+00
1.250000e+01
1.875000e+01
2.500000e+01
3.125000e+01
3.750000e+01
4.375000e+01
5.000000e+01
5.625000e+01
6.250000e+01
6.875000e+01
7.500000e+01
8.125000e+01
8.750000e+01
9.375000e+01
1.000000e+02
1.062500e+02
1.125000e+02
1.187500e+02
1.250000e+02
1.312500e+02
1.375000e+02
1.437500e+02
1.500000e+02
1.562500e+02
1.625000e+02
1.687500e+02
1.750000e+02
1.812500e+02
1.875000e+02
1.937500e+02
2.000000e+02
0.000000e+00
6.250000e+00
1.250000e+01
1.875000e+01
2.500000e+01
3.125000e+01
3.750000e+01
4.375000e+01
5.000000e+01
5.625000e+01
6.250000e+01
6.875000e+01
7.500000e+01
8.125000e+01
8.750000e+01
9.375000e+01
1.000000e+02
1.062500e+02
1.125000e+02
1.187500e+02
1.250000e+02
1.312500e+02
1.375000e+02
1.437500e+02
1.500000e+02
1.562500e+02
1.625000e+02
1.687500e+02
1.750000e+02
1.812500e+02
1.875000e+02
1.937500e+02
2.000000e+02
0.000000e+00
6.250000e+00
1.250000e+01
1.875000e+01
2.500000e+01
3.125000e+01
3.750000e+01
4.375000e+01
5.000000e+01
5.625000e+01
6.250000e+01
6.875000e+01
7.500000e+01
8.125000e+01
8.750000e+01
9.375000e+01
1.000000e+02
1.062500e+02
1.125000e+02
1.187500e+02
1.250000e+02
1.312500e+02
1.375000e+02
1.437500e+02
1.500000e+02
1.562500e+02
1.625000e+02
1.687500e+02
1.750000e+02
1.812500e+02
1.875000e+02
1.937500e+02
2.000000e+02
0.000000e+00
6.250000e+00
1.250000e+01
1.875000e+01
2.500000e+01
3.125000e+01
3.750000e+01
4.375000e+01
5.000000e+01
5.625000e+01
6.250000e+01
6.875000e+01
7.500000e+01
8.125000e+01
8.750000e+01
9.375000e+01
1.000000e+02
1.062500e+02
1.125000e+02
1.187500e+02
1.250000e+02
1.312500e+02
1.375000e+02
1.437500e+02
1.500000e+02
1.562500e+02
1.625000e+02
1.687500e+02
1.750000e+02
1.812500e+02
1.875000e+02
1.937500e+02
2.000000e+02
0.000000e+00
6.250000e+00
1.250000e+01
1.875000e+01
2.500000e+01
3.125000e+01
3.750000e+01
4.375000e+01
5.000000e+01
5.625000e+01
6.250000e+01
6.875000e+01
7.500000e+01
8.125000e+01
8.750000e+01
9.375000e+01
1.000000e+02
1.062500e+02
1.125000e+02
1.187500e+02
1.250000e+02
1.312500e+02
1.375000e+02
1.437500e+02
1.500000e+02
1.562500e+02
1.625000e+02
1.687500e+02
1.750000e+02
1.812500e+02
1.875000e+02
1.937500e+02
2.000000e+02
0.000000e+00
6.250000e+00
1.250000e+01
1.875000e+01
2.500000e+01
3.125000e+01
3.750000e+01
4.375000e+01
5.000000e+01
5.625000e+01
6.250000e+01
6.875000e+01
7.500000e+01
8.125000e+01
8.750000e+01
9.375000e+01
1.000000e+02
1.062500e+02
1.125000e+02
1.187500e+02
1.250000e+02
1.312500e+02
1.375000e+02
1.437500e+02
1.500000e+02
1.562500e+02
1.625000e+02
1.687500e+02
1.750000e+02
1.812500e+02
1.875000e+02
1.937500e+02
2.000000e+02
0.000000e+00
6.250000e+00
1.250000e+01
1.875000e+01
2.500000e+01
3.125000e+01
3.750000e+01
4.375000e+01
5.000000e+01
5.625000e+01
6.250000e+01
6.875000e+01
7.500000e+01
8.125000e+01
8.750000e+01
9.375000e+01
1.000000e+02
1.062500e+02
1.125000e+02
1.187500e+02
1.250000e+02
1.312500e+02
1.375000e+02
1.437500e+02
1.500000e+02
1.562500e+02
1.625000e+02
1.687500e+02
1.750000e+02
1.812500e+02
1.875000e+02
1.937500e+02
2.000000e+02
0.000000e+00
6.250000e+00
1.250000e+01
1.875000e+01
2.500000e+01
3.125000e+01
3.750000e+01
4.375000e+01
5.000000e+01
5.625000e+01
6.250000e+01
6.875000e+01
7.500000e+01
8.125000e+01
8.750000e+01
9.375000e+01
1.000000e+02
1.062500e+02
1.125000e+02
1.187500e+02
1.250000e+02
1.312500e+02
1.375000e+02
1.437500e+02
1.500000e+02
1.562500e+02
1.625000e+02
1.687500e+02
1.750000e+02
1.812500e+02
1.875000e+02
1.937500e+02
2.000000e+02
0.000000e+00
6.250000e+00
1.250000e+01
1.875000e+01
2.500000e+01
3.125000e+01
3.750000e+01
4.375000e+01
5.000000e+01
5.625000e+01
6.250000e+01
6.875000e+01
7.500000e+01
8.125000e+01
8.750000e+01
9.375000e+01
1.000000e+02
1.062500e+02
1.125000e+02
1.187500e+02
1.250000e+02
1.312500e+02
1.375000e+02
1.437500e+02
1.500000e+02
1.562500e+02
1.625000e+02
1.687500e+02
1.750000e+02
1.812500e+02
1.875000e+02
1.937500e+02
2.000000e+02
0.000000e+00
6.250000e+00
1.250000e+01
1.875000e+01
2.500000e+01
3.125000e+01
3.750000e+01
4.375000e+01
5.000000e+01
5.625000e+01
6.250000e+01
6.875000e+01
7.500000e+01
8.125000e+01
8.750000e+01
9.375000e+01
1.000000e+02
1.062500e+02
1.125000e+02
1.187500e+02
1.250000e+02
1.312500e+02
1.375000e+02
1.437500e+02
1.500000e+02
1.562500e+02
1.625000e+02
1.687500e+02
1.750000e+02
1.812500e+02
1.875000e+02
1.937500e+02
2.000000e+02
0.000000e+00
6.250000e+00
1.250000e+01
1.875000e+01
2.500000e+01
3.125000e+01
3.750000e+01
4.375000e+01
5.000000e+01
5.625000e+01
6.250000e+01
6.875000e+01
7.500000e+01
8.125000e+01
8.750000e+01
9.375000e+01
1.000000e+02
1.062500e+02
1.125000e+02
1.187500e+02
1.250000e+02
1.312500e+02
1.375000e+02
1.437500e+02
1.500000e+02
1.562500e+02
1.625000e+02
1.687500e+02
1.750000e+02
1.812500e+02
1.875000e+02
1.937500e+02
2.000000e+02
0.000000e+00
6.250000e+00
1.250000e+01
1.875000e+01
2.500000e+01
3.125000e+01
3.750000e+01
4.375000e+01
5.000000e+01
5.625000e+01
6.250000e+01
6.875000e+01
7.500000e+01
8.125000e+01
8.750000e+01
9.375000e+01
1.000000e+02
1.062500e+02
1.125000e+02
1.187500e+02
1.250000e+02
1.312500e+02
1.375000e+02
1.437500e+02
1.500000e+02
1.562500e+02
1.625000e+02
1.687500e+02
1.750000e+02
1.812500e+02
1.875000e+02
1.937500e+02
2.000000e+02
0.000000e+00
6.250000e+00
1.250000e+01
1.875000e+01
2.500000e+01
3.125000e+01
3.750000e+01
4.375000e+01
5.000000e+01
5.625000e+01
6.250000e+01
6.875000e+01
7.500000e+01
8.125000e+01
8.750000e+01
9.375000e+01
1.000000e+02
1.062500e+02
1.125000e+02
1.187500e+02
1.250000e+02
1.312500e+02
1.375000e+02
1.437500e+02
1.500000e+02
1.562500e+02
1.625000e+02
1.687500e+02
1.750000e+02
1.812500e+02
1.875000e+02
1.937500e+02
2.000000e+02
0.000000e+00
6.250000e+00
1.250000e+01
1.875000e+01
2.500000e+01
3.125000e+01
3.750000e+01
4.375000e+01
5.000000e+01
5.625000e+01
6.250000e+01
6.875000e+01
7.500000e+01
8.125000e+01
8.750000e+01
9.375000e+01
1.000000e+02
1.062500e+02
1.125000e+02
1.187500e+02
1.250000e+02
1.312500e+02
1.375000e+02
1.437500e+02
1.500000e+02
1.562500e+02
1.625000e+02
1.687500e+02
1.750000e+02
1.812500e+02
1.875000e+02
1.937500e+02
2.000000e+02
0.000000e+00
6.250000e+00
1.250000e+01
1.875000e+01
2.500000e+01
3.125000e+01
3.750000e+01
4.375000e+01
5.000000e+01
5.625000e+01
6.250000e+01
6.875000e+01
7.500000e+01
8.125000e+01
8.750000e+01
9.375000e+01
1.000000e+02
1.062500e+02
1.125000e+02
1.187500e+02
1.250000e+02
1.312500e+02
1.375000e+02
1.437500e+02
1.500000e+02
1.562500e+02
1.625000e+02
1.687500e+02
1.750000e+02
1.812500e+02
1.875000e+02
1.937500e+02
2.000000e+02
0.000000e+00
6.250000e+00
1.250000e+01
1.875000e+01
2.500000e+01
3.125000e+01
3.750000e+01
4.375000e+01
5.000000e+01
5.625000e+01
6.250000e+01
6.875000e+01
7.500000e+01
8.125000e+01
8.750000e+01
9.375000e+01
1.000000e+02
1.062500e+02
1.125000e+02
1.187500e+02
1.250000e+02
1.312500e+02
1.375000e+02
1.437500e+02
1.500000e+02
1.562500e+02
1.625000e+02
1.687500e+02
1.750000e+02
1.812500e+02
1.875000e+02
1.937500e+02
2.000000e+02
0.000000e+00
6.250000e+00
1.250000e+01
1.875000e+01
2.500000e+01
3.125000e+01
3.750000e+01
4.375000e+01
5.000000e+01
5.625000e+01
6.250000e+01
6.875000e+01
7.500000e+01
8.125000e+01
8.750000e+01
9.375000e+01
1.000000e+02
1.062500e+02
1.125000e+02
1.187500e+02
1.250000e+02
1.312500e+02
1.375000e+02
1.437500e+02
1.500000e+02
1.562500e+02
1.625000e+02
1.687500e+02
1.750000e+02
1.812500e+02
1.875000e+02
1.937500e+02
2.000000e+02
0.000000e+00
0.000000e+00
0.000000e+00
0.000000e+00
0.000000e+00
0.000000e+00
0.000000e+00
0.000000e+00
0.000000e+00
0.000000e+00
0.000000e+00
0.000000e+00
0.000000e+00
0.000000e+00
0.000000e+00
0.000000e+00
0.000000e+00
0.000000e+00
0.000000e+00
0.000000e+00
0.000000e+00
0.000000e+00
0.000000e+00
0.000000e+00
0.000000e+00
0.000000e+00
0.000000e+00
0.000000e+00
0.000000e+00
0.000000e+00
0.000000e+00
0.000000e+00
0.000000e+00
6.250000e+00
6.250000e+00
6.250000e+00
6.250000e+00
6.250000e+00
6.250000e+00
6.250000e+00
6.250000e+00
6.250000e+00
6.250000e+00
6.250000e+00
6.250000e+00
6.250000e+00
6.250000e+00
6.250000e+00
6.250000e+00
6.250000e+00
6.250000e+00
6.250000e+00
6.250000e+00
6.250000e+00
6.250000e+00
6.250000e+00
6.250000e+00
6.250000e+00
6.250000e+00
6.250000e+00
6.250000e+00
6.250000e+00
6.250000e+00
6.250000e+00
6.250000e+00
6.250000e+00
1.250000e+01
1.250000e+01
1.250000e+01
1.250000e+01
1.250000e+01
1.250000e+01
1.250000e+01
1.250000e+01
1.250000e+01
1.250000e+01
1.250000e+01
1.250000e+01
1.250000e+01
1.250000e+01
1.250000e+01
1.250000e+01
1.250000e+01
1.250000e+01
1.250000e+01
1.250000e+01
1.250000e+01
1.250000e+01
1.250000e+01
1.250000e+01
1.250000e+01
1.250000e+01
1.250000e+01
1.250000e+01
1.250000e+01
1.250000e+01
1.250000e+01
1.250000e+01
1.250000e+01
1.875000e+01
1.875000e+01
1.875000e+01
1.875000e+01
1.875000e+01
1.875000e+01
1.875000e+01
1.875000e+01
1.875000e+01
1.875000e+01
1.875000e+01
1.875000e+01
1.875000e+01
1.875000e+01
1.875000e+01
1.875000e+01
1.875000e+01
1.875000e+01
1.875000e+01
1.875000e+01
1.875000e+01
1.875000e+01
1.875000e+01
1.875000e+01
1.875000e+01
1.875000e+01
1.875000e+01
1.875000e+01
1.875000e+01
1.875000e+01
1.875000e+01
1.875000e+01
1.875000e+01
2.500000e+01
2.500000e+01
2.500000e+01
2.500000e+01
2.500000e+01
2.500000e+01
2.500000e+01
2.500000e+01
2.500000e+01
2.500000e+01
2.500000e+01
2.500000e+01
2.500000e+01
2.500000e+01
2.500000e+01
2.500000e+01
2.500000e+01
2.500000e+01
2.500000e+01
2.500000e+01
2.500000e+01
2.500000e+01
2.500000e+01
2.500000e+01
2.500000e+01
2.500000e+01
2.500000e+01
2.500000e+01
2.500000e+01
2.500000e+01
2.500000e+01
2.500000e+01
2.500000e+01
3.125000e+01
3.125000e+01
3.125000e+01
3.125000e+01
3.125000e+01
3.125000e+01
3.125000e+01
3.125000e+01
3.125000e+01
3.125000e+01
3.125000e+01
3.125000e+01
3.125000e+01
3.125000e+01
3.125000e+01
3.125000e+01
3.125000e+01
3.125000e+01
3.125000e+01
3.125000e+01
3.125000e+01
3.125000e+01
3.125000e+01
3.125000e+01
3.125000e+01
3.125000e+01
3.125000e+01
3.125000e+01
3.125000e+01
3.125000e+01
3.125000e+01
3.125000e+01
3.125000e+01
3.750000e+01
3.750000e+01
3.750000e+01
3.750000e+01
3.750000e+01
3.750000e+01
3.750000e+01
3.750000e+01
3.750000e+01
3.750000e+01
3.750000e+01
3.750000e+01
3.750000e+01
3.750000e+01
3.750000e+01
3.750000e+01
3.750000e+01
3.750000e+01
3.750000e+01
3.750000e+01
3.750000e+01
3.750000e+01
3.750000e+01
3.750000e+01
3.750000e+01
3.750000e+01
3.750000e+01
3.750000e+01
3.750000e+01
3.750000e+01
3.750000e+01
3.750000e+01
3.750000e+01
4.375000e+01
4.375000e+01
4.375000e+01
4.375000e+01
4.375000e+01
4.375000e+01
4.375000e+01
4.375000e+01
4.375000e+01
4.375000e+01
4.375000e+01
4.375000e+01
4.375000e+01
4.375000e+01
4.375000e+01
4.375000e+01
4.375000e+01
4.375000e+01
4.375000e+01
4.375000e+01
4.375000e+01
4.375000e+01
4.375000e+01
4.375000e+01
4.375000e+01
4.375000e+01
4.375000e+01
4.375000e+01
4.375000e+01
4.375000e+01
4.375000e+01
4.375000e+01
4.375000e+01
5.000000e+01
5.000000e+01
5.000000e+01
5.000000e+01
5.000000e+01
5.000000e+01
5.000000e+01
5.000000e+01
5.000000e+01
5.000000e+01
5.000000e+01
5.000000e+01
5.000000e+01
5.000000e+01
5.000000e+01
5.000000e+01
5.000000e+01
5.000000e+01
5.000000e+01
5.000000e+01
5.000000e+01
5.000000e+01
5.000000e+01
5.000000e+01
5.000000e+01
5.000000e+01
5.000000e+01
5.000000e+01
5.000000e+01
5.000000e+01
5.000000e+01
5.000000e+01
5.000000e+01
5.625000e+01
5.625000e+01
5.625000e+01
5.625000e+01
5.625000e+01
5.625000e+01
5.625000e+01
5.625000e+01
5.625000e+01
5.625000e+01
5.625000e+01
5.625000e+01
5.625000e+01
5.625000e+01
5.625000e+01
5.625000e+01
5.625000e+01
5.625000e+01
5.625000e+01
5.625000e+01
5.625000e+01
5.625000e+01
5.625000e+01
5.625000e+01
5.625000e+01
5.625000e+01
5.625000e+01
5.625000e+01
5.625000e+01
5.625000e+01
5.625000e+01
5.625000e+01
5.625000e+01
6.250000e+01
6.250000e+01
6.250000e+01
6.250000e+01
6.250000e+01
6.250000e+01
6.250000e+01
6.250000e+01
6.250000e+01
6.250000e+01
6.250000e+01
6.250000e+01
6.250000e+01
6.250000e+01
6.250000e+01
6.250000e+01
6.250000e+01
6.250000e+01
6.250000e+01
6.250000e+01
6.250000e+01
6.250000e+01
6.250000e+01
6.250000e+01
6.250000e+01
6.250000e+01
6.250000e+01
6.250000e+01
6.250000e+01
6.250000e+01
6.250000e+01
6.250000e+01
6.250000e+01
6.875000e+01
6.875000e+01
6.875000e+01
6.875000e+01
6.875000e+01
6.875000e+01
6.875000e+01
6.875000e+01
6.875000e+01
6.875000e+01
6.875000e+01
6.875000e+01
6.875000e+01
6.875000e+01
6.875000e+01
6.875000e+01
6.875000e+01
6.875000e+01
6.875000e+01
6.875000e+01
6.875000e+01
6.875000e+01
6.875000e+01
6.875000e+01
6.875000e+01
6.875000e+01
6.875000e+01
6.875000e+01
6.875000e+01
6.875000e+01
6.875000e+01
6.875000e+01
6.875000e+01
7.500000e+01
7.500000e+01
7.500000e+01
7.500000e+01
7.500000e+01
7.500000e+01
7.500000e+01
7.500000e+01
7.500000e+01
7.500000e+01
7.500000e+01
7.500000e+01
7.500000e+01
7.500000e+01
7.500000e+01
7.500000e+01
7.500000e+01
7.500000e+01
7.500000e+01
7.500000e+01
7.500000e+01
7.500000e+01
7.500000e+01
7.500000e+01
7.500000e+01
7.500000e+01
7.500000e+01
7.500000e+01
7.500000e+01
7.500000e+01
7.500000e+01
7.500000e+01
7.500000e+01
8.125000e+01
8.125000e+01
8.125000e+01
8.125000e+01
8.125000e+01
8.125000e+01
8.125000e+01
8.125000e+01
8.125000e+01
8.125000e+01
8.125000e+01
8.125000e+01
8.125000e+01
8.125000e+01
8.125000e+01
8.125000e+01
8.125000e+01
8.125000e+01
8.125000e+01
8.125000e+01
8.125000e+01
8.125000e+01
8.125000e+01
8.125000e+01
8.125000e+01
8.125000e+01
8.125000e+01
8.125000e+01
8.125000e+01
8.125000e+01
8.125000e+01
8.125000e+01
8.125000e+01
8.750000e+01
8.750000e+01
8.750000e+01
8.750000e+01
8.750000e+01
8.750000e+01
8.750000e+01
8.750000e+01
8.750000e+01
8.750000e+01
8.750000e+01
8.750000e+01
8.750000e+01
8.750000e+01
8.750000e+01
8.750000e+01
8.750000e+01
8.750000e+01
8.750000e+01
8.750000e+01
8.750000e+01
8.750000e+01
8.750000e+01
8.750000e+01
8.750000e+01
8.750000e+01
8.750000e+01
8.750000e+01
8.750000e+01
8.750000e+01
8.750000e+01
8.750000e+01
8.750000e+01
9.375000e+01
9.375000e+01
9.375000e+01
9.375000e+01
9.375000e+01
9.375000e+01
9.375000e+01
9.375000e+01
9.375000e+01
9.375000e+01
9.375000e+01
9.375000e+01
9.375000e+01
9.375000e+01
9.375000e+01
9.375000e+01
9.375000e+01
9.375000e+01
9.375000e+01
9.375000e+01
9.375000e+01
9.375000e+01
9.375000e+01
9.375000e+01
9.375000e+01
9.375000e+01
9.375000e+01
9.375000e+01
9.375000e+01
9.375000e+01
9.375000e+01
9.375000e+01
9.375000e+01
1.000000e+02
1.000000e+02
1.000000e+02
1.000000e+02
1.000000e+02
1.000000e+02
1.000000e+02
1.000000e+02
1.000000e+02
1.000000e+02
1.000000e+02
1.000000e+02
1.000000e+02
1.000000e+02
1.000000e+02
1.000000e+02
1.000000e+02
1.000000e+02
1.000000e+02
1.000000e+02
1.000000e+02
1.000000e+02
1.000000e+02
1.000000e+02
1.000000e+02
1.000000e+02
1.000000e+02
1.000000e+02
1.000000e+02
1.000000e+02
1.000000e+02
1.000000e+02
1.000000e+02
0.000000e+00
-4.716084e-01
-7.822104e-01
-1.122034e+00
-1.423840e+00
-1.716106e+00
-2.027528e+00
-2.315383e+00
-2.615136e+00
-2.908797e+00
-3.206108e+00
-3.505007e+00
-3.804131e+00
-4.104307e+00
-4.403925e+00
-4.705813e+00
-5.007751e+00
-5.310829e+00
-5.613398e+00
-5.915413e+00
-6.217847e+00
-6.519650e+00
-6.822047e+00
-7.120106e+00
-7.413731e+00
-7.718389e+00
-8.018029e+00
-8.348353e+00
-8.667952e+00
-9.021771e+00
-9.509804e+00
-9.926446e+00
-1.013073e+01
0.000000e+00
-2.334157e-01
-4.704210e-01
-7.358307e-01
-1.001861e+00
-1.254670e+00
-1.524490e+00
-1.784829e+00
-2.047273e+00
-2.312381e+00
-2.572696e+00
-2.837944e+00
-3.098309e+00
-3.362131e+00
-3.623631e+00
-3.885742e+00
-4.148263e+00
-4.408997e+00
-4.671698e+00
-4.932087e+00
-5.194158e+00
-5.454571e+00
-5.716096e+00
-5.976221e+00
-6.237603e+00
-6.498440e+00
-6.758135e+00
-7.022130e+00
-7.276679e+00
-7.533844e+00
-7.787680e+00
-7.888623e+00
-7.994433e+00
0.000000e+00
-1.031986e-01
-2.387158e-01
-4.350609e-01
-6.534327e-01
-8.607657e-01
-1.086871e+00
-1.313984e+00
-1.541095e+00
-1.772792e+00
-1.996347e+00
-2.224095e+00
-2.446156e+00
-2.671315e+00
-2.894880e+00
-3.117157e+00
-3.339924e+00
-3.560865e+00
-3.784314e+00
-4.006938e+00
-4.231466e+00
-4.454799e+00
-4.679055e+00
-4.907371e+00
-5.137358e+00
-5.360177e+00
-5.572756e+00
-5.770207e+00
-5.949777e+00
-6.098806e+00
-6.185946e+00
-6.191405e+00
-6.284297e+00
0.000000e+00
-1.024658e-01
-1.860400e-01
-3.407084e-01
-4.636383e-01
-6.187731e-01
-7.956460e-01
-9.652913e-01
-1.158117e+00
-1.336038e+00
-1.521118e+00
-1.703970e+00
-1.886102e+00
-2.071536e+00
-2.255581e+00
-2.441039e+00
-2.626273e+00
-2.813642e+00
-3.003307e+00
-3.194666e+00
-3.388392e+00
-3.581543e+00
-3.775636e+00
-3.970223e+00
-4.156153e+00
-4.330410e+00
-4.480147e+00
-4.612505e+00
-4.713423e+00
-4.776713e+00
-4.791796e+00
-4.809028e+00
-4.889553e+00
0.000000e+00
-9.293275e-02
-1.843800e-01
-2.753371e-01
-3.885996e-01
-5.043844e-01
-6.365755e-01
-7.708733e-01
-9.157308e-01
-1.056991e+00
-1.202974e+00
-1.348575e+00
-1.492282e+00
-1.641128e+00
-1.785132e+00
-1.934312e+00
-2.080980e+00
-2.229987e+00
-2.379813e+00
-2.528574e+00
-2.678671e+00
-2.825042e+00
-2.969266e+00
-3.106591e+00
-3.234914e+00
-3.349030e+00
-3.446129e+00
-3.520241e+00
-3.568783e+00
-3.593125e+00
-3.596447e+00
-3.626331e+00
-3.697870e+00
0.000000e+00
-7.435226e-02
-1.457703e-01
-2.207302e-01
-3.021161e-01
-3.915554e-01
-4.863076e-01
-5.875633e-01
-6.912880e-01
-7.990765e-01
-9.065982e-01
-1.015338e+00
-1.124158e+00
-1.232303e+00
-1.341607e+00
-1.449874e+00
-1.559004e+00
-1.667268e+00
-1.775082e+00
-1.881691e+00
-1.985734e+00
-2.086588e+00
-2.181486e+00
-2.269039e+00
-2.346591e+00
-2.412199e+00
-2.463554e+00
-2.498555e+00
-2.521019e+00
-2.521286e+00
-2.516657e+00
-2.543261e+00
-2.609137e+00
0.000000e+00
-5.123029e-02
-1.019162e-01
-1.537295e-01
-2.091334e-01
-2.684307e-01
-3.318035e-01
-3.981971e-01
-4.673881e-01
-5.380475e-01
-6.097009e-01
-6.814600e-01
-7.530394e-01
-8.244007e-01
-8.952764e-01
-9.659001e-01
-1.035754e+00
-1.104722e+00
-1.172194e+00
-1.237538e+00
-1.299884e+00
-1.357847e+00
-1.410024e+00
-1.454605e+00
-1.490502e+00
-1.515517e+00
-1.529363e+00
-1.534519e+00
-1.518254e+00
-1.488735e+00
-1.477656e+00
-1.501181e+00
-1.565605e+00
0.000000e+00
-2.700353e-02
-5.385603e-02
-8.128327e-02
-1.099958e-01
-1.404476e-01
-1.725250e-01
-2.060761e-01
-2.406723e-01
-2.759798e-01
-3.114602e-01
-3.467660e-01
-3.816081e-01
-4.158187e-01
-4.493534e-01
-4.820424e-01
-5.136863e-01
-5.438835e-01
-5.722772e-01
-5.983598e-01
-6.214272e-01
-6.406184e-01
-6.546865e-01
-6.626905e-01
-6.629974e-01
-6.562229e-01
-6.401728e-01
-6.018292e-01
-5.521513e-01
-5.009326e-01
-4.745989e-01
-4.979398e-01
-5.650196e-01
0.000000e+00
-1.985147e-03
-4.017139e-03
-6.010351e-03
-7.853601e-03
-9.423526e-03
-1.065438e-02
-1.154361e-02
-1.213286e-02
-1.239830e-02
-1.224694e-02
-1.153428e-02
-1.011560e-02
-7.819558e-03
-4.431820e-03
1.678287e-04
6.225424e-03
1.414517e-02
2.402566e-02
3.579264e-02
4.994981e-02
6.689246e-02
8.648703e-02
1.112771e-01
1.419029e-01
1.828985e-01
2.427804e-01
3.147523e-01
3.879644e-01
4.390641e-01
4.548387e-01
4.225799e-01
3.431117e-01
0.000000e+00
2.318138e-02
4.613761e-02
6.974297e-02
9.495089e-02
1.224683e-01
1.523484e-01
1.843456e-01
2.179246e-01
2.526471e-01
2.881504e-01
3.242840e-01
3.610428e-01
3.988295e-01
4.381548e-01
4.793835e-01
5.229632e-01
5.687681e-01
6.166715e-01
6.660803e-01
7.161475e-01
7.676279e-01
8.229268e-01
8.821032e-01
9.497033e-01
1.032888e+00
1.122576e+00
1.213885e+00
1.288134e+00
1.331959e+00
1.329377e+00
1.283924e+00
1.221135e+00
0.000000e+00
4.780736e-02
9.508249e-02
1.435938e-01
1.960321e-01
2.531213e-01
3.150416e-01
3.807171e-01
4.493522e-01
5.196418e-01
5.907366e-01
6.618252e-01
7.329286e-01
8.047338e-01
8.783292e-01
9.553687e-01
1.036262e+00
1.120054e+00
1.205545e+00
1.292429e+00
1.381784e+00
1.471464e+00
1.563733e+00
1.666275e+00
1.775009e+00
1.885851e+00
1.995356e+00
2.084595e+00
2.148799e+00
2.175476e+00
2.167870e+00
2.137841e+00
2.093747e+00
0.000000e+00
7.137824e-02
1.400706e-01
2.127039e-01
2.922412e-01
3.807221e-01
4.758140e-01
5.771401e-01
6.817218e-01
7.895881e-01
8.979647e-01
1.006803e+00
1.115342e+00
1.224205e+00
1.334058e+00
1.444668e+00
1.558730e+00
1.675822e+00
1.795221e+00
1.917882e+00
2.046392e+00
2.182587e+00
2.324692e+00
2.466912e+00
2.605002e+00
2.734126e+00
2.846327e+00
2.935520e+00
2.991332e+00
3.019481e+00
3.022984e+00
3.004949e+00
2.977379e+00
0.000000e+00
9.016245e-02
1.790478e-01
2.689908e-01
3.829190e-01
5.018603e-01
6.345181e-01
7.722699e-01
9.160427e-01
1.059852e+00
1.206478e+00
1.353338e+00
1.500651e+00
1.651996e+00
1.802994e+00
1.958026e+00
2.113834e+00
2.274018e+00
2.439111e+00
2.605411e+00
2.774506e+00
2.946218e+00
3.116244e+00
3.280858e+00
3.434135e+00
3.575018e+00
3.695684e+00
3.786796e+00
3.853463e+00
3.892705e+00
3.905675e+00
3.899160e+00
3.884646e+00
0.000000e+00
9.876931e-02
1.797772e-01
3.319174e-01
4.589734e-01
6.219583e-01
8.041495e-01
9.741049e-01
1.167610e+00
1.345308e+00
1.528763e+00
1.709137e+00
1.892024e+00
2.081586e+00
2.275684e+00
2.476753e+00
2.680294e+00
2.886045e+00
3.096319e+00
3.309505e+00
3.519989e+00
3.724625e+00
3.920823e+00
4.105358e+00
4.280080e+00
4.437620e+00
4.572876e+00
4.679807e+00
4.756403e+00
4.804227e+00
4.826455e+00
4.829279e+00
4.824542e+00
0.000000e+00
1.009304e-01
2.322594e-01
4.209317e-01
6.377932e-01
8.475877e-01
1.078941e+00
1.309727e+00
1.539494e+00
1.774204e+00
1.998249e+00
2.224476e+00
2.446385e+00
2.672752e+00
2.901062e+00
3.132444e+00
3.365846e+00
3.596727e+00
3.828441e+00
4.061052e+00
4.295303e+00
4.524271e+00
4.744988e+00
4.966181e+00
5.176785e+00
5.363093e+00
5.512764e+00
5.627565e+00
5.710095e+00
5.763001e+00
5.790717e+00
5.799779e+00
5.800895e+00
0.000000e+00
2.337381e-01
4.716872e-01
7.364312e-01
1.001850e+00
1.254151e+00
1.523243e+00
1.783852e+00
2.045801e+00
2.310417e+00
2.570339e+00
2.834483e+00
3.093989e+00
3.355915e+00
3.615803e+00
3.875527e+00
4.135465e+00
4.392854e+00
4.650611e+00
4.904686e+00
5.159982e+00
5.413507e+00
5.666831e+00
5.925105e+00
6.168543e+00
6.369328e+00
6.526896e+00
6.643798e+00
6.724060e+00
6.773296e+00
6.798451e+00
6.807561e+00
6.809801e+00
0.000000e+00
4.728467e-01
7.893193e-01
1.134404e+00
1.439218e+00
1.729650e+00
2.037699e+00
2.322668e+00
2.619751e+00
2.910441e+00
3.206088e+00
3.505162e+00
3.802601e+00
4.100161e+00
4.393243e+00
4.684219e+00
4.972406e+00
5.261870e+00
5.552192e+00
5.840283e+00
6.127452e+00
6.416036e+00
6.707386e+00
7.000082e+00
7.265036e+00
7.475875e+00
7.634143e+00
7.743116e+00
7.808037e+00
7.837170e+00
7.842251e+00
7.837619e+00
7.835061e+00
0.000000e+00
-2.790274e-01
-5.889684e-01
-9.851750e-01
-1.416957e+00
-1.886281e+00
-2.396138e+00
-2.936677e+00
-3.512947e+00
-4.120757e+00
-4.762621e+00
-5.440538e+00
-6.154633e+00
-6.907056e+00
-7.696225e+00
-8.524218e+00
-9.390705e+00
-1.029702e+01
-1.124321e+01
-1.222881e+01
-1.325435e+01
-1.431976e+01
-1.542639e+01
-1.657315e+01
-1.775772e+01
-1.898145e+01
-2.024869e+01
-2.156962e+01
-2.295125e+01
-2.441381e+01
-2.597431e+01
-2.778232e+01
-3.032039e+01
0.000000e+00
-1.799972e-01
-5.085288e-01
-8.974208e-01
-1.335955e+00
-1.801862e+00
-2.311613e+00
-2.854184e+00
-3.428726e+00
-4.037637e+00
-4.678429e+00
-5.356756e+00
-6.070536e+00
-6.823127e+00
-7.612354e+00
-8.439987e+00
-9.306711e+00
-1.021272e+01
-1.115920e+01
-1.214468e+01
-1.317029e+01
-1.423542e+01
-1.534213e+01
-1.648957e+01
-1.767403e+01
-1.889725e+01
-2.016297e+01
-2.148229e+01
-2.286528e+01
-2.431894e+01
-2.589879e+01
-2.769392e+01
-2.994519e+01
0.000000e+00
-1.589456e-01
-4.495498e-01
-8.409051e-01
-1.269329e+00
-1.732967e+00
-2.240768e+00
-2.781185e+00
-3.356959e+00
-3.964789e+00
-4.606549e+00
-5.285022e+00
-5.999066e+00
-6.751702e+00
-7.541550e+00
-8.369241e+00
-9.236288e+00
-1.014221e+01
-1.108848e+01
-1.207392e+01
-1.309945e+01
-1.416420e+01
-1.526958e+01
-1.641621e+01
-1.760160e+01
-1.882760e+01
-2.009520e+01
-2.141961e+01
-2.280646e+01
-2.428060e+01
-2.590328e+01
-2.758804e+01
-2.933653e+01
0.000000e+00
-2.040499e-01
-4.495924e-01
-8.372539e-01
-1.234402e+00
-1.687288e+00
-2.193511e+00
-2.721179e+00
-3.303071e+00
-3.905314e+00
-4.549883e+00
-5.228584e+00
-5.941393e+00
-6.696194e+00
-7.484448e+00
-8.314210e+00
-9.180221e+00
-1.008632e+01
-1.103236e+01
-1.201679e+01
-1.304311e+01
-1.410687e+01
-1.521135e+01
-1.635779e+01
-1.754529e+01
-1.877746e+01
-2.005115e+01
-2.138281e+01
-2.277849e+01
-2.427202e+01
-2.588757e+01
-2.743720e+01
-2.883631e+01
0.000000e+00
-2.202936e-01
-4.881257e-01
-8.327569e-01
-1.232273e+00
-1.667682e+00
-2.164408e+00
-2.686354e+00
-3.263236e+00
-3.865351e+00
-4.508879e+00
-5.189239e+00
-5.900879e+00
-6.657814e+00
-7.444757e+00
-8.275975e+00
-9.141525e+00
-1.004743e+01
-1.099358e+01
-1.197726e+01
-1.300401e+01
-1.406784e+01
-1.517355e+01
-1.632093e+01
-1.751193e+01
-1.874737e+01
-2.002917e+01
-2.136450e+01
-2.276276e+01
-2.425176e+01
-2.578760e+01
-2.723614e+01
-2.850218e+01
0.000000e+00
-2.272632e-01
-5.045043e-01
-8.387003e-01
-1.225994e+00
-1.660835e+00
-2.142845e+00
-2.667119e+00
-3.233789e+00
-3.838409e+00
-4.480246e+00
-5.159782e+00
-5.875115e+00
-6.628890e+00
-7.419649e+00
-8.248671e+00
-9.116104e+00
-1.002225e+01
-1.096838e+01
-1.195414e+01
-1.298060e+01
-1.404734e+01
-1.515511e+01
-1.630517e+01
-1.749838e+01
-1.873565e+01
-2.001992e+01
-2.135477e+01
-2.274220e+01
-2.419092e+01
-2.563236e+01
-2.700062e+01
-2.820485e+01
0.000000e+00
-2.309612e-01
-5.107050e-01
-8.419176e-01
-1.224025e+00
-1.654803e+00
-2.132106e+00
-2.653609e+00
-3.217251e+00
-3.820757e+00
-4.462730e+00
-5.142207e+00
-5.858926e+00
-6.612939e+00
-7.404504e+00
-8.234071e+00
-9.102145e+00
-1.000945e+01
-1.095656e+01
-1.194405e+01
-1.297228e+01
-1.404153e+01
-1.515217e+01
-1.630447e+01
-1.749908e+01
-1.873656e+01
-2.001690e+01
-2.134818e+01
-2.270375e+01
-2.410122e+01
-2.547715e+01
-2.677757e+01
-2.791934e+01
0.000000e+00
-2.323601e-01
-5.130262e-01
-8.433707e-01
-1.223450e+00
-1.652067e+00
-2.127414e+00
-2.647423e+00
-3.210022e+00
-3.813270e+00
-4.455574e+00
-5.135853e+00
-5.853480e+00
-6.608331e+00
-7.400599e+00
-8.230840e+00
-9.099808e+00
-1.000821e+01
-1.095671e+01
-1.194586e+01
-1.297612e+01
-1.404773e+01
-1.516062e+01
-1.631479e+01
-1.750866e+01
-1.874584e+01
-2.001849e+01
-2.133055e+01
-2.265156e+01
-2.399603e+01
-2.532556e+01
-2.656836e+01
-2.765436e+01
0.000000e+00
-2.326492e-01
-5.136203e-01
-8.439939e-01
-1.223925e+00
-1.652464e+00
-2.127894e+00
-2.648173e+00
-3.211260e+00
-3.815284e+00
-4.458649e+00
-5.140097e+00
-5.858858e+00
-6.614679e+00
-7.407714e+00
-8.238602e+00
-9.108479e+00
-1.001807e+01
-1.096774e+01
-1.195824e+01
-1.299019e+01
-1.406322e+01
-1.517747e+01
-1.633213e+01
-1.752533e+01
-1.875700e+01
-2.001533e+01
-2.129832e+01
-2.259501e+01
-2.388874e+01
-2.515911e+01
-2.632677e+01
-2.731930e+01
0.000000e+00
-2.321949e-01
-5.130787e-01
-8.441126e-01
-1.225474e+00
-1.655935e+00
-2.133454e+00
-2.655750e+00
-3.220708e+00
-3.826516e+00
-4.471602e+00
-5.154583e+00
-5.874588e+00
-6.631540e+00
-7.425501e+00
-8.256870e+00
-9.127835e+00
-1.003872e+01
-1.098935e+01
-1.198002e+01
-1.301328e+01
-1.408649e+01
-1.519910e+01
-1.635550e+01
-1.754153e+01
-1.876136e+01
-2.000246e+01
-2.126265e+01
-2.253010e+01
-2.378671e+01
-2.499186e+01
-2.609288e+01
-2.705184e+01
0.000000e+00
-2.307161e-01
-5.108726e-01
-8.433938e-01
-1.228119e+00
-1.662746e+00
-2.144518e+00
-2.670548e+00
-3.238676e+00
-3.847043e+00
-4.494290e+00
-5.178812e+00
-5.899823e+00
-6.658086e+00
-7.453050e+00
-8.285490e+00
-9.157870e+00
-1.007010e+01
-1.102162e+01
-1.201137e+01
-1.304387e+01
-1.411507e+01
-1.522554e+01
-1.637553e+01
-1.755285e+01
-1.875744e+01
-1.998724e+01
-2.122538e+01
-2.246717e+01
-2.368289e+01
-2.484231e+01
-2.591134e+01
-2.685967e+01
0.000000e+00
-2.270522e-01
-5.049405e-01
-8.409481e-01
-1.232145e+00
-1.673536e+00
-2.162242e+00
-2.693370e+00
-3.266150e+00
-3.877591e+00
-4.526832e+00
-5.212668e+00
-5.933890e+00
-6.693184e+00
-7.489283e+00
-8.323959e+00
-9.198175e+00
-1.011140e+01
-1.106293e+01
-1.205158e+01
-1.307971e+01
-1.414683e+01
-1.525156e+01
-1.639158e+01
-1.755960e+01
-1.875470e+01
-1.997256e+01
-2.119775e+01
-2.241263e+01
-2.359903e+01
-2.472904e+01
-2.578209e+01
-2.673439e+01
0.000000e+00
-2.199790e-01
-4.889123e-01
-8.361600e-01
-1.240470e+00
-1.687147e+00
-2.190898e+00
-2.723733e+00
-3.305619e+00
-3.917859e+00
-4.569446e+00
-5.256263e+00
-5.976619e+00
-6.738687e+00
-7.535050e+00
-8.373329e+00
-9.248518e+00
-1.016081e+01
-1.111075e+01
-1.209607e+01
-1.311931e+01
-1.418061e+01
-1.527736e+01
-1.640799e+01
-1.756880e+01
-1.876015e+01
-1.997223e+01
-2.118267e+01
-2.237766e+01
-2.353882e+01
-2.465021e+01
-2.569629e+01
-2.666332e+01
0.000000e+00
-2.027711e-01
-4.502182e-01
-8.415125e-01
-1.247375e+00
-1.712910e+00
-2.230299e+00
-2.766638e+00
-3.356370e+00
-3.967961e+00
-4.620677e+00
-5.306791e+00
-6.029568e+00
-6.793432e+00
-7.593216e+00
-8.433024e+00
-9.308202e+00
-1.021868e+01
-1.116522e+01
-1.214670e+01
-1.316466e+01
-1.421874e+01
-1.530675e+01
-1.643018e+01
-1.759223e+01
-1.878356e+01
-1.998854e+01
-2.118382e+01
-2.235989e+01
-2.350268e+01
-2.460057e+01
-2.564526e+01
-2.663257e+01
0.000000e+00
-1.561305e-01
-4.481545e-01
-8.445619e-01
-1.284818e+00
-1.761967e+00
-2.282090e+00
-2.831344e+00
-3.415710e+00
-4.031296e+00
-4.680249e+00
-5.366983e+00
-6.091539e+00
-6.856441e+00
-7.659249e+00
-8.498786e+00
-9.373679e+00
-1.028234e+01
-1.122685e+01
-1.220563e+01
-1.321915e+01
-1.426677e+01
-1.534764e+01
-1.647209e+01
-1.763665e+01
-1.882517e+01
-2.001606e+01
-2.119781e+01
-2.235844e+01
-2.348700e+01
-2.457494e+01
-2.561969e+01
-2.662737e+01
0.000000e+00
-1.766611e-01
-5.061763e-01
-9.013235e-01
-1.352202e+00
-1.832221e+00
-2.353966e+00
-2.906193e+00
-3.488927e+00
-4.105229e+00
-4.752654e+00
-5.439396e+00
-6.164080e+00
-6.929560e+00
-7.732698e+00
-8.572185e+00
-9.446044e+00
-1.035327e+01
-1.129664e+01
-1.227405e+01
-1.328579e+01
-1.433029e+01
-1.541167e+01
-1.653723e+01
-1.769837e+01
-1.887450e+01
-2.005221e+01
-2.122086e+01
-2.236902e+01
-2.348647e+01
-2.456663e+01
-2.561048e+01
-2.663206e+01
0.000000e+00
-2.764917e-01
-5.877095e-01
-9.898976e-01
-1.433396e+00
-1.916149e+00
-2.438076e+00
-2.988461e+00
-3.572883e+00
-4.188003e+00
-4.836780e+00
-5.523184e+00
-6.247867e+00
-7.012928e+00
-7.815302e+00
-8.654373e+00
-9.527359e+00
-1.043456e+01
-1.137702e+01
-1.235394e+01
-1.336523e+01
-1.440998e+01