TITLE = "Solution"
VARIABLES = x, y, u, v, psiu, psiv, t, stress
ZONE T="structure" N=561 E=512 F=FEBLOCK ET=QUADRILATERAL VARLOCATION=([7,8]=cellcentered)
0.000000e+00
6.250000e+00
1.250000e+01
1.875000e+01
2.500000e+01
3.125000e+01
3.750000e+01
4.375000e+01
5.000000e+01
5.625000e+01
6.250000e+01
6.875000e+01
7.500000e+01
8.125000e+01
8.750000e+01
9.375000e+01
1.000000e+02
1.062500e+02
1.125000e+02
1.187500e+02
1.250000e+02
1.312500e+02
1.375000e+02
1.437500e+02
1.500000e+02
1.562500e+02
1.625000e+02
1.687500e+02
1.750000e+02
1.812500e+02
1.875000e+02
1.937500e+02
2.000000e+02
0.000000e+00
6.250000e+00
1.250000e+01
1.875000e+01
2.500000e+01
3.125000e+01
3.750000e+01
4.375000e+01
5.000000e+01
5.625000e+01
6.250000e+01
6.875000e+01
7.500000e+01
8.125000e+01
8.750000e+01
9.375000e+01
1.000000e+02
1.062500e+02
1.125000e+02
1.187500e+02
1.250000e+02
1.312500e+02
1.375000e+02
1.437500e+02
1.500000e+02
1.562500e+02
1.625000e+02
1.687500e+02
1.750000e+02
1.812500e+02
1.875000e+02
1.937500e+02
2.000000e+02
0.000000e+00
6.250000e+00
1.250000e+01
1.875000e+01
2.500000e+01
3.125000e+01
3.750000e+01
4.375000e+01
5.000000e+01
5.625000e+01
6.250000e+01
6.875000e+01
7.500000e+01
8.125000e+01
8.750000e+01
9.375000e+01
1.000000e+02
1.062500e+02
1.125000e+02
1.187500e+02
1.250000e+02
1.312500e+02
1.375000e+02
1.437500e+02
1.500000e+02
1.562500e+02
1.625000e+02
1.687500e+02
1.750000e+02
1.812500e+02
1.875000e+02
1.937500e+02
2.000000e+02
0.000000e+00
6.250000e+00
1.250000e+01
1.875000e+01
2.500000e+01
3.125000e+01
3.750000e+01
4.375000e+01
5.000000e+01
5.625000e+01
6.250000e+01
6.875000e+01
7.500000e+01
8.125000e+01
8.750000e+01
9.375000e+01
1.000000e+02
1.062500e+02
1.125000e+02
1.187500e+02
1.250000e+02
1.312500e+02
1.375000e+02
1.437500e+02
1.500000e+02
1.562500e+02
1.625000e+02
1.687500e+02
1.750000e+02
1.812500e+02
1.875000e+02
1.937500e+02
2.000000e+02
0.000000e+00
6.250000e+00
1.250000e+01
1.875000e+01
2.500000e+01
3.125000e+01
3.750000e+01
4.375000e+01
5.000000e+01
5.625000e+01
6.250000e+01
6.875000e+01
7.500000e+01
8.125000e+01
8.750000e+01
9.375000e+01
1.000000e+02
1.062500e+02
1.125000e+02
1.187500e+02
1.250000e+02
1.312500e+02
1.375000e+02
1.437500e+02
1.500000e+02
1.562500e+02
1.625000e+02
1.687500e+02
1.750000e+02
1.812500e+02
1.875000e+02
1.937500e+02
2.000000e+02
0.000000e+00
6.250000e+00
1.250000e+01
1.875000e+01
2.500000e+01
3.125000e+01
3.750000e+01
4.375000e+01
5.000000e+01
5.625000e+01
6.250000e+01
6.875000e+01
7.500000e+01
8.125000e+01
8.750000e+01
9.375000e+01
1.000000e+02
1.062500e+02
1.125000e+02
1.187500e+02
1.250000e+02
1.312500e+02
1.375000e+02
1.437500e+02
1.500000e+02
1.562500e+02
1.625000e+02
1.687500e+02
1.750000e+02
1.812500e+02
1.875000e+02
1.937500e+02
2.000000e+02
0.000000e+00
6.250000e+00
1.250000e+01
1.875000e+01
2.500000e+01
3.125000e+01
3.750000e+01
4.375000e+01
5.000000e+01
5.625000e+01
6.250000e+01
6.875000e+01
7.500000e+01
8.125000e+01
8.750000e+01
9.375000e+01
1.000000e+02
1.062500e+02
1.125000e+02
1.187500e+02
1.250000e+02
1.312500e+02
1.375000e+02
1.437500e+02
1.500000e+02
1.562500e+02
1.625000e+02
1.687500e+02
1.750000e+02
1.812500e+02
1.875000e+02
1.937500e+02
2.000000e+02
0.000000e+00
6.250000e+00
1.250000e+01
1.875000e+01
2.500000e+01
3.125000e+01
3.750000e+01
4.375000e+01
5.000000e+01
5.625000e+01
6.250000e+01
6.875000e+01
7.500000e+01
8.125000e+01
8.750000e+01
9.375000e+01
1.000000e+02
1.062500e+02
1.125000e+02
1.187500e+02
1.250000e+02
1.312500e+02
1.375000e+02
1.437500e+02
1.500000e+02
1.562500e+02
1.625000e+02
1.687500e+02
1.750000e+02
1.812500e+02
1.875000e+02
1.937500e+02
2.000000e+02
0.000000e+00
6.250000e+00
1.250000e+01
1.875000e+01
2.500000e+01
3.125000e+01
3.750000e+01
4.375000e+01
5.000000e+01
5.625000e+01
6.250000e+01
6.875000e+01
7.500000e+01
8.125000e+01
8.750000e+01
9.375000e+01
1.000000e+02
1.062500e+02
1.125000e+02
1.187500e+02
1.250000e+02
1.312500e+02
1.375000e+02
1.437500e+02
1.500000e+02
1.562500e+02
1.625000e+02
1.687500e+02
1.750000e+02
1.812500e+02
1.875000e+02
1.937500e+02
2.000000e+02
0.000000e+00
6.250000e+00
1.250000e+01
1.875000e+01
2.500000e+01
3.125000e+01
3.750000e+01
4.375000e+01
5.000000e+01
5.625000e+01
6.250000e+01
6.875000e+01
7.500000e+01
8.125000e+01
8.750000e+01
9.375000e+01
1.000000e+02
1.062500e+02
1.125000e+02
1.187500e+02
1.250000e+02
1.312500e+02
1.375000e+02
1.437500e+02
1.500000e+02
1.562500e+02
1.625000e+02
1.687500e+02
1.750000e+02
1.812500e+02
1.875000e+02
1.937500e+02
2.000000e+02
0.000000e+00
6.250000e+00
1.250000e+01
1.875000e+01
2.500000e+01
3.125000e+01
3.750000e+01
4.375000e+01
5.000000e+01
5.625000e+01
6.250000e+01
6.875000e+01
7.500000e+01
8.125000e+01
8.750000e+01
9.375000e+01
1.000000e+02
1.062500e+02
1.125000e+02
1.187500e+02
1.250000e+02
1.312500e+02
1.375000e+02
1.437500e+02
1.500000e+02
1.562500e+02
1.625000e+02
1.687500e+02
1.750000e+02
1.812500e+02
1.875000e+02
1.937500e+02
2.000000e+02
0.000000e+00
6.250000e+00
1.250000e+01
1.875000e+01
2.500000e+01
3.125000e+01
3.750000e+01
4.375000e+01
5.000000e+01
5.625000e+01
6.250000e+01
6.875000e+01
7.500000e+01
8.125000e+01
8.750000e+01
9.375000e+01
1.000000e+02
1.062500e+02
1.125000e+02
1.187500e+02
1.250000e+02
1.312500e+02
1.375000e+02
1.437500e+02
1.500000e+02
1.562500e+02
1.625000e+02
1.687500e+02
1.750000e+02
1.812500e+02
1.875000e+02
1.937500e+02
2.000000e+02
0.000000e+00
6.250000e+00
1.250000e+01
1.875000e+01
2.500000e+01
3.125000e+01
3.750000e+01
4.375000e+01
5.000000e+01
5.625000e+01
6.250000e+01
6.875000e+01
7.500000e+01
8.125000e+01
8.750000e+01
9.375000e+01
1.000000e+02
1.062500e+02
1.125000e+02
1.187500e+02
1.250000e+02
1.312500e+02
1.375000e+02
1.437500e+02
1.500000e+02
1.562500e+02
1.625000e+02
1.687500e+02
1.750000e+02
1.812500e+02
1.875000e+02
1.937500e+02
2.000000e+02
0.000000e+00
6.250000e+00
1.250000e+01
1.875000e+01
2.500000e+01
3.125000e+01
3.750000e+01
4.375000e+01
5.000000e+01
5.625000e+01
6.250000e+01
6.875000e+01
7.500000e+01
8.125000e+01
8.750000e+01
9.375000e+01
1.000000e+02
1.062500e+02
1.125000e+02
1.187500e+02
1.250000e+02
1.312500e+02
1.375000e+02
1.437500e+02
1.500000e+02
1.562500e+02
1.625000e+02
1.687500e+02
1.750000e+02
1.812500e+02
1.875000e+02
1.937500e+02
2.000000e+02
0.000000e+00
6.250000e+00
1.250000e+01
1.875000e+01
2.500000e+01
3.125000e+01
3.750000e+01
4.375000e+01
5.000000e+01
5.625000e+01
6.250000e+01
6.875000e+01
7.500000e+01
8.125000e+01
8.750000e+01
9.375000e+01
1.000000e+02
1.062500e+02
1.125000e+02
1.187500e+02
1.250000e+02
1.312500e+02
1.375000e+02
1.437500e+02
1.500000e+02
1.562500e+02
1.625000e+02
1.687500e+02
1.750000e+02
1.812500e+02
1.875000e+02
1.937500e+02
2.000000e+02
0.000000e+00
6.250000e+00
1.250000e+01
1.875000e+01
2.500000e+01
3.125000e+01
3.750000e+01
4.375000e+01
5.000000e+01
5.625000e+01
6.250000e+01
6.875000e+01
7.500000e+01
8.125000e+01
8.750000e+01
9.375000e+01
1.000000e+02
1.062500e+02
1.125000e+02
1.187500e+02
1.250000e+02
1.312500e+02
1.375000e+02
1.437500e+02
1.500000e+02
1.562500e+02
1.625000e+02
1.687500e+02
1.750000e+02
1.812500e+02
1.875000e+02
1.937500e+02
2.000000e+02
0.000000e+00
6.250000e+00
1.250000e+01
1.875000e+01
2.500000e+01
3.125000e+01
3.750000e+01
4.375000e+01
5.000000e+01
5.625000e+01
6.250000e+01
6.875000e+01
7.500000e+01
8.125000e+01
8.750000e+01
9.375000e+01
1.000000e+02
1.062500e+02
1.125000e+02
1.187500e+02
1.250000e+02
1.312500e+02
1.375000e+02
1.437500e+02
1.500000e+02
1.562500e+02
1.625000e+02
1.687500e+02
1.750000e+02
1.812500e+02
1.875000e+02
1.937500e+02
2.000000e+02
0.000000e+00
0.000000e+00
0.000000e+00
0.000000e+00
0.000000e+00
0.000000e+00
0.000000e+00
0.000000e+00
0.000000e+00
0.000000e+00
0.000000e+00
0.000000e+00
0.000000e+00
0.000000e+00
0.000000e+00
0.000000e+00
0.000000e+00
0.000000e+00
0.000000e+00
0.000000e+00
0.000000e+00
0.000000e+00
0.000000e+00
0.000000e+00
0.000000e+00
0.000000e+00
0.000000e+00
0.000000e+00
0.000000e+00
0.000000e+00
0.000000e+00
0.000000e+00
0.000000e+00
6.250000e+00
6.250000e+00
6.250000e+00
6.250000e+00
6.250000e+00
6.250000e+00
6.250000e+00
6.250000e+00
6.250000e+00
6.250000e+00
6.250000e+00
6.250000e+00
6.250000e+00
6.250000e+00
6.250000e+00
6.250000e+00
6.250000e+00
6.250000e+00
6.250000e+00
6.250000e+00
6.250000e+00
6.250000e+00
6.250000e+00
6.250000e+00
6.250000e+00
6.250000e+00
6.250000e+00
6.250000e+00
6.250000e+00
6.250000e+00
6.250000e+00
6.250000e+00
6.250000e+00
1.250000e+01
1.250000e+01
1.250000e+01
1.250000e+01
1.250000e+01
1.250000e+01
1.250000e+01
1.250000e+01
1.250000e+01
1.250000e+01
1.250000e+01
1.250000e+01
1.250000e+01
1.250000e+01
1.250000e+01
1.250000e+01
1.250000e+01
1.250000e+01
1.250000e+01
1.250000e+01
1.250000e+01
1.250000e+01
1.250000e+01
1.250000e+01
1.250000e+01
1.250000e+01
1.250000e+01
1.250000e+01
1.250000e+01
1.250000e+01
1.250000e+01
1.250000e+01
1.250000e+01
1.875000e+01
1.875000e+01
1.875000e+01
1.875000e+01
1.875000e+01
1.875000e+01
1.875000e+01
1.875000e+01
1.875000e+01
1.875000e+01
1.875000e+01
1.875000e+01
1.875000e+01
1.875000e+01
1.875000e+01
1.875000e+01
1.875000e+01
1.875000e+01
1.875000e+01
1.875000e+01
1.875000e+01
1.875000e+01
1.875000e+01
1.875000e+01
1.875000e+01
1.875000e+01
1.875000e+01
1.875000e+01
1.875000e+01
1.875000e+01
1.875000e+01
1.875000e+01
1.875000e+01
2.500000e+01
2.500000e+01
2.500000e+01
2.500000e+01
2.500000e+01
2.500000e+01
2.500000e+01
2.500000e+01
2.500000e+01
2.500000e+01
2.500000e+01
2.500000e+01
2.500000e+01
2.500000e+01
2.500000e+01
2.500000e+01
2.500000e+01
2.500000e+01
2.500000e+01
2.500000e+01
2.500000e+01
2.500000e+01
2.500000e+01
2.500000e+01
2.500000e+01
2.500000e+01
2.500000e+01
2.500000e+01
2.500000e+01
2.500000e+01
2.500000e+01
2.500000e+01
2.500000e+01
3.125000e+01
3.125000e+01
3.125000e+01
3.125000e+01
3.125000e+01
3.125000e+01
3.125000e+01
3.125000e+01
3.125000e+01
3.125000e+01
3.125000e+01
3.125000e+01
3.125000e+01
3.125000e+01
3.125000e+01
3.125000e+01
3.125000e+01
3.125000e+01
3.125000e+01
3.125000e+01
3.125000e+01
3.125000e+01
3.125000e+01
3.125000e+01
3.125000e+01
3.125000e+01
3.125000e+01
3.125000e+01
3.125000e+01
3.125000e+01
3.125000e+01
3.125000e+01
3.125000e+01
3.750000e+01
3.750000e+01
3.750000e+01
3.750000e+01
3.750000e+01
3.750000e+01
3.750000e+01
3.750000e+01
3.750000e+01
3.750000e+01
3.750000e+01
3.750000e+01
3.750000e+01
3.750000e+01
3.750000e+01
3.750000e+01
3.750000e+01
3.750000e+01
3.750000e+01
3.750000e+01
3.750000e+01
3.750000e+01
3.750000e+01
3.750000e+01
3.750000e+01
3.750000e+01
3.750000e+01
3.750000e+01
3.750000e+01
3.750000e+01
3.750000e+01
3.750000e+01
3.750000e+01
4.375000e+01
4.375000e+01
4.375000e+01
4.375000e+01
4.375000e+01
4.375000e+01
4.375000e+01
4.375000e+01
4.375000e+01
4.375000e+01
4.375000e+01
4.375000e+01
4.375000e+01
4.375000e+01
4.375000e+01
4.375000e+01
4.375000e+01
4.375000e+01
4.375000e+01
4.375000e+01
4.375000e+01
4.375000e+01
4.375000e+01
4.375000e+01
4.375000e+01
4.375000e+01
4.375000e+01
4.375000e+01
4.375000e+01
4.375000e+01
4.375000e+01
4.375000e+01
4.375000e+01
5.000000e+01
5.000000e+01
5.000000e+01
5.000000e+01
5.000000e+01
5.000000e+01
5.000000e+01
5.000000e+01
5.000000e+01
5.000000e+01
5.000000e+01
5.000000e+01
5.000000e+01
5.000000e+01
5.000000e+01
5.000000e+01
5.000000e+01
5.000000e+01
5.000000e+01
5.000000e+01
5.000000e+01
5.000000e+01
5.000000e+01
5.000000e+01
5.000000e+01
5.000000e+01
5.000000e+01
5.000000e+01
5.000000e+01
5.000000e+01
5.000000e+01
5.000000e+01
5.000000e+01
5.625000e+01
5.625000e+01
5.625000e+01
5.625000e+01
5.625000e+01
5.625000e+01
5.625000e+01
5.625000e+01
5.625000e+01
5.625000e+01
5.625000e+01
5.625000e+01
5.625000e+01
5.625000e+01
5.625000e+01
5.625000e+01
5.625000e+01
5.625000e+01
5.625000e+01
5.625000e+01
5.625000e+01
5.625000e+01
5.625000e+01
5.625000e+01
5.625000e+01
5.625000e+01
5.625000e+01
5.625000e+01
5.625000e+01
5.625000e+01
5.625000e+01
5.625000e+01
5.625000e+01
6.250000e+01
6.250000e+01
6.250000e+01
6.250000e+01
6.250000e+01
6.250000e+01
6.250000e+01
6.250000e+01
6.250000e+01
6.250000e+01
6.250000e+01
6.250000e+01
6.250000e+01
6.250000e+01
6.250000e+01
6.250000e+01
6.250000e+01
6.250000e+01
6.250000e+01
6.250000e+01
6.250000e+01
6.250000e+01
6.250000e+01
6.250000e+01
6.250000e+01
6.250000e+01
6.250000e+01
6.250000e+01
6.250000e+01
6.250000e+01
6.250000e+01
6.250000e+01
6.250000e+01
6.875000e+01
6.875000e+01
6.875000e+01
6.875000e+01
6.875000e+01
6.875000e+01
6.875000e+01
6.875000e+01
6.875000e+01
6.875000e+01
6.875000e+01
6.875000e+01
6.875000e+01
6.875000e+01
6.875000e+01
6.875000e+01
6.875000e+01
6.875000e+01
6.875000e+01
6.875000e+01
6.875000e+01
6.875000e+01
6.875000e+01
6.875000e+01
6.875000e+01
6.875000e+01
6.875000e+01
6.875000e+01
6.875000e+01
6.875000e+01
6.875000e+01
6.875000e+01
6.875000e+01
7.500000e+01
7.500000e+01
7.500000e+01
7.500000e+01
7.500000e+01
7.500000e+01
7.500000e+01
7.500000e+01
7.500000e+01
7.500000e+01
7.500000e+01
7.500000e+01
7.500000e+01
7.500000e+01
7.500000e+01
7.500000e+01
7.500000e+01
7.500000e+01
7.500000e+01
7.500000e+01
7.500000e+01
7.500000e+01
7.500000e+01
7.500000e+01
7.500000e+01
7.500000e+01
7.500000e+01
7.500000e+01
7.500000e+01
7.500000e+01
7.500000e+01
7.500000e+01
7.500000e+01
8.125000e+01
8.125000e+01
8.125000e+01
8.125000e+01
8.125000e+01
8.125000e+01
8.125000e+01
8.125000e+01
8.125000e+01
8.125000e+01
8.125000e+01
8.125000e+01
8.125000e+01
8.125000e+01
8.125000e+01
8.125000e+01
8.125000e+01
8.125000e+01
8.125000e+01
8.125000e+01
8.125000e+01
8.125000e+01
8.125000e+01
8.125000e+01
8.125000e+01
8.125000e+01
8.125000e+01
8.125000e+01
8.125000e+01
8.125000e+01
8.125000e+01
8.125000e+01
8.125000e+01
8.750000e+01
8.750000e+01
8.750000e+01
8.750000e+01
8.750000e+01
8.750000e+01
8.750000e+01
8.750000e+01
8.750000e+01
8.750000e+01
8.750000e+01
8.750000e+01
8.750000e+01
8.750000e+01
8.750000e+01
8.750000e+01
8.750000e+01
8.750000e+01
8.750000e+01
8.750000e+01
8.750000e+01
8.750000e+01
8.750000e+01
8.750000e+01
8.750000e+01
8.750000e+01
8.750000e+01
8.750000e+01
8.750000e+01
8.750000e+01
8.750000e+01
8.750000e+01
8.750000e+01
9.375000e+01
9.375000e+01
9.375000e+01
9.375000e+01
9.375000e+01
9.375000e+01
9.375000e+01
9.375000e+01
9.375000e+01
9.375000e+01
9.375000e+01
9.375000e+01
9.375000e+01
9.375000e+01
9.375000e+01
9.375000e+01
9.375000e+01
9.375000e+01
9.375000e+01
9.375000e+01
9.375000e+01
9.375000e+01
9.375000e+01
9.375000e+01
9.375000e+01
9.375000e+01
9.375000e+01
9.375000e+01
9.375000e+01
9.375000e+01
9.375000e+01
9.375000e+01
9.375000e+01
1.000000e+02
1.000000e+02
1.000000e+02
1.000000e+02
1.000000e+02
1.000000e+02
1.000000e+02
1.000000e+02
1.000000e+02
1.000000e+02
1.000000e+02
1.000000e+02
1.000000e+02
1.000000e+02
1.000000e+02
1.000000e+02
1.000000e+02
1.000000e+02
1.000000e+02
1.000000e+02
1.000000e+02
1.000000e+02
1.000000e+02
1.000000e+02
1.000000e+02
1.000000e+02
1.000000e+02
1.000000e+02
1.000000e+02
1.000000e+02
1.000000e+02
1.000000e+02
1.000000e+02
0.000000e+00
-4.723753e-01
-7.827818e-01
-1.122815e+00
-1.424428e+00
-1.716320e+00
-2.028327e+00
-2.315569e+00
-2.615228e+00
-2.908816e+00
-3.205831e+00
-3.505055e+00
-3.804473e+00
-4.103984e+00
-4.404175e+00
-4.705033e+00
-5.007828e+00
-5.311275e+00
-5.613866e+00
-5.916430e+00
-6.218516e+00
-6.520406e+00
-6.822682e+00
-7.119973e+00
-7.413261e+00
-7.718201e+00
-8.017365e+00
-8.348538e+00
-8.667403e+00
-9.020633e+00
-9.509930e+00
-9.926359e+00
-1.013045e+01
0.000000e+00
-2.335538e-01
-4.702144e-01
-7.357545e-01
-1.001728e+00
-1.254451e+00
-1.524357e+00
-1.784628e+00
-2.047163e+00
-2.312137e+00
-2.572672e+00
-2.837753e+00
-3.098170e+00
-3.362074e+00
-3.623407e+00
-3.885703e+00
-4.148232e+00
-4.408726e+00
-4.671824e+00
-4.931672e+00
-5.194186e+00
-5.454337e+00
-5.715900e+00
-5.976163e+00
-6.237284e+00
-6.498436e+00
-6.757820e+00
-7.022080e+00
-7.276334e+00
-7.533151e+00
-7.787707e+00
-7.888890e+00
-7.994707e+00
0.000000e+00
-1.027634e-01
-2.376341e-01
-4.341774e-01
-6.529469e-01
-8.602169e-01
-1.085975e+00
-1.313623e+00
-1.540993e+00
-1.772655e+00
-1.996712e+00
-2.223729e+00
-2.445976e+00
-2.671192e+00
-2.894873e+00
-3.117543e+00
-3.339904e+00
-3.560081e+00
-3.783723e+00
-4.005725e+00
-4.230781e+00
-4.454024e+00
-4.678454e+00
-4.907822e+00
-5.137825e+00
-5.360849e+00
-5.573072e+00
-5.770422e+00
-5.949949e+00
-6.098908e+00
-6.186629e+00
-6.192273e+00
-6.285157e+00
0.000000e+00
-1.024712e-01
-1.858774e-01
-3.413995e-01
-4.644153e-01
-6.189011e-01
-7.959895e-01
-9.656147e-01
-1.159134e+00
-1.336733e+00
-1.521742e+00
-1.704358e+00
-1.886044e+00
-2.071968e+00
-2.255947e+00
-2.441520e+00
-2.626299e+00
-2.812937e+00
-3.002723e+00
-3.194103e+00
-3.388242e+00
-3.581829e+00
-3.776464e+00
-3.971792e+00
-4.157812e+00
-4.331753e+00
-4.481051e+00
-4.613320e+00
-4.714157e+00
-4.777661e+00
-4.792801e+00
-4.810175e+00
-4.890614e+00
0.000000e+00
-9.307009e-02
-1.846723e-01
-2.756693e-01
-3.892643e-01
-5.049717e-01
-6.372027e-01
-7.716181e-01
-9.166796e-01
-1.057654e+00
-1.203895e+00
-1.349245e+00
-1.492579e+00
-1.642278e+00
-1.785020e+00
-1.935449e+00
-2.080803e+00
-2.230224e+00
-2.379936e+00
-2.528377e+00
-2.679219e+00
-2.825324e+00
-2.970160e+00
-3.107558e+00
-3.236006e+00
-3.350064e+00
-3.447001e+00
-3.520974e+00
-3.569524e+00
-3.593995e+00
-3.597428e+00
-3.627169e+00
-3.698524e+00
0.000000e+00
-7.446703e-02
-1.459697e-01
-2.210037e-01
-3.024948e-01
-3.920903e-01
-4.868918e-01
-5.881677e-01
-6.919315e-01
-7.998067e-01
-9.072511e-01
-1.016069e+00
-1.124828e+00
-1.232822e+00
-1.342288e+00
-1.450227e+00
-1.559599e+00
-1.667585e+00
-1.775407e+00
-1.882015e+00
-1.985986e+00
-2.087037e+00
-2.181916e+00
-2.269606e+00
-2.347234e+00
-2.412907e+00
-2.464255e+00
-2.499101e+00
-2.521717e+00
-2.522144e+00
-2.517380e+00
-2.543790e+00
-2.609620e+00
0.000000e+00
-5.130139e-02
-1.020505e-01
-1.539241e-01
-2.094144e-01
-2.687979e-01
-3.322322e-01
-3.986581e-01
-4.678966e-01
-5.385925e-01
-6.102922e-01
-6.820648e-01
-7.536186e-01
-8.249713e-01
-8.957856e-01
-9.664411e-01
-1.036249e+00
-1.105211e+00
-1.172608e+00
-1.237884e+00
-1.300191e+00
-1.358115e+00
-1.410300e+00
-1.454857e+00
-1.490840e+00
-1.515987e+00
-1.530021e+00
-1.535589e+00
-1.519206e+00
-1.489169e+00
-1.477843e+00
-1.501083e+00
-1.565307e+00
0.000000e+00
-2.704537e-02
-5.393790e-02
-8.140868e-02
-1.101695e-01
-1.406690e-01
-1.727836e-01
-2.063695e-01
-2.410076e-01
-2.763701e-01
-3.119008e-01
-3.472399e-01
-3.820964e-01
-4.163031e-01
-4.498475e-01
-4.825435e-01
-5.142021e-01
-5.443756e-01
-5.727270e-01
-5.987308e-01
-6.217136e-01
-6.408629e-01
-6.549099e-01
-6.628987e-01
-6.632192e-01
-6.566726e-01
-6.408665e-01
-6.023020e-01
-5.525429e-01
-5.009398e-01
-4.738391e-01
-4.969308e-01
-5.639054e-01
0.000000e+00
-2.000485e-03
-4.049324e-03
-6.060158e-03
-7.918528e-03
-9.497415e-03
-1.073479e-02
-1.164074e-02
-1.227073e-02
-1.260316e-02
-1.252741e-02
-1.188280e-02
-1.051860e-02
-8.272954e-03
-4.908050e-03
-3.298393e-04
5.711212e-03
1.366307e-02
2.358026e-02
3.534035e-02
4.959299e-02
6.655786e-02
8.583085e-02
1.102681e-01
1.407497e-01
1.821803e-01
2.427442e-01
3.151889e-01
3.886599e-01
4.396218e-01
4.553325e-01
4.228967e-01
3.427598e-01
0.000000e+00
2.319605e-02
4.616299e-02
6.977737e-02
9.500261e-02
1.225503e-01
1.524600e-01
1.844663e-01
2.180111e-01
2.526537e-01
2.880354e-01
3.240339e-01
3.606209e-01
3.982767e-01
4.375471e-01
4.787785e-01
5.224905e-01
5.683352e-01
6.162559e-01
6.656705e-01
7.153872e-01
7.665962e-01
8.221794e-01
8.816469e-01
9.491665e-01
1.032399e+00
1.122357e+00
1.214074e+00
1.288573e+00
1.332412e+00
1.329250e+00
1.283107e+00
1.220216e+00
0.000000e+00
4.786006e-02
9.518321e-02
1.437303e-01
1.962171e-01
2.533814e-01
3.153671e-01
3.810513e-01
4.496638e-01
5.198543e-01
5.907879e-01
6.615609e-01
7.323019e-01
8.037783e-01
8.771985e-01
9.544180e-01
1.035690e+00
1.119651e+00
1.205275e+00
1.291985e+00
1.381815e+00
1.471232e+00
1.563383e+00
1.666409e+00
1.775107e+00
1.885901e+00
1.995430e+00
2.084178e+00
2.148108e+00
2.174564e+00
2.166938e+00
2.137034e+00
2.092916e+00
0.000000e+00
7.147595e-02
1.402633e-01
2.129821e-01
2.926103e-01
3.812181e-01
4.764162e-01
5.776877e-01
6.821193e-01
7.899938e-01
8.981516e-01
1.006840e+00
1.114862e+00
1.223468e+00
1.332976e+00
1.443161e+00
1.557077e+00
1.674446e+00
1.794249e+00
1.917356e+00
2.045948e+00
2.182399e+00
2.324529e+00
2.466816e+00
2.605056e+00
2.734313e+00
2.846584e+00
2.935491e+00
2.990940e+00
3.018880e+00
3.022371e+00
3.004345e+00
2.976812e+00
0.000000e+00
9.026090e-02
1.792973e-01
2.693902e-01
3.836992e-01
5.028575e-01
6.354361e-01
7.729398e-01
9.168462e-01
1.059852e+00
1.206804e+00
1.353112e+00
1.500334e+00
1.651583e+00
1.802307e+00
1.957419e+00
2.112431e+00
2.272505e+00
2.438344e+00
2.604911e+00
2.774055e+00
2.946165e+00
3.116275e+00
3.280922e+00
3.433925e+00
3.575094e+00
3.696078e+00
3.786837e+00
3.853323e+00
3.892475e+00
3.905387e+00
3.898861e+00
3.884352e+00
0.000000e+00
9.865725e-02
1.795077e-01
3.323193e-01
4.601095e-01
6.233097e-01
8.054224e-01
9.747872e-01
1.168539e+00
1.345487e+00
1.528110e+00
1.708060e+00
1.890823e+00
2.080563e+00
2.274683e+00
2.476479e+00
2.680581e+00
2.886076e+00
3.096315e+00
3.309613e+00
3.519993e+00
3.724846e+00
3.921028e+00
4.105682e+00
4.280402e+00
4.437775e+00
4.573008e+00
4.679919e+00
4.756468e+00
4.804236e+00
4.826430e+00
4.829238e+00
4.824499e+00
0.000000e+00
1.004126e-01
2.310501e-01
4.195624e-01
6.368731e-01
8.474585e-01
1.078763e+00
1.310033e+00
1.540021e+00
1.774632e+00
1.998153e+00
2.223920e+00
2.445589e+00
2.672253e+00
2.900046e+00
3.131584e+00
3.365891e+00
3.597143e+00
3.828559e+00
4.061056e+00
4.295370e+00
4.524254e+00
4.744662e+00
4.965904e+00
5.177029e+00
5.363604e+00
5.513171e+00
5.627847e+00
5.710320e+00
5.763191e+00
5.790881e+00
5.799932e+00
5.801043e+00
0.000000e+00
2.337966e-01
4.714880e-01
7.363563e-01
1.001656e+00
1.253876e+00
1.523037e+00
1.783733e+00
2.045619e+00
2.310312e+00
2.570208e+00
2.834437e+00
3.093767e+00
3.355818e+00
3.615590e+00
3.875229e+00
4.135297e+00
4.392660e+00
4.650519e+00
4.904378e+00
5.159787e+00
5.413087e+00
5.666364e+00
5.924924e+00
6.169080e+00
6.369953e+00
6.527439e+00
6.644232e+00
6.724418e+00
6.773615e+00
6.798753e+00
6.807858e+00
6.810095e+00
0.000000e+00
4.735530e-01
7.901470e-01
1.135554e+00
1.440085e+00
1.729653e+00
2.037763e+00
2.322429e+00
2.618975e+00
2.910018e+00
3.205727e+00
3.505355e+00
3.802914e+00
4.100275e+00
4.393915e+00
4.684992e+00
4.972230e+00
5.261296e+00
5.551861e+00
5.839734e+00
6.127514e+00
6.415372e+00
6.707350e+00
7.000090e+00
7.265777e+00
7.476594e+00
7.634736e+00
7.743595e+00
7.808448e+00
7.837563e+00
7.842656e+00
7.838038e+00
7.835485e+00
0.000000e+00
-2.792642e-01
-5.897533e-01
-9.868461e-01
-1.419317e+00
-1.889152e+00
-2.399632e+00
-2.940742e+00
-3.517345e+00
-4.125348e+00
-4.767222e+00
-5.445126e+00
-6.159535e+00
-6.912076e+00
-7.701408e+00
-8.529274e+00
-9.395508e+00
-1.030203e+01
-1.124858e+01
-1.223477e+01
-1.326107e+01
-1.432705e+01
-1.543447e+01
-1.658161e+01
-1.776622e+01
-1.898992e+01
-2.025704e+01
-2.157820e+01
-2.295990e+01
-2.442265e+01
-2.598344e+01
-2.779144e+01
-3.032867e+01
0.000000e+00
-1.802326e-01
-5.093090e-01
-8.990884e-01
-1.338403e+00
-1.804712e+00
-2.315072e+00
-2.858332e+00
-3.433138e+00
-4.042235e+00
-4.683057e+00
-5.361281e+00
-6.075431e+00
-6.828195e+00
-7.617528e+00
-8.445105e+00
-9.311448e+00
-1.021765e+01
-1.116461e+01
-1.215057e+01
-1.317705e+01
-1.424269e+01
-1.535021e+01
-1.649817e+01
-1.768249e+01
-1.890574e+01
-2.017131e+01
-2.149083e+01
-2.287411e+01
-2.432773e+01
-2.590784e+01
-2.770307e+01
-2.995389e+01
0.000000e+00
-1.593513e-01
-4.501770e-01
-8.426169e-01
-1.271852e+00
-1.735813e+00
-2.244169e+00
-2.785207e+00
-3.361427e+00
-3.969267e+00
-4.611267e+00
-5.289587e+00
-6.003892e+00
-6.756758e+00
-7.546689e+00
-8.374366e+00
-9.241290e+00
-1.014711e+01
-1.109402e+01
-1.207982e+01
-1.310609e+01
-1.417146e+01
-1.527733e+01
-1.642472e+01
-1.761004e+01
-1.883611e+01
-2.010356e+01
-2.142820e+01
-2.281526e+01
-2.428933e+01
-2.591239e+01
-2.759700e+01
-2.934527e+01
0.000000e+00
-2.048026e-01
-4.502195e-01
-8.392690e-01
-1.237250e+00
-1.690107e+00
-2.196972e+00
-2.724860e+00
-3.307691e+00
-3.909616e+00
-4.554756e+00
-5.233404e+00
-5.945868e+00
-6.701648e+00
-7.489035e+00
-8.319907e+00
-9.185263e+00
-1.009151e+01
-1.103807e+01
-1.202251e+01
-1.304983e+01
-1.411378e+01
-1.521884e+01
-1.636591e+01
-1.755370e+01
-1.878600e+01
-2.005958e+01
-2.139140e+01
-2.278717e+01
-2.428092e+01
-2.589653e+01
-2.744627e+01
-2.884544e+01
0.000000e+00
-2.208733e-01
-4.891008e-01
-8.344214e-01
-1.235046e+00
-1.670587e+00
-2.167774e+00
-2.689962e+00
-3.267726e+00
-3.869634e+00
-4.513759e+00
-5.194323e+00
-5.905120e+00
-6.663721e+00
-7.448918e+00
-8.282200e+00
-9.146537e+00
-1.005296e+01
-1.099949e+01
-1.198284e+01
-1.301078e+01
-1.407440e+01
-1.518091e+01
-1.632870e+01
-1.752019e+01
-1.875583e+01
-2.003763e+01
-2.137294e+01
-2.277129e+01
-2.426100e+01
-2.579612e+01
-2.724532e+01
-2.851250e+01
0.000000e+00
-2.277795e-01
-5.055542e-01
-8.403996e-01
-1.228416e+00
-1.663754e+00
-2.146138e+00
-2.670828e+00
-3.237989e+00
-3.842869e+00
-4.485010e+00
-5.164720e+00
-5.879972e+00
-6.634080e+00
-7.424770e+00
-8.254139e+00
-9.121661e+00
-1.002782e+01
-1.097425e+01
-1.196012e+01
-1.298701e+01
-1.405408e+01
-1.516224e+01
-1.631280e+01
-1.750641e+01
-1.874397e+01
-2.002836e+01
-2.136303e+01
-2.275055e+01
-2.419996e+01
-2.564120e+01
-2.700929e+01
-2.821457e+01
0.000000e+00
-2.314697e-01
-5.117725e-01
-8.435995e-01
-1.226324e+00
-1.657638e+00
-2.135397e+00
-2.657330e+00
-3.221375e+00
-3.825223e+00
-4.467471e+00
-5.147122e+00
-5.863963e+00
-6.618082e+00
-7.409764e+00
-8.239486e+00
-9.107700e+00
-1.001517e+01
-1.096247e+01
-1.195020e+01
-1.297871e+01
-1.404828e+01
-1.515929e+01
-1.631198e+01
-1.750691e+01
-1.874473e+01
-2.002520e+01
-2.135658e+01
-2.271160e+01
-2.410977e+01
-2.548652e+01
-2.678693e+01
-2.792883e+01
0.000000e+00
-2.328696e-01
-5.140951e-01
-8.450336e-01
-1.225705e+00
-1.654870e+00
-2.130703e+00
-2.651145e+00
-3.214134e+00
-3.817725e+00
-4.460316e+00
-5.140809e+00
-5.858574e+00
-6.613521e+00
-7.405872e+00
-8.236228e+00
-9.105363e+00
-1.001398e+01
-1.096271e+01
-1.195213e+01
-1.298264e+01
-1.405451e+01
-1.516773e+01
-1.632236e+01
-1.751622e+01
-1.875393e+01
-2.002666e+01
-2.133895e+01
-2.265931e+01
-2.400386e+01
-2.533514e+01
-2.657882e+01
-2.766503e+01
0.000000e+00
-2.331593e-01
-5.146891e-01
-8.456553e-01
-1.226183e+00
-1.655283e+00
-2.131210e+00
-2.651916e+00
-3.215375e+00
-3.819739e+00
-4.463413e+00
-5.145101e+00
-5.864000e+00
-6.619894e+00
-7.412980e+00
-8.243934e+00
-9.114012e+00
-1.002388e+01
-1.097382e+01
-1.196463e+01
-1.299687e+01
-1.406999e+01
-1.518452e+01
-1.633991e+01
-1.753273e+01
-1.876499e+01
-2.002348e+01
-2.130647e+01
-2.260298e+01
-2.389631e+01
-2.516765e+01
-2.633609e+01
-2.732724e+01
0.000000e+00
-2.327057e-01
-5.141511e-01
-8.457895e-01
-1.227772e+00
-1.658820e+00
-2.136842e+00
-2.659544e+00
-3.224840e+00
-3.830965e+00
-4.476386e+00
-5.159634e+00
-5.879748e+00
-6.636748e+00
-7.430783e+00
-8.262085e+00
-9.133392e+00
-1.004454e+01
-1.099552e+01
-1.198639e+01
-1.302033e+01
-1.409319e+01
-1.520606e+01
-1.636334e+01
-1.754893e+01
-1.876909e+01
-2.001051e+01
-2.127044e+01
-2.253771e+01
-2.379435e+01
-2.499938e+01
-2.610060e+01
-2.705956e+01
0.000000e+00
-2.312343e-01
-5.119513e-01
-8.450954e-01
-1.230496e+00
-1.665761e+00
-2.148032e+00
-2.674431e+00
-3.242842e+00
-3.851473e+00
-4.499078e+00
-5.183879e+00
-5.904870e+00
-6.663280e+00
-7.458267e+00
-8.290735e+00
-9.163575e+00
-1.007583e+01
-1.102807e+01
-1.201771e+01
-1.305107e+01
-1.412184e+01
-1.523241e+01
-1.638326e+01
-1.756020e+01
-1.876485e+01
-1.999517e+01
-2.123269e+01
-2.247436e+01
-2.369001e+01
-2.484954e+01
-2.591874e+01
-2.686728e+01
0.000000e+00
-2.275996e-01
-5.060280e-01
-8.426694e-01
-1.234643e+00
-1.676780e+00
-2.165955e+00
-2.697303e+00
-3.270436e+00
-3.882000e+00
-4.531595e+00
-5.217630e+00
-5.938681e+00
-6.698232e+00
-7.494315e+00
-8.329562e+00
-9.203898e+00
-1.011733e+01
-1.106941e+01
-1.205832e+01
-1.308662e+01
-1.415376e+01
-1.525851e+01
-1.639896e+01
-1.756672e+01
-1.876185e+01
-1.998026e+01
-2.120501e+01
-2.241978e+01
-2.360626e+01
-2.473634e+01
-2.578955e+01
-2.674206e+01
0.000000e+00
-2.206080e-01
-4.899938e-01
-8.378938e-01
-1.243225e+00
-1.690692e+00
-2.194947e+00
-2.727459e+00
-3.310363e+00
-3.921950e+00
-4.574349e+00
-5.260783e+00
-5.981136e+00
-6.743662e+00
-7.540001e+00
-8.379088e+00
-9.254313e+00
-1.016679e+01
-1.111740e+01
-1.210299e+01
-1.312601e+01
-1.418766e+01
-1.528427e+01
-1.641506e+01
-1.757564e+01
-1.876722e+01
-1.997991e+01
-2.118998e+01
-2.238493e+01
-2.354610e+01
-2.465759e+01
-2.570381e+01
-2.667105e+01
0.000000e+00
-2.035314e-01
-4.510874e-01
-8.435635e-01
-1.250505e+00
-1.716757e+00
-2.234501e+00
-2.770531e+00
-3.360993e+00
-3.972092e+00
-4.625026e+00
-5.310945e+00
-6.033927e+00
-6.798422e+00
-7.598368e+00
-8.438700e+00
-9.314177e+00
-1.022487e+01
-1.117192e+01
-1.215347e+01
-1.317140e+01
-1.422575e+01
-1.531352e+01
-1.643695e+01
-1.759904e+01
-1.879076e+01
-1.999617e+01
-2.119124e+01
-2.236722e+01
-2.351001e+01
-2.460798e+01
-2.565282e+01
-2.664032e+01
0.000000e+00
-1.565200e-01
-4.489601e-01
-8.465506e-01
-1.288056e+00
-1.765953e+00
-2.286251e+00
-2.835687e+00
-3.420017e+00
-4.035346e+00
-4.684078e+00
-5.370992e+00
-6.095870e+00
-6.861328e+00
-7.664477e+00
-8.504612e+00
-9.379981e+00
-1.028875e+01
-1.123334e+01
-1.221225e+01
-1.322588e+01
-1.427356e+01
-1.535423e+01
-1.647866e+01
-1.764367e+01
-1.883255e+01
-2.002357e+01
-2.120526e+01
-2.236582e+01
-2.349438e+01
-2.458238e+01
-2.562726e+01
-2.663510e+01
0.000000e+00
-1.768613e-01
-5.070523e-01
-9.033838e-01
-1.355532e+00
-1.836233e+00
-2.358221e+00
-2.910679e+00
-3.493190e+00
-4.109153e+00
-4.756395e+00
-5.443286e+00
-6.168428e+00
-6.934333e+00
-7.737860e+00
-8.578185e+00
-9.452583e+00
-1.035969e+01
-1.130306e+01
-1.228052e+01
-1.329245e+01
-1.433691e+01
-1.541817e+01
-1.654398e+01
-1.770557e+01
-1.888191e+01
-2.005965e+01
-2.122828e+01
-2.237641e+01
-2.349386e+01
-2.457409e+01
-2.561806e+01
-2.663978e+01
0.000000e+00
-2.767219e-01
-5.886407e-01
-9.919867e-01
-1.436601e+00
-1.920066e+00
-2.442372e+00
-2.992874e+00
-3.577110e+00
-4.191964e+00
-4.840568e+00
-5.527115e+00
-6.252201e+00
-7.017675e+00
-7.820528e+00
-8.660369e+00
-9.533787e+00
-1.044099e+01
-1.138343e+01
-1.236036e+01
-1.337189e+01
-1.441648e+01