TITLE = "Solution"
VARIABLES = x, y, u, v, psiu, psiv, t, stress
ZONE T="structure" N=153 E=128 F=FEBLOCK ET=QUADRILATERAL VARLOCATION=([7,8]=cellcentered)
0.000000e+00
1.250000e+01
2.500000e+01
3.750000e+01
5.000000e+01
6.250000e+01
7.500000e+01
8.750000e+01
1.000000e+02
1.125000e+02
1.250000e+02
1.375000e+02
1.500000e+02
1.625000e+02
1.750000e+02
1.875000e+02
2.000000e+02
0.000000e+00
1.250000e+01
2.500000e+01
3.750000e+01
5.000000e+01
6.250000e+01
7.500000e+01
8.750000e+01
1.000000e+02
1.125000e+02
1.250000e+02
1.375000e+02
1.500000e+02
1.625000e+02
1.750000e+02
1.875000e+02
2.000000e+02
0.000000e+00
1.250000e+01
2.500000e+01
3.750000e+01
5.000000e+01
6.250000e+01
7.500000e+01
8.750000e+01
1.000000e+02
1.125000e+02
1.250000e+02
1.375000e+02
1.500000e+02
1.625000e+02
1.750000e+02
1.875000e+02
2.000000e+02
0.000000e+00
1.250000e+01
2.500000e+01
3.750000e+01
5.000000e+01
6.250000e+01
7.500000e+01
8.750000e+01
1.000000e+02
1.125000e+02
1.250000e+02
1.375000e+02
1.500000e+02
1.625000e+02
1.750000e+02
1.875000e+02
2.000000e+02
0.000000e+00
1.250000e+01
2.500000e+01
3.750000e+01
5.000000e+01
6.250000e+01
7.500000e+01
8.750000e+01
1.000000e+02
1.125000e+02
1.250000e+02
1.375000e+02
1.500000e+02
1.625000e+02
1.750000e+02
1.875000e+02
2.000000e+02
0.000000e+00
1.250000e+01
2.500000e+01
3.750000e+01
5.000000e+01
6.250000e+01
7.500000e+01
8.750000e+01
1.000000e+02
1.125000e+02
1.250000e+02
1.375000e+02
1.500000e+02
1.625000e+02
1.750000e+02
1.875000e+02
2.000000e+02
0.000000e+00
1.250000e+01
2.500000e+01
3.750000e+01
5.000000e+01
6.250000e+01
7.500000e+01
8.750000e+01
1.000000e+02
1.125000e+02
1.250000e+02
1.375000e+02
1.500000e+02
1.625000e+02
1.750000e+02
1.875000e+02
2.000000e+02
0.000000e+00
1.250000e+01
2.500000e+01
3.750000e+01
5.000000e+01
6.250000e+01
7.500000e+01
8.750000e+01
1.000000e+02
1.125000e+02
1.250000e+02
1.375000e+02
1.500000e+02
1.625000e+02
1.750000e+02
1.875000e+02
2.000000e+02
0.000000e+00
1.250000e+01
2.500000e+01
3.750000e+01
5.000000e+01
6.250000e+01
7.500000e+01
8.750000e+01
1.000000e+02
1.125000e+02
1.250000e+02
1.375000e+02
1.500000e+02
1.625000e+02
1.750000e+02
1.875000e+02
2.000000e+02
0.000000e+00
0.000000e+00
0.000000e+00
0.000000e+00
0.000000e+00
0.000000e+00
0.000000e+00
0.000000e+00
0.000000e+00
0.000000e+00
0.000000e+00
0.000000e+00
0.000000e+00
0.000000e+00
0.000000e+00
0.000000e+00
0.000000e+00
1.250000e+01
1.250000e+01
1.250000e+01
1.250000e+01
1.250000e+01
1.250000e+01
1.250000e+01
1.250000e+01
1.250000e+01
1.250000e+01
1.250000e+01
1.250000e+01
1.250000e+01
1.250000e+01
1.250000e+01
1.250000e+01
1.250000e+01
2.500000e+01
2.500000e+01
2.500000e+01
2.500000e+01
2.500000e+01
2.500000e+01
2.500000e+01
2.500000e+01
2.500000e+01
2.500000e+01
2.500000e+01
2.500000e+01
2.500000e+01
2.500000e+01
2.500000e+01
2.500000e+01
2.500000e+01
3.750000e+01
3.750000e+01
3.750000e+01
3.750000e+01
3.750000e+01
3.750000e+01
3.750000e+01
3.750000e+01
3.750000e+01
3.750000e+01
3.750000e+01
3.750000e+01
3.750000e+01
3.750000e+01
3.750000e+01
3.750000e+01
3.750000e+01
5.000000e+01
5.000000e+01
5.000000e+01
5.000000e+01
5.000000e+01
5.000000e+01
5.000000e+01
5.000000e+01
5.000000e+01
5.000000e+01
5.000000e+01
5.000000e+01
5.000000e+01
5.000000e+01
5.000000e+01
5.000000e+01
5.000000e+01
6.250000e+01
6.250000e+01
6.250000e+01
6.250000e+01
6.250000e+01
6.250000e+01
6.250000e+01
6.250000e+01
6.250000e+01
6.250000e+01
6.250000e+01
6.250000e+01
6.250000e+01
6.250000e+01
6.250000e+01
6.250000e+01
6.250000e+01
7.500000e+01
7.500000e+01
7.500000e+01
7.500000e+01
7.500000e+01
7.500000e+01
7.500000e+01
7.500000e+01
7.500000e+01
7.500000e+01
7.500000e+01
7.500000e+01
7.500000e+01
7.500000e+01
7.500000e+01
7.500000e+01
7.500000e+01
8.750000e+01
8.750000e+01
8.750000e+01
8.750000e+01
8.750000e+01
8.750000e+01
8.750000e+01
8.750000e+01
8.750000e+01
8.750000e+01
8.750000e+01
8.750000e+01
8.750000e+01
8.750000e+01
8.750000e+01
8.750000e+01
8.750000e+01
1.000000e+02
1.000000e+02
1.000000e+02
1.000000e+02
1.000000e+02
1.000000e+02
1.000000e+02
1.000000e+02
1.000000e+02
1.000000e+02
1.000000e+02
1.000000e+02
1.000000e+02
1.000000e+02
1.000000e+02
1.000000e+02
1.000000e+02
0.000000e+00
-9.960394e-01
-1.678948e+00
-2.431183e+00
-3.117344e+00
-3.750330e+00
-4.458298e+00
-5.087151e+00
-5.763212e+00
-6.405563e+00
-7.055477e+00
-7.723539e+00
-8.376393e+00
-9.146360e+00
-1.007743e+01
-1.083395e+01
-1.128406e+01
0.000000e+00
-4.460383e-01
-9.064234e-01
-1.419027e+00
-1.930690e+00
-2.410638e+00
-2.924785e+00
-3.423005e+00
-3.918935e+00
-4.421435e+00
-4.913878e+00
-5.416891e+00
-5.901744e+00
-6.421358e+00
-6.897715e+00
-7.024056e+00
-7.202948e+00
0.000000e+00
-1.460871e-01
-3.488008e-01
-6.395397e-01
-9.775317e-01
-1.302536e+00
-1.655637e+00
-2.012852e+00
-2.356328e+00
-2.718586e+00
-3.057372e+00
-3.391723e+00
-3.687421e+00
-3.927369e+00
-4.036632e+00
-4.034659e+00
-4.183076e+00
0.000000e+00
-7.898971e-02
-1.621085e-01
-3.096565e-01
-4.549139e-01
-6.281457e-01
-8.139796e-01
-9.790498e-01
-1.166914e+00
-1.328817e+00
-1.489886e+00
-1.628953e+00
-1.722368e+00
-1.730545e+00
-1.656887e+00
-1.635929e+00
-1.752967e+00
0.000000e+00
-3.323215e-03
-7.233206e-03
-1.130394e-02
-1.569865e-02
-1.914171e-02
-2.004172e-02
-1.731022e-02
-8.562568e-03
8.293479e-03
3.271039e-02
7.768719e-02
1.602101e-01
2.751225e-01
3.949295e-01
4.358194e-01
3.376373e-01
0.000000e+00
7.317670e-02
1.503882e-01
2.905705e-01
4.290599e-01
5.954863e-01
7.744480e-01
9.425284e-01
1.148639e+00
1.343787e+00
1.561802e+00
1.782088e+00
2.008783e+00
2.216309e+00
2.352103e+00
2.385012e+00
2.319331e+00
0.000000e+00
1.437195e-01
3.434959e-01
6.305039e-01
9.655713e-01
1.290817e+00
1.643039e+00
1.999662e+00
2.358941e+00
2.764582e+00
3.143570e+00
3.510527e+00
3.843340e+00
4.119085e+00
4.295869e+00
4.350520e+00
4.327855e+00
0.000000e+00
4.467610e-01
9.071530e-01
1.419534e+00
1.930496e+00
2.408990e+00
2.920056e+00
3.415643e+00
3.903229e+00
4.396687e+00
4.874975e+00
5.350097e+00
5.777873e+00
6.125546e+00
6.342630e+00
6.438452e+00
6.456164e+00
0.000000e+00
9.983491e-01
1.684032e+00
2.440032e+00
3.128159e+00
3.761632e+00
4.468645e+00
5.095616e+00
5.747597e+00
6.331577e+00
6.905110e+00
7.505997e+00
8.035825e+00
8.447889e+00
8.649127e+00
8.701864e+00
8.702394e+00
0.000000e+00
-6.187985e-01
-1.361850e+00
-2.363305e+00
-3.537500e+00
-4.881005e+00
-6.412548e+00
-8.098679e+00
-9.959162e+00
-1.198267e+01
-1.416743e+01
-1.651831e+01
-1.903196e+01
-2.176307e+01
-2.472729e+01
-2.808670e+01
-3.310235e+01
0.000000e+00
-4.159724e-01
-1.193531e+00
-2.177064e+00
-3.368465e+00
-4.706900e+00
-6.234978e+00
-7.930112e+00
-9.782835e+00
-1.181512e+01
-1.399513e+01
-1.635060e+01
-1.885909e+01
-2.157040e+01
-2.458709e+01
-2.800296e+01
-3.205277e+01
0.000000e+00
-3.904350e-01
-1.091697e+00
-2.073656e+00
-3.249379e+00
-4.580927e+00
-6.115302e+00
-7.800248e+00
-9.663863e+00
-1.169327e+01
-1.388447e+01
-1.625131e+01
-1.877002e+01
-2.150815e+01
-2.457711e+01
-2.785108e+01
-3.088358e+01
0.000000e+00
-4.494219e-01
-1.088075e+00
-2.047520e+00
-3.186987e+00
-4.511288e+00
-6.053753e+00
-7.723502e+00
-9.606279e+00
-1.163456e+01
-1.384754e+01
-1.623425e+01
-1.877851e+01
-2.151849e+01
-2.450743e+01
-2.754141e+01
-3.016728e+01
0.000000e+00
-4.563354e-01
-1.110487e+00
-2.031961e+00
-3.172594e+00
-4.501696e+00
-6.032144e+00
-7.721847e+00
-9.595988e+00
-1.164669e+01
-1.387413e+01
-1.626803e+01
-1.881978e+01
-2.151964e+01
-2.435681e+01
-2.717485e+01
-2.956276e+01
0.000000e+00
-4.481632e-01
-1.087753e+00
-2.049612e+00
-3.193983e+00
-4.528489e+00
-6.081375e+00
-7.760238e+00
-9.658081e+00
-1.171229e+01
-1.394452e+01
-1.632020e+01
-1.885068e+01
-2.150968e+01
-2.422188e+01
-2.685506e+01
-2.912437e+01
0.000000e+00
-3.887582e-01
-1.091713e+00
-2.078489e+00
-3.263213e+00
-4.610249e+00
-6.161091e+00
-7.869542e+00
-9.763036e+00
-1.182864e+01
-1.403091e+01
-1.638749e+01
-1.888987e+01
-2.150958e+01
-2.413950e+01
-2.664785e+01
-2.889062e+01
0.000000e+00
-4.144208e-01
-1.193645e+00
-2.182767e+00
-3.384729e+00
-4.738152e+00
-6.286062e+00
-8.010612e+00
-9.901592e+00
-1.196594e+01
-1.414594e+01
-1.648603e+01
-1.896701e+01
-2.155112e+01
-2.411900e+01
-2.656030e+01
-2.883013e+01
0.000000e+00
-6.178330e-01
-1.362590e+00
-2.369709e+00
-3.554163e+00
-4.912110e+00
-6.464333e+00
-8.178881e+00
-1.007434e+01
-1.212135e+01
-1.430110e+01
-1.663421e+01
-1.909063e+01
-2.163312e+01
-2.414363e+01
-2.654541e+01
-2.882899e+01


0.000000e+00
1.541802e-05
2.508060e-05
3.749348e-05
5.358433e-05
6.716431e-05
8.318759e-05
9.713021e-05
1.118693e-04
1.257438e-04
1.408878e-04
1.552369e-04
1.717888e-04
1.876143e-04
1.977065e-04
2.034528e-04
2.103860e-04
0.000000e+00
1.145691e-05
1.973544e-05
2.841623e-05
4.099085e-05
5.172368e-05
6.185286e-05
7.296410e-05
8.316778e-05
9.458202e-05
1.052331e-04
1.156306e-04
1.264867e-04
1.358454e-04
1.374585e-04
1.412129e-04
1.470354e-04
0.000000e+00
9.527681e-06
1.502515e-05
2.021421e-05
2.884432e-05
3.555174e-05
4.128355e-05
4.863178e-05
5.460254e-05
6.197599e-05
6.837504e-05
7.405220e-05
7.876306e-05
8.094872e-05
8.020059e-05
8.257629e-05
8.680752e-05
0.000000e+00
5.186940e-06
6.843788e-06
9.624465e-06
1.306347e-05
1.351931e-05
1.587605e-05
1.725368e-05
2.089641e-05
2.431807e-05
2.806778e-05
2.913202e-05
2.854826e-05
2.712303e-05
2.684087e-05
2.987308e-05
3.554392e-05
0.000000e+00
-1.759363e-07
-4.384509e-07
-8.628276e-07
-1.737093e-06
-2.900821e-06
-5.020968e-06
-7.269851e-06
-7.842744e-06
-7.895068e-06
-8.831704e-06
-1.196470e-05
-1.470718e-05
-1.614591e-05
-1.582068e-05
-1.366924e-05
-9.679506e-06
0.000000e+00
-5.452264e-06
-7.435693e-06
-1.075978e-05
-1.466964e-05
-1.609067e-05
-2.056785e-05
-2.432756e-05
-3.029789e-05
-3.345012e-05
-3.760060e-05
-4.224140e-05
-4.738460e-05
-4.918131e-05
-4.972213e-05
-5.018658e-05
-4.844888e-05
0.000000e+00
-9.526329e-06
-1.509152e-05
-2.038262e-05
-2.894421e-05
-3.534473e-05
-4.075180e-05
-4.874486e-05
-5.592398e-05
-6.364968e-05
-6.891903e-05
-7.392357e-05
-7.806749e-05
-8.166760e-05
-8.356677e-05
-8.548318e-05
-8.622887e-05
0.000000e+00
-1.138530e-05
-1.964671e-05
-2.830987e-05
-4.076341e-05
-5.166672e-05
-6.160576e-05
-7.279619e-05
-8.318918e-05
-9.458415e-05
-1.052144e-04
-1.136096e-04
-1.183956e-04
-1.234363e-04
-1.270563e-04
-1.283646e-04
-1.284598e-04
0.000000e+00
-1.542823e-05
-2.502062e-05
-3.733911e-05
-5.337233e-05
-6.698891e-05
-8.288021e-05
-9.585276e-05
-1.100087e-04
-1.232845e-04
-1.409451e-04
-1.567930e-04
-1.666227e-04
-1.718512e-04
-1.740543e-04
-1.742779e-04
-1.740990e-04
0.000000e+00
1.259579e-05
1.999649e-05
3.243304e-05
4.873537e-05
6.685471e-05
9.128540e-05
1.201063e-04
1.534063e-04
1.901349e-04
2.302943e-04
2.743000e-04
3.242185e-04
3.783520e-04
4.398947e-04
5.107533e-04
5.841616e-04
0.000000e+00
7.679653e-06
1.610617e-05
2.633148e-05
4.227455e-05
6.089419e-05
8.482489e-05
1.142380e-04
1.471609e-04
1.840184e-04
2.239553e-04
2.680904e-04
3.176476e-04
3.734048e-04
4.346383e-04
5.033729e-04
5.738100e-04
0.000000e+00
4.325276e-06
1.228871e-05
2.172220e-05
3.645200e-05
5.567203e-05
7.940121e-05
1.097315e-04
1.430011e-04
1.795292e-04
2.193690e-04
2.635501e-04
3.138637e-04
3.710081e-04
4.304887e-04
4.958951e-04
5.641292e-04
0.000000e+00
3.198469e-06
1.058755e-05
2.008175e-05
3.450578e-05
5.199694e-05
7.640035e-05
1.087351e-04
1.435462e-04
1.780897e-04
2.173327e-04
2.619044e-04
3.131036e-04
3.695927e-04
4.277513e-04
4.880625e-04
5.499733e-04
0.000000e+00
2.810025e-06
1.026472e-05
2.004081e-05
3.423791e-05
5.070407e-05
7.528323e-05
1.097805e-04
1.447481e-04
1.780103e-04
2.155432e-04
2.618365e-04
3.133173e-04
3.697372e-04
4.266085e-04
4.816817e-04
5.338460e-04
0.000000e+00
3.342376e-06
1.077899e-05
2.045989e-05
3.484794e-05
5.180005e-05
7.717011e-05
1.106693e-04
1.453650e-04
1.778431e-04
2.159299e-04
2.632882e-04
3.156569e-04
3.700719e-04
4.265150e-04
4.793605e-04
5.228111e-04
0.000000e+00
4.479507e-06
1.251833e-05
2.206998e-05
3.673240e-05
5.575701e-05
8.038504e-05
1.117389e-04
1.447117e-04
1.789506e-04
2.181894e-04
2.664950e-04
3.191495e-04
3.721829e-04
4.256104e-04
4.766082e-04
5.193277e-04
0.000000e+00
7.804598e-06
1.634388e-05
2.663481e-05
4.253542e-05
6.130913e-05
8.579764e-05
1.159120e-04
1.481822e-04
1.832473e-04
2.228096e-04
2.702721e-04
3.221970e-04
3.743884e-04
4.257629e-04
4.745842e-04
5.197858e-04
0.000000e+00
1.270930e-05
2.023431e-05
3.272596e-05
4.907824e-05
6.739680e-05
9.233029e-05
1.215681e-04
1.543803e-04
1.894074e-04
2.300778e-04
2.746376e-04
3.245043e-04
3.755431e-04
4.260852e-04
4.741006e-04
5.200491e-04


5.681818e+00
6.142534e+00
6.868731e+00
5.944037e+00
5.772013e+00
6.636610e+00
6.475947e+00
6.455312e+00
5.976750e+00
5.906666e+00
6.285736e+00
7.152141e+00
8.849324e+00
9.831214e+00
9.152106e+00
8.003096e+00
8.087110e+00
8.463205e+00
8.663127e+00
8.359057e+00
8.254834e+00
8.538026e+00
8.697294e+00
8.435286e+00
8.405541e+00
8.271867e+00
8.418843e+00
8.845871e+00
9.508024e+00
9.843851e+00
8.396124e+00
6.475133e+00
9.844183e+00
9.824317e+00
9.999972e+00
9.838389e+00
9.836719e+00
9.974801e+00
9.836351e+00
9.949487e+00
9.849693e+00
9.881529e+00
9.899311e+00
9.877047e+00
9.895314e+00
9.396558e+00
8.001458e+00
6.192755e+00
9.999986e+00
9.999986e+00
9.999986e+00
9.999985e+00
9.999983e+00
9.999979e+00
9.999975e+00
9.999975e+00
9.999978e+00
9.999977e+00
9.999969e+00
9.484100e+00
8.832225e+00
8.374389e+00
7.993564e+00
7.922778e+00
9.999986e+00
9.999986e+00
9.999986e+00
9.999984e+00
9.999981e+00
9.999974e+00
9.935259e+00
9.963438e+00
9.999949e+00
9.919832e+00
9.361646e+00
8.595046e+00
7.709167e+00
7.747996e+00
8.656322e+00
9.171581e+00
9.844680e+00
9.824283e+00
9.999971e+00
9.838287e+00
9.836506e+00
9.717935e+00
9.305319e+00
9.524023e+00
9.388444e+00
8.876636e+00
8.313522e+00
7.900231e+00
8.200673e+00
8.755793e+00
9.450075e+00
9.999951e+00
8.089987e+00
8.464478e+00
8.662605e+00
8.357649e+00
8.176844e+00
8.091639e+00
7.935522e+00
7.834520e+00
7.922945e+00
7.355891e+00
7.491995e+00
8.493211e+00
9.292429e+00
9.848338e+00
9.999971e+00
9.999983e+00
5.688979e+00
6.144951e+00
6.867880e+00
5.937278e+00
5.747727e+00
6.318709e+00
6.127832e+00
6.595376e+00
6.346525e+00
6.554691e+00
7.880004e+00
9.118029e+00
9.987083e+00
9.999978e+00
9.999985e+00
9.999987e+00


-8.193958e-01
-1.668009e-01
-3.975876e-01
-2.587570e-01
-9.235323e-02
-3.076817e-01
-1.231104e-01
-2.097679e-01
-1.619231e-01
-1.576326e-01
-2.154400e-01
-1.496500e-01
-4.612985e-01
-6.862589e-01
3.157046e-01
-8.469510e-01
6.106786e-01
4.816833e-01
2.951088e-01
2.251764e-01
2.912062e-01
1.679624e-01
1.749803e-01
1.734172e-01
1.093595e-01
1.484331e-01
1.278187e-01
2.413437e-01
3.024759e-01
5.092194e-01
6.953421e-01
-9.344296e-01
7.226188e-01
4.716804e-01
5.630999e-02
-2.272237e-02
-3.591201e-02
-1.892507e-01
-8.013324e-02
-1.382649e-01
-7.758005e-02
-1.906251e-02
3.114795e-02
1.853583e-01
2.782529e-01
1.479569e-01
-2.537939e-02
-1.678343e-01
7.278853e-01
5.564688e-01
1.927556e-01
6.131078e-02
-2.201469e-02
-1.072299e-01
-1.625338e-02
-6.227861e-02
1.309536e-02
1.667971e-02
5.853235e-02
1.174078e-01
5.886620e-02
-2.622822e-01
-3.841042e-01
-7.822019e-02
7.307858e-01
5.604195e-01
2.007697e-01
6.950329e-02
-1.798994e-02
-1.131918e-01
-3.625050e-02
-1.030575e-01
-5.260083e-02
-4.399301e-02
2.062628e-02
1.369064e-02
-3.779007e-02
-1.298079e-01
-1.028531e-01
3.104097e-01
7.294243e-01
4.819163e-01
7.438551e-02
-4.761317e-03
-2.371552e-02
-1.628268e-01
-7.285365e-02
-1.875499e-01
-1.820538e-01
-1.090291e-01
-7.752618e-02
-9.791793e-02
-1.116404e-01
4.546160e-02
3.339812e-01
7.245119e-01
6.147523e-01
4.875894e-01
3.025408e-01
2.301416e-01
2.873122e-01
1.614174e-01
1.521726e-01
1.038087e-01
-5.783917e-02
-3.985636e-02
-9.625400e-02
-5.624393e-02
5.737133e-02
3.652174e-01
7.128495e-01
9.478991e-01
-8.251684e-01
-1.721697e-01
-4.052673e-01
-2.619100e-01
-9.138553e-02
-3.017672e-01
-1.191351e-01
-1.574213e-01
-5.593942e-02
-2.198674e-02
-9.261625e-02
1.006999e-01
3.878883e-01
7.721601e-01
9.528995e-01
9.987355e-01
1 2 19 18
2 3 20 19
3 4 21 20
4 5 22 21
5 6 23 22
6 7 24 23
7 8 25 24
8 9 26 25
9 10 27 26
10 11 28 27
11 12 29 28
12 13 30 29
13 14 31 30
14 15 32 31
15 16 33 32
16 17 34 33
18 19 36 35
19 20 37 36
20 21 38 37
21 22 39 38
22 23 40 39
23 24 41 40
24 25 42 41
25 26 43 42
26 27 44 43
27 28 45 44
28 29 46 45
29 30 47 46
30 31 48 47
31 32 49 48
32 33 50 49
33 34 51 50
35 36 53 52
36 37 54 53
37 38 55 54
38 39 56 55
39 40 57 56
40 41 58 57
41 42 59 58
42 43 60 59
43 44 61 60
44 45 62 61
45 46 63 62
46 47 64 63
47 48 65 64
48 49 66 65
49 50 67 66
50 51 68 67
52 53 70 69
53 54 71 70
54 55 72 71
55 56 73 72
56 57 74 73
57 58 75 74
58 59 76 75
59 60 77 76
60 61 78 77
61 62 79 78
62 63 80 79
63 64 81 80
64 65 82 81
65 66 83 82
66 67 84 83
67 68 85 84
69 70 87 86
70 71 88 87
71 72 89 88
72 73 90 89
73 74 91 90
74 75 92 91
75 76 93 92
76 77 94 93
77 78 95 94
78 79 96 95
79 80 97 96
80 81 98 97
81 82 99 98
82 83 100 99
83 84 101 100
84 85 102 101
86 87 104 103
87 88 105 104
88 89 106 105
89 90 107 106
90 91 108 107
91 92 109 108
92 93 110 109
93 94 111 110
94 95 112 111
95 96 113 112
96 97 114 113
97 98 115 114
98 99 116 115
99 100 117 116
100 101 118 117
101 102 119 118
103 104 121 120
104 105 122 121
105 106 123 122
106 107 124 123
107 108 125 124
108 109 126 125
109 110 127 126
110 111 128 127
111 112 129 128
112 113 130 129
113 114 131 130
114 115 132 131
115 116 133 132
116 117 134 133
117 118 135 134
118 119 136 135
120 121 138 137
121 122 139 138
122 123 140 139
123 124 141 140
124 125 142 141
125 126 143 142
126 127 144 143
127 128 145 144
128 129 146 145
129 130 147 146
130 131 148 147
131 132 149 148
132 133 150 149
133 134 151 150
134 135 152 151
135 136 153 152
