TITLE = "Solution"
VARIABLES = x, y, u, v, psiu, psiv, t, stress
ZONE T="structure" N=561 E=512 F=FEBLOCK ET=QUADRILATERAL VARLOCATION=([7,8]=cellcentered)
0.000000e+00
6.250000e+00
1.250000e+01
1.875000e+01
2.500000e+01
3.125000e+01
3.750000e+01
4.375000e+01
5.000000e+01
5.625000e+01
6.250000e+01
6.875000e+01
7.500000e+01
8.125000e+01
8.750000e+01
9.375000e+01
1.000000e+02
1.062500e+02
1.125000e+02
1.187500e+02
1.250000e+02
1.312500e+02
1.375000e+02
1.437500e+02
1.500000e+02
1.562500e+02
1.625000e+02
1.687500e+02
1.750000e+02
1.812500e+02
1.875000e+02
1.937500e+02
2.000000e+02
0.000000e+00
6.250000e+00
1.250000e+01
1.875000e+01
2.500000e+01
3.125000e+01
3.750000e+01
4.375000e+01
5.000000e+01
5.625000e+01
6.250000e+01
6.875000e+01
7.500000e+01
8.125000e+01
8.750000e+01
9.375000e+01
1.000000e+02
1.062500e+02
1.125000e+02
1.187500e+02
1.250000e+02
1.312500e+02
1.375000e+02
1.437500e+02
1.500000e+02
1.562500e+02
1.625000e+02
1.687500e+02
1.750000e+02
1.812500e+02
1.875000e+02
1.937500e+02
2.000000e+02
0.000000e+00
6.250000e+00
1.250000e+01
1.875000e+01
2.500000e+01
3.125000e+01
3.750000e+01
4.375000e+01
5.000000e+01
5.625000e+01
6.250000e+01
6.875000e+01
7.500000e+01
8.125000e+01
8.750000e+01
9.375000e+01
1.000000e+02
1.062500e+02
1.125000e+02
1.187500e+02
1.250000e+02
1.312500e+02
1.375000e+02
1.437500e+02
1.500000e+02
1.562500e+02
1.625000e+02
1.687500e+02
1.750000e+02
1.812500e+02
1.875000e+02
1.937500e+02
2.000000e+02
0.000000e+00
6.250000e+00
1.250000e+01
1.875000e+01
2.500000e+01
3.125000e+01
3.750000e+01
4.375000e+01
5.000000e+01
5.625000e+01
6.250000e+01
6.875000e+01
7.500000e+01
8.125000e+01
8.750000e+01
9.375000e+01
1.000000e+02
1.062500e+02
1.125000e+02
1.187500e+02
1.250000e+02
1.312500e+02
1.375000e+02
1.437500e+02
1.500000e+02
1.562500e+02
1.625000e+02
1.687500e+02
1.750000e+02
1.812500e+02
1.875000e+02
1.937500e+02
2.000000e+02
0.000000e+00
6.250000e+00
1.250000e+01
1.875000e+01
2.500000e+01
3.125000e+01
3.750000e+01
4.375000e+01
5.000000e+01
5.625000e+01
6.250000e+01
6.875000e+01
7.500000e+01
8.125000e+01
8.750000e+01
9.375000e+01
1.000000e+02
1.062500e+02
1.125000e+02
1.187500e+02
1.250000e+02
1.312500e+02
1.375000e+02
1.437500e+02
1.500000e+02
1.562500e+02
1.625000e+02
1.687500e+02
1.750000e+02
1.812500e+02
1.875000e+02
1.937500e+02
2.000000e+02
0.000000e+00
6.250000e+00
1.250000e+01
1.875000e+01
2.500000e+01
3.125000e+01
3.750000e+01
4.375000e+01
5.000000e+01
5.625000e+01
6.250000e+01
6.875000e+01
7.500000e+01
8.125000e+01
8.750000e+01
9.375000e+01
1.000000e+02
1.062500e+02
1.125000e+02
1.187500e+02
1.250000e+02
1.312500e+02
1.375000e+02
1.437500e+02
1.500000e+02
1.562500e+02
1.625000e+02
1.687500e+02
1.750000e+02
1.812500e+02
1.875000e+02
1.937500e+02
2.000000e+02
0.000000e+00
6.250000e+00
1.250000e+01
1.875000e+01
2.500000e+01
3.125000e+01
3.750000e+01
4.375000e+01
5.000000e+01
5.625000e+01
6.250000e+01
6.875000e+01
7.500000e+01
8.125000e+01
8.750000e+01
9.375000e+01
1.000000e+02
1.062500e+02
1.125000e+02
1.187500e+02
1.250000e+02
1.312500e+02
1.375000e+02
1.437500e+02
1.500000e+02
1.562500e+02
1.625000e+02
1.687500e+02
1.750000e+02
1.812500e+02
1.875000e+02
1.937500e+02
2.000000e+02
0.000000e+00
6.250000e+00
1.250000e+01
1.875000e+01
2.500000e+01
3.125000e+01
3.750000e+01
4.375000e+01
5.000000e+01
5.625000e+01
6.250000e+01
6.875000e+01
7.500000e+01
8.125000e+01
8.750000e+01
9.375000e+01
1.000000e+02
1.062500e+02
1.125000e+02
1.187500e+02
1.250000e+02
1.312500e+02
1.375000e+02
1.437500e+02
1.500000e+02
1.562500e+02
1.625000e+02
1.687500e+02
1.750000e+02
1.812500e+02
1.875000e+02
1.937500e+02
2.000000e+02
0.000000e+00
6.250000e+00
1.250000e+01
1.875000e+01
2.500000e+01
3.125000e+01
3.750000e+01
4.375000e+01
5.000000e+01
5.625000e+01
6.250000e+01
6.875000e+01
7.500000e+01
8.125000e+01
8.750000e+01
9.375000e+01
1.000000e+02
1.062500e+02
1.125000e+02
1.187500e+02
1.250000e+02
1.312500e+02
1.375000e+02
1.437500e+02
1.500000e+02
1.562500e+02
1.625000e+02
1.687500e+02
1.750000e+02
1.812500e+02
1.875000e+02
1.937500e+02
2.000000e+02
0.000000e+00
6.250000e+00
1.250000e+01
1.875000e+01
2.500000e+01
3.125000e+01
3.750000e+01
4.375000e+01
5.000000e+01
5.625000e+01
6.250000e+01
6.875000e+01
7.500000e+01
8.125000e+01
8.750000e+01
9.375000e+01
1.000000e+02
1.062500e+02
1.125000e+02
1.187500e+02
1.250000e+02
1.312500e+02
1.375000e+02
1.437500e+02
1.500000e+02
1.562500e+02
1.625000e+02
1.687500e+02
1.750000e+02
1.812500e+02
1.875000e+02
1.937500e+02
2.000000e+02
0.000000e+00
6.250000e+00
1.250000e+01
1.875000e+01
2.500000e+01
3.125000e+01
3.750000e+01
4.375000e+01
5.000000e+01
5.625000e+01
6.250000e+01
6.875000e+01
7.500000e+01
8.125000e+01
8.750000e+01
9.375000e+01
1.000000e+02
1.062500e+02
1.125000e+02
1.187500e+02
1.250000e+02
1.312500e+02
1.375000e+02
1.437500e+02
1.500000e+02
1.562500e+02
1.625000e+02
1.687500e+02
1.750000e+02
1.812500e+02
1.875000e+02
1.937500e+02
2.000000e+02
0.000000e+00
6.250000e+00
1.250000e+01
1.875000e+01
2.500000e+01
3.125000e+01
3.750000e+01
4.375000e+01
5.000000e+01
5.625000e+01
6.250000e+01
6.875000e+01
7.500000e+01
8.125000e+01
8.750000e+01
9.375000e+01
1.000000e+02
1.062500e+02
1.125000e+02
1.187500e+02
1.250000e+02
1.312500e+02
1.375000e+02
1.437500e+02
1.500000e+02
1.562500e+02
1.625000e+02
1.687500e+02
1.750000e+02
1.812500e+02
1.875000e+02
1.937500e+02
2.000000e+02
0.000000e+00
6.250000e+00
1.250000e+01
1.875000e+01
2.500000e+01
3.125000e+01
3.750000e+01
4.375000e+01
5.000000e+01
5.625000e+01
6.250000e+01
6.875000e+01
7.500000e+01
8.125000e+01
8.750000e+01
9.375000e+01
1.000000e+02
1.062500e+02
1.125000e+02
1.187500e+02
1.250000e+02
1.312500e+02
1.375000e+02
1.437500e+02
1.500000e+02
1.562500e+02
1.625000e+02
1.687500e+02
1.750000e+02
1.812500e+02
1.875000e+02
1.937500e+02
2.000000e+02
0.000000e+00
6.250000e+00
1.250000e+01
1.875000e+01
2.500000e+01
3.125000e+01
3.750000e+01
4.375000e+01
5.000000e+01
5.625000e+01
6.250000e+01
6.875000e+01
7.500000e+01
8.125000e+01
8.750000e+01
9.375000e+01
1.000000e+02
1.062500e+02
1.125000e+02
1.187500e+02
1.250000e+02
1.312500e+02
1.375000e+02
1.437500e+02
1.500000e+02
1.562500e+02
1.625000e+02
1.687500e+02
1.750000e+02
1.812500e+02
1.875000e+02
1.937500e+02
2.000000e+02
0.000000e+00
6.250000e+00
1.250000e+01
1.875000e+01
2.500000e+01
3.125000e+01
3.750000e+01
4.375000e+01
5.000000e+01
5.625000e+01
6.250000e+01
6.875000e+01
7.500000e+01
8.125000e+01
8.750000e+01
9.375000e+01
1.000000e+02
1.062500e+02
1.125000e+02
1.187500e+02
1.250000e+02
1.312500e+02
1.375000e+02
1.437500e+02
1.500000e+02
1.562500e+02
1.625000e+02
1.687500e+02
1.750000e+02
1.812500e+02
1.875000e+02
1.937500e+02
2.000000e+02
0.000000e+00
6.250000e+00
1.250000e+01
1.875000e+01
2.500000e+01
3.125000e+01
3.750000e+01
4.375000e+01
5.000000e+01
5.625000e+01
6.250000e+01
6.875000e+01
7.500000e+01
8.125000e+01
8.750000e+01
9.375000e+01
1.000000e+02
1.062500e+02
1.125000e+02
1.187500e+02
1.250000e+02
1.312500e+02
1.375000e+02
1.437500e+02
1.500000e+02
1.562500e+02
1.625000e+02
1.687500e+02
1.750000e+02
1.812500e+02
1.875000e+02
1.937500e+02
2.000000e+02
0.000000e+00
6.250000e+00
1.250000e+01
1.875000e+01
2.500000e+01
3.125000e+01
3.750000e+01
4.375000e+01
5.000000e+01
5.625000e+01
6.250000e+01
6.875000e+01
7.500000e+01
8.125000e+01
8.750000e+01
9.375000e+01
1.000000e+02
1.062500e+02
1.125000e+02
1.187500e+02
1.250000e+02
1.312500e+02
1.375000e+02
1.437500e+02
1.500000e+02
1.562500e+02
1.625000e+02
1.687500e+02
1.750000e+02
1.812500e+02
1.875000e+02
1.937500e+02
2.000000e+02
0.000000e+00
0.000000e+00
0.000000e+00
0.000000e+00
0.000000e+00
0.000000e+00
0.000000e+00
0.000000e+00
0.000000e+00
0.000000e+00
0.000000e+00
0.000000e+00
0.000000e+00
0.000000e+00
0.000000e+00
0.000000e+00
0.000000e+00
0.000000e+00
0.000000e+00
0.000000e+00
0.000000e+00
0.000000e+00
0.000000e+00
0.000000e+00
0.000000e+00
0.000000e+00
0.000000e+00
0.000000e+00
0.000000e+00
0.000000e+00
0.000000e+00
0.000000e+00
0.000000e+00
6.250000e+00
6.250000e+00
6.250000e+00
6.250000e+00
6.250000e+00
6.250000e+00
6.250000e+00
6.250000e+00
6.250000e+00
6.250000e+00
6.250000e+00
6.250000e+00
6.250000e+00
6.250000e+00
6.250000e+00
6.250000e+00
6.250000e+00
6.250000e+00
6.250000e+00
6.250000e+00
6.250000e+00
6.250000e+00
6.250000e+00
6.250000e+00
6.250000e+00
6.250000e+00
6.250000e+00
6.250000e+00
6.250000e+00
6.250000e+00
6.250000e+00
6.250000e+00
6.250000e+00
1.250000e+01
1.250000e+01
1.250000e+01
1.250000e+01
1.250000e+01
1.250000e+01
1.250000e+01
1.250000e+01
1.250000e+01
1.250000e+01
1.250000e+01
1.250000e+01
1.250000e+01
1.250000e+01
1.250000e+01
1.250000e+01
1.250000e+01
1.250000e+01
1.250000e+01
1.250000e+01
1.250000e+01
1.250000e+01
1.250000e+01
1.250000e+01
1.250000e+01
1.250000e+01
1.250000e+01
1.250000e+01
1.250000e+01
1.250000e+01
1.250000e+01
1.250000e+01
1.250000e+01
1.875000e+01
1.875000e+01
1.875000e+01
1.875000e+01
1.875000e+01
1.875000e+01
1.875000e+01
1.875000e+01
1.875000e+01
1.875000e+01
1.875000e+01
1.875000e+01
1.875000e+01
1.875000e+01
1.875000e+01
1.875000e+01
1.875000e+01
1.875000e+01
1.875000e+01
1.875000e+01
1.875000e+01
1.875000e+01
1.875000e+01
1.875000e+01
1.875000e+01
1.875000e+01
1.875000e+01
1.875000e+01
1.875000e+01
1.875000e+01
1.875000e+01
1.875000e+01
1.875000e+01
2.500000e+01
2.500000e+01
2.500000e+01
2.500000e+01
2.500000e+01
2.500000e+01
2.500000e+01
2.500000e+01
2.500000e+01
2.500000e+01
2.500000e+01
2.500000e+01
2.500000e+01
2.500000e+01
2.500000e+01
2.500000e+01
2.500000e+01
2.500000e+01
2.500000e+01
2.500000e+01
2.500000e+01
2.500000e+01
2.500000e+01
2.500000e+01
2.500000e+01
2.500000e+01
2.500000e+01
2.500000e+01
2.500000e+01
2.500000e+01
2.500000e+01
2.500000e+01
2.500000e+01
3.125000e+01
3.125000e+01
3.125000e+01
3.125000e+01
3.125000e+01
3.125000e+01
3.125000e+01
3.125000e+01
3.125000e+01
3.125000e+01
3.125000e+01
3.125000e+01
3.125000e+01
3.125000e+01
3.125000e+01
3.125000e+01
3.125000e+01
3.125000e+01
3.125000e+01
3.125000e+01
3.125000e+01
3.125000e+01
3.125000e+01
3.125000e+01
3.125000e+01
3.125000e+01
3.125000e+01
3.125000e+01
3.125000e+01
3.125000e+01
3.125000e+01
3.125000e+01
3.125000e+01
3.750000e+01
3.750000e+01
3.750000e+01
3.750000e+01
3.750000e+01
3.750000e+01
3.750000e+01
3.750000e+01
3.750000e+01
3.750000e+01
3.750000e+01
3.750000e+01
3.750000e+01
3.750000e+01
3.750000e+01
3.750000e+01
3.750000e+01
3.750000e+01
3.750000e+01
3.750000e+01
3.750000e+01
3.750000e+01
3.750000e+01
3.750000e+01
3.750000e+01
3.750000e+01
3.750000e+01
3.750000e+01
3.750000e+01
3.750000e+01
3.750000e+01
3.750000e+01
3.750000e+01
4.375000e+01
4.375000e+01
4.375000e+01
4.375000e+01
4.375000e+01
4.375000e+01
4.375000e+01
4.375000e+01
4.375000e+01
4.375000e+01
4.375000e+01
4.375000e+01
4.375000e+01
4.375000e+01
4.375000e+01
4.375000e+01
4.375000e+01
4.375000e+01
4.375000e+01
4.375000e+01
4.375000e+01
4.375000e+01
4.375000e+01
4.375000e+01
4.375000e+01
4.375000e+01
4.375000e+01
4.375000e+01
4.375000e+01
4.375000e+01
4.375000e+01
4.375000e+01
4.375000e+01
5.000000e+01
5.000000e+01
5.000000e+01
5.000000e+01
5.000000e+01
5.000000e+01
5.000000e+01
5.000000e+01
5.000000e+01
5.000000e+01
5.000000e+01
5.000000e+01
5.000000e+01
5.000000e+01
5.000000e+01
5.000000e+01
5.000000e+01
5.000000e+01
5.000000e+01
5.000000e+01
5.000000e+01
5.000000e+01
5.000000e+01
5.000000e+01
5.000000e+01
5.000000e+01
5.000000e+01
5.000000e+01
5.000000e+01
5.000000e+01
5.000000e+01
5.000000e+01
5.000000e+01
5.625000e+01
5.625000e+01
5.625000e+01
5.625000e+01
5.625000e+01
5.625000e+01
5.625000e+01
5.625000e+01
5.625000e+01
5.625000e+01
5.625000e+01
5.625000e+01
5.625000e+01
5.625000e+01
5.625000e+01
5.625000e+01
5.625000e+01
5.625000e+01
5.625000e+01
5.625000e+01
5.625000e+01
5.625000e+01
5.625000e+01
5.625000e+01
5.625000e+01
5.625000e+01
5.625000e+01
5.625000e+01
5.625000e+01
5.625000e+01
5.625000e+01
5.625000e+01
5.625000e+01
6.250000e+01
6.250000e+01
6.250000e+01
6.250000e+01
6.250000e+01
6.250000e+01
6.250000e+01
6.250000e+01
6.250000e+01
6.250000e+01
6.250000e+01
6.250000e+01
6.250000e+01
6.250000e+01
6.250000e+01
6.250000e+01
6.250000e+01
6.250000e+01
6.250000e+01
6.250000e+01
6.250000e+01
6.250000e+01
6.250000e+01
6.250000e+01
6.250000e+01
6.250000e+01
6.250000e+01
6.250000e+01
6.250000e+01
6.250000e+01
6.250000e+01
6.250000e+01
6.250000e+01
6.875000e+01
6.875000e+01
6.875000e+01
6.875000e+01
6.875000e+01
6.875000e+01
6.875000e+01
6.875000e+01
6.875000e+01
6.875000e+01
6.875000e+01
6.875000e+01
6.875000e+01
6.875000e+01
6.875000e+01
6.875000e+01
6.875000e+01
6.875000e+01
6.875000e+01
6.875000e+01
6.875000e+01
6.875000e+01
6.875000e+01
6.875000e+01
6.875000e+01
6.875000e+01
6.875000e+01
6.875000e+01
6.875000e+01
6.875000e+01
6.875000e+01
6.875000e+01
6.875000e+01
7.500000e+01
7.500000e+01
7.500000e+01
7.500000e+01
7.500000e+01
7.500000e+01
7.500000e+01
7.500000e+01
7.500000e+01
7.500000e+01
7.500000e+01
7.500000e+01
7.500000e+01
7.500000e+01
7.500000e+01
7.500000e+01
7.500000e+01
7.500000e+01
7.500000e+01
7.500000e+01
7.500000e+01
7.500000e+01
7.500000e+01
7.500000e+01
7.500000e+01
7.500000e+01
7.500000e+01
7.500000e+01
7.500000e+01
7.500000e+01
7.500000e+01
7.500000e+01
7.500000e+01
8.125000e+01
8.125000e+01
8.125000e+01
8.125000e+01
8.125000e+01
8.125000e+01
8.125000e+01
8.125000e+01
8.125000e+01
8.125000e+01
8.125000e+01
8.125000e+01
8.125000e+01
8.125000e+01
8.125000e+01
8.125000e+01
8.125000e+01
8.125000e+01
8.125000e+01
8.125000e+01
8.125000e+01
8.125000e+01
8.125000e+01
8.125000e+01
8.125000e+01
8.125000e+01
8.125000e+01
8.125000e+01
8.125000e+01
8.125000e+01
8.125000e+01
8.125000e+01
8.125000e+01
8.750000e+01
8.750000e+01
8.750000e+01
8.750000e+01
8.750000e+01
8.750000e+01
8.750000e+01
8.750000e+01
8.750000e+01
8.750000e+01
8.750000e+01
8.750000e+01
8.750000e+01
8.750000e+01
8.750000e+01
8.750000e+01
8.750000e+01
8.750000e+01
8.750000e+01
8.750000e+01
8.750000e+01
8.750000e+01
8.750000e+01
8.750000e+01
8.750000e+01
8.750000e+01
8.750000e+01
8.750000e+01
8.750000e+01
8.750000e+01
8.750000e+01
8.750000e+01
8.750000e+01
9.375000e+01
9.375000e+01
9.375000e+01
9.375000e+01
9.375000e+01
9.375000e+01
9.375000e+01
9.375000e+01
9.375000e+01
9.375000e+01
9.375000e+01
9.375000e+01
9.375000e+01
9.375000e+01
9.375000e+01
9.375000e+01
9.375000e+01
9.375000e+01
9.375000e+01
9.375000e+01
9.375000e+01
9.375000e+01
9.375000e+01
9.375000e+01
9.375000e+01
9.375000e+01
9.375000e+01
9.375000e+01
9.375000e+01
9.375000e+01
9.375000e+01
9.375000e+01
9.375000e+01
1.000000e+02
1.000000e+02
1.000000e+02
1.000000e+02
1.000000e+02
1.000000e+02
1.000000e+02
1.000000e+02
1.000000e+02
1.000000e+02
1.000000e+02
1.000000e+02
1.000000e+02
1.000000e+02
1.000000e+02
1.000000e+02
1.000000e+02
1.000000e+02
1.000000e+02
1.000000e+02
1.000000e+02
1.000000e+02
1.000000e+02
1.000000e+02
1.000000e+02
1.000000e+02
1.000000e+02
1.000000e+02
1.000000e+02
1.000000e+02
1.000000e+02
1.000000e+02
1.000000e+02
0.000000e+00
-4.478418e-01
-7.818583e-01
-1.120005e+00
-1.380624e+00
-1.679157e+00
-1.974028e+00
-2.309752e+00
-2.613180e+00
-2.886324e+00
-3.144942e+00
-3.447275e+00
-3.746900e+00
-4.051819e+00
-4.297240e+00
-4.581875e+00
-4.901993e+00
-5.164331e+00
-5.467864e+00
-5.744922e+00
-6.055151e+00
-6.337841e+00
-6.618751e+00
-6.880739e+00
-7.176885e+00
-7.448710e+00
-7.746177e+00
-8.074954e+00
-8.361800e+00
-8.702311e+00
-9.193089e+00
-9.635021e+00
-9.841240e+00
0.000000e+00
-2.380936e-01
-4.822283e-01
-7.442595e-01
-9.982909e-01
-1.246848e+00
-1.505202e+00
-1.744624e+00
-1.996214e+00
-2.240522e+00
-2.483848e+00
-2.753654e+00
-3.047642e+00
-3.323842e+00
-3.565323e+00
-3.809733e+00
-4.064439e+00
-4.301094e+00
-4.547568e+00
-4.798928e+00
-5.041275e+00
-5.292373e+00
-5.537716e+00
-5.782397e+00
-6.037537e+00
-6.276990e+00
-6.525129e+00
-6.788013e+00
-7.018924e+00
-7.265080e+00
-7.538272e+00
-7.642834e+00
-7.747488e+00
0.000000e+00
-1.092203e-01
-2.349662e-01
-4.245690e-01
-6.593705e-01
-8.684181e-01
-1.063167e+00
-1.227748e+00
-1.413546e+00
-1.643964e+00
-1.882164e+00
-2.129791e+00
-2.393370e+00
-2.655115e+00
-2.892440e+00
-3.089115e+00
-3.281387e+00
-3.480089e+00
-3.691762e+00
-3.901639e+00
-4.093764e+00
-4.304560e+00
-4.531274e+00
-4.758678e+00
-4.978742e+00
-5.185544e+00
-5.383666e+00
-5.576277e+00
-5.743618e+00
-5.892444e+00
-5.976705e+00
-5.979356e+00
-6.069048e+00
0.000000e+00
-2.944450e-02
-7.878358e-02
-2.038831e-01
-3.729215e-01
-5.428873e-01
-6.781899e-01
-8.221300e-01
-9.951124e-01
-1.237446e+00
-1.455032e+00
-1.652884e+00
-1.840817e+00
-2.079970e+00
-2.266938e+00
-2.432170e+00
-2.584448e+00
-2.749282e+00
-2.939464e+00
-3.104938e+00
-3.285100e+00
-3.468249e+00
-3.675823e+00
-3.857643e+00
-4.038780e+00
-4.194965e+00
-4.340413e+00
-4.466292e+00
-4.558924e+00
-4.613004e+00
-4.625417e+00
-4.639080e+00
-4.721344e+00
0.000000e+00
-1.858903e-02
-5.519754e-02
-1.404425e-01
-2.699404e-01
-3.809373e-01
-5.194582e-01
-6.314821e-01
-7.774420e-01
-9.203615e-01
-1.070376e+00
-1.212993e+00
-1.373661e+00
-1.547370e+00
-1.725183e+00
-1.883406e+00
-2.026539e+00
-2.175330e+00
-2.309429e+00
-2.458439e+00
-2.594619e+00
-2.739618e+00
-2.873832e+00
-3.010233e+00
-3.136599e+00
-3.249961e+00
-3.343985e+00
-3.419334e+00
-3.476461e+00
-3.504488e+00
-3.496914e+00
-3.520600e+00
-3.591859e+00
0.000000e+00
-4.204514e-02
-8.015912e-02
-1.318649e-01
-1.988837e-01
-2.827481e-01
-3.680933e-01
-4.576450e-01
-5.382012e-01
-6.323430e-01
-7.336817e-01
-8.497695e-01
-9.739532e-01
-1.105794e+00
-1.234739e+00
-1.368950e+00
-1.491113e+00
-1.603013e+00
-1.712577e+00
-1.816746e+00
-1.920137e+00
-2.015272e+00
-2.108203e+00
-2.196260e+00
-2.276794e+00
-2.343362e+00
-2.394619e+00
-2.429941e+00
-2.445925e+00
-2.443659e+00
-2.446197e+00
-2.472822e+00
-2.528071e+00
0.000000e+00
-3.455326e-02
-6.508738e-02
-9.428303e-02
-1.316402e-01
-1.763174e-01
-2.270345e-01
-2.801846e-01
-3.379366e-01
-3.998912e-01
-4.691748e-01
-5.395780e-01
-6.156005e-01
-6.905713e-01
-7.776192e-01
-8.701598e-01
-9.595670e-01
-1.040685e+00
-1.115074e+00
-1.184996e+00
-1.249991e+00
-1.310652e+00
-1.365385e+00
-1.413576e+00
-1.453286e+00
-1.481111e+00
-1.493010e+00
-1.489572e+00
-1.469444e+00
-1.442535e+00
-1.425419e+00
-1.445604e+00
-1.507715e+00
0.000000e+00
-1.620286e-02
-2.968412e-02
-4.155020e-02
-5.467936e-02
-7.148233e-02
-9.173579e-02
-1.142354e-01
-1.381528e-01
-1.638505e-01
-1.921194e-01
-2.239618e-01
-2.577421e-01
-2.970532e-01
-3.422074e-01
-3.933579e-01
-4.424392e-01
-4.871873e-01
-5.262331e-01
-5.604495e-01
-5.904112e-01
-6.162816e-01
-6.366530e-01
-6.490407e-01
-6.529542e-01
-6.482245e-01
-6.318244e-01
-5.925702e-01
-5.376138e-01
-4.887533e-01
-4.645420e-01
-4.863699e-01
-5.575874e-01
0.000000e+00
5.146267e-03
1.144689e-02
1.926133e-02
2.796322e-02
3.688623e-02
4.582187e-02
5.501722e-02
6.456251e-02
7.305206e-02
7.829028e-02
7.922216e-02
7.743693e-02
7.560377e-02
7.258287e-02
6.742616e-02
5.993615e-02
5.515268e-02
5.423622e-02
5.625178e-02
5.981467e-02
6.653836e-02
7.884064e-02
9.769659e-02
1.278828e-01
1.747537e-01
2.372043e-01
3.069453e-01
3.705032e-01
4.236249e-01
4.442617e-01
4.148785e-01
3.413239e-01
0.000000e+00
2.709139e-02
5.390560e-02
8.237089e-02
1.136971e-01
1.483258e-01
1.864690e-01
2.270696e-01
2.675621e-01
3.058571e-01
3.429599e-01
3.796229e-01
4.165081e-01
4.534842e-01
4.888615e-01
5.199991e-01
5.518285e-01
5.875392e-01
6.288879e-01
6.684012e-01
7.041130e-01
7.451092e-01
7.956144e-01
8.557532e-01
9.223706e-01
1.001791e+00
1.093227e+00
1.182277e+00
1.254478e+00
1.294689e+00
1.295204e+00
1.253890e+00
1.189394e+00
0.000000e+00
4.789177e-02
9.428123e-02
1.433057e-01
1.992420e-01
2.626124e-01
3.311223e-01
4.035806e-01
4.750582e-01
5.472114e-01
6.179852e-01
6.916452e-01
7.680712e-01
8.458829e-01
9.185598e-01
9.879967e-01
1.052527e+00
1.124350e+00
1.199894e+00
1.273305e+00
1.353293e+00
1.429708e+00
1.517916e+00
1.617905e+00
1.728782e+00
1.837856e+00
1.936982e+00
2.022905e+00
2.086746e+00
2.115852e+00
2.110010e+00
2.080864e+00
2.037304e+00
0.000000e+00
6.565998e-02
1.254004e-01
1.966014e-01
2.819633e-01
3.811669e-01
4.883686e-01
5.878943e-01
6.891754e-01
7.953145e-01
9.101361e-01
1.024313e+00
1.140692e+00
1.245823e+00
1.353555e+00
1.468025e+00
1.585067e+00
1.687303e+00
1.775195e+00
1.866185e+00
1.981721e+00
2.130060e+00
2.270703e+00
2.404207e+00
2.540160e+00
2.670309e+00
2.771916e+00
2.850355e+00
2.907278e+00
2.936225e+00
2.940809e+00
2.923237e+00
2.895589e+00
0.000000e+00
5.187680e-02
1.418065e-01
2.436970e-01
3.670938e-01
5.192418e-01
6.680321e-01
8.184729e-01
9.491659e-01
1.094065e+00
1.235802e+00
1.393833e+00
1.541589e+00
1.688311e+00
1.819409e+00
1.974051e+00
2.142302e+00
2.313848e+00
2.443350e+00
2.561190e+00
2.701209e+00
2.876919e+00
3.056362e+00
3.212144e+00
3.354332e+00
3.492669e+00
3.604740e+00
3.687948e+00
3.749155e+00
3.786322e+00
3.798815e+00
3.792225e+00
3.777598e+00
0.000000e+00
1.297827e-02
9.011304e-02
2.699206e-01
4.981664e-01
6.602809e-01
8.637566e-01
1.044942e+00
1.258639e+00
1.418885e+00
1.628644e+00
1.776252e+00
1.947539e+00
2.135151e+00
2.337033e+00
2.521259e+00
2.694677e+00
2.900133e+00
3.117324e+00
3.295667e+00
3.472262e+00
3.654685e+00
3.839823e+00
4.019504e+00
4.177109e+00
4.322357e+00
4.448581e+00
4.552032e+00
4.626803e+00
4.672721e+00
4.694032e+00
4.696508e+00
4.691586e+00
0.000000e+00
7.957576e-02
2.100900e-01
4.176968e-01
6.604255e-01
9.211585e-01
1.122614e+00
1.351153e+00
1.572110e+00
1.802158e+00
2.036170e+00
2.255078e+00
2.439263e+00
2.656536e+00
2.906897e+00
3.144513e+00
3.337817e+00
3.531526e+00
3.762556e+00
3.998373e+00
4.225152e+00
4.439176e+00
4.626648e+00
4.827963e+00
5.032414e+00
5.209945e+00
5.356404e+00
5.469990e+00
5.551890e+00
5.604328e+00
5.631605e+00
5.640443e+00
5.641424e+00
0.000000e+00
2.403567e-01
5.157173e-01
7.712120e-01
1.044833e+00
1.335624e+00
1.581232e+00
1.838242e+00
2.088085e+00
2.327064e+00
2.576101e+00
2.826266e+00
3.069499e+00
3.321591e+00
3.561211e+00
3.815456e+00
4.057990e+00
4.294228e+00
4.546632e+00
4.773394e+00
5.019433e+00
5.272540e+00
5.496699e+00
5.733904e+00
5.976075e+00
6.179806e+00
6.338593e+00
6.456110e+00
6.536983e+00
6.586637e+00
6.612035e+00
6.621244e+00
6.623484e+00
0.000000e+00
4.915799e-01
8.795871e-01
1.176939e+00
1.502015e+00
1.804478e+00
2.100647e+00
2.376007e+00
2.669021e+00
2.910646e+00
3.196313e+00
3.464358e+00
3.774555e+00
4.057261e+00
4.300574e+00
4.563571e+00
4.853930e+00
5.155796e+00
5.451763e+00
5.686071e+00
5.949877e+00
6.220561e+00
6.488523e+00
6.762064e+00
7.039395e+00
7.253953e+00
7.415016e+00
7.525882e+00
7.592383e+00
7.622820e+00
7.628729e+00
7.624449e+00
7.621956e+00
0.000000e+00
-2.572211e-01
-5.398588e-01
-9.156245e-01
-1.327402e+00
-1.771672e+00
-2.247554e+00
-2.778219e+00
-3.371967e+00
-4.004291e+00
-4.664120e+00
-5.356338e+00
-6.074672e+00
-6.811564e+00
-7.565246e+00
-8.352874e+00
-9.186165e+00
-1.006128e+01
-1.098290e+01
-1.193607e+01
-1.293361e+01
-1.397830e+01
-1.505888e+01
-1.617076e+01
-1.731511e+01
-1.849381e+01
-1.972340e+01
-2.100494e+01
-2.234146e+01
-2.376468e+01
-2.528484e+01
-2.703331e+01
-2.953470e+01
0.000000e+00
-1.597854e-01
-4.522093e-01
-8.310375e-01
-1.252168e+00
-1.690025e+00
-2.166355e+00
-2.693658e+00
-3.291521e+00
-3.929377e+00
-4.583649e+00
-5.265290e+00
-5.984332e+00
-6.732246e+00
-7.491735e+00
-8.269836e+00
-9.105626e+00
-9.984981e+00
-1.090248e+01
-1.185705e+01
-1.285111e+01
-1.389868e+01
-1.498144e+01
-1.609160e+01
-1.723514e+01
-1.841584e+01
-1.963772e+01
-2.092267e+01
-2.226230e+01
-2.366896e+01
-2.520489e+01
-2.694835e+01
-2.914386e+01
0.000000e+00
-1.278900e-01
-3.887698e-01
-7.601139e-01
-1.185561e+00
-1.629796e+00
-2.110518e+00
-2.638177e+00
-3.221500e+00
-3.860120e+00
-4.504788e+00
-5.175998e+00
-5.890969e+00
-6.656173e+00
-7.423027e+00
-8.208304e+00
-9.041228e+00
-9.919087e+00
-1.083994e+01
-1.179307e+01
-1.278759e+01
-1.382531e+01
-1.491092e+01
-1.601816e+01
-1.716810e+01
-1.834880e+01
-1.957415e+01
-2.086290e+01
-2.220422e+01
-2.363051e+01
-2.520652e+01
-2.685847e+01
-2.856092e+01
0.000000e+00
-1.370439e-01
-3.643424e-01
-7.122483e-01
-1.140347e+00
-1.589991e+00
-2.083463e+00
-2.600573e+00
-3.169239e+00
-3.794309e+00
-4.435000e+00
-5.097939e+00
-5.799258e+00
-6.575422e+00
-7.361521e+00
-8.164024e+00
-8.993312e+00
-9.869038e+00
-1.079083e+01
-1.174685e+01
-1.273797e+01
-1.376671e+01
-1.484806e+01
-1.595695e+01
-1.711418e+01
-1.829995e+01
-1.953366e+01
-2.082766e+01
-2.217783e+01
-2.361783e+01
-2.519403e+01
-2.670915e+01
-2.806743e+01
0.000000e+00
-1.730293e-01
-3.852810e-01
-7.103042e-01
-1.134319e+00
-1.569925e+00
-2.085223e+00
-2.581980e+00
-3.142916e+00
-3.747745e+00
-4.388799e+00
-5.047373e+00
-5.743577e+00
-6.502090e+00
-7.298048e+00
-8.121159e+00
-8.956439e+00
-9.839369e+00
-1.075140e+01
-1.171592e+01
-1.270110e+01
-1.373316e+01
-1.480339e+01
-1.591845e+01
-1.707543e+01
-1.826995e+01
-1.950948e+01
-2.080607e+01
-2.216995e+01
-2.358292e+01
-2.510025e+01
-2.649951e+01
-2.769679e+01
0.000000e+00
-2.010105e-01
-4.284695e-01
-7.427633e-01
-1.132555e+00
-1.575368e+00
-2.065127e+00
-2.581603e+00
-3.128744e+00
-3.728559e+00
-4.360598e+00
-5.018392e+00
-5.714884e+00
-6.457195e+00
-7.243879e+00
-8.075836e+00
-8.927558e+00
-9.811094e+00
-1.073024e+01
-1.168773e+01
-1.268184e+01
-1.371308e+01
-1.478423e+01
-1.589872e+01
-1.705643e+01
-1.825368e+01
-1.949472e+01
-2.079239e+01
-2.214939e+01
-2.352643e+01
-2.494620e+01
-2.629596e+01
-2.744831e+01
0.000000e+00
-2.099302e-01
-4.591073e-01
-7.697869e-01
-1.146214e+00
-1.579933e+00
-2.061355e+00
-2.577887e+00
-3.131546e+00
-3.720630e+00
-4.348156e+00
-5.004921e+00
-5.706346e+00
-6.435675e+00
-7.214899e+00
-8.044601e+00
-8.904440e+00
-9.792832e+00
-1.071545e+01
-1.167459e+01
-1.267096e+01
-1.370544e+01
-1.477893e+01
-1.589456e+01
-1.705226e+01
-1.824913e+01
-1.948678e+01
-2.078095e+01
-2.210673e+01
-2.344011e+01
-2.479354e+01
-2.609423e+01
-2.721094e+01
0.000000e+00
-2.149540e-01
-4.746718e-01
-7.884450e-01
-1.160815e+00
-1.588792e+00
-2.064884e+00
-2.581528e+00
-3.136202e+00
-3.725559e+00
-4.345605e+00
-5.006082e+00
-5.705900e+00
-6.435018e+00
-7.208476e+00
-8.032960e+00
-8.892895e+00
-9.784716e+00
-1.071047e+01
-1.167196e+01
-1.267020e+01
-1.370633e+01
-1.478260e+01
-1.590036e+01
-1.705617e+01
-1.825132e+01
-1.948511e+01
-2.075805e+01
-2.204635e+01
-2.334264e+01
-2.463755e+01
-2.586603e+01
-2.691187e+01
0.000000e+00
-2.174977e-01
-4.819409e-01
-7.991072e-01
-1.172101e+00
-1.599227e+00
-2.074828e+00
-2.592249e+00
-3.148007e+00
-3.737165e+00
-4.357945e+00
-5.016786e+00
-5.716383e+00
-6.447155e+00
-7.221102e+00
-8.039893e+00
-8.895795e+00
-9.788754e+00
-1.071674e+01
-1.167907e+01
-1.267872e+01
-1.371400e+01
-1.479195e+01
-1.591252e+01
-1.706434e+01
-1.825721e+01
-1.947904e+01
-2.072806e+01
-2.198116e+01
-2.324196e+01
-2.448082e+01
-2.563735e+01
-2.661966e+01
0.000000e+00
-2.173034e-01
-4.832472e-01
-8.033002e-01
-1.179556e+00
-1.610540e+00
-2.090371e+00
-2.611102e+00
-3.166791e+00
-3.757290e+00
-4.379802e+00
-5.038178e+00
-5.736805e+00
-6.471486e+00
-7.246233e+00
-8.061532e+00
-8.912390e+00
-9.806575e+00
-1.073731e+01
-1.169536e+01
-1.269310e+01
-1.372742e+01
-1.480668e+01
-1.592407e+01
-1.707614e+01
-1.825941e+01
-1.946641e+01
-2.068950e+01
-2.192011e+01
-2.314038e+01
-2.432222e+01
-2.540222e+01
-2.633866e+01
0.000000e+00
-2.132882e-01
-4.780554e-01
-8.017439e-01
-1.184013e+00
-1.623234e+00
-2.111902e+00
-2.639029e+00
-3.193444e+00
-3.785665e+00
-4.409307e+00
-5.068468e+00
-5.769769e+00
-6.509929e+00
-7.279860e+00
-8.090448e+00
-8.939372e+00
-9.839644e+00
-1.077576e+01
-1.171700e+01
-1.270985e+01
-1.374554e+01
-1.482534e+01
-1.593522e+01
-1.708290e+01
-1.826112e+01
-1.944886e+01
-2.064785e+01
-2.185731e+01
-2.304135e+01
-2.417526e+01
-2.522050e+01
-2.614426e+01
0.000000e+00
-2.016511e-01
-4.630515e-01
-7.947841e-01
-1.188659e+00
-1.640361e+00
-2.142002e+00
-2.674184e+00
-3.229248e+00
-3.819972e+00
-4.448225e+00
-5.109656e+00
-5.818549e+00
-6.557889e+00
-7.321598e+00
-8.126518e+00
-8.977344e+00
-9.889837e+00
-1.081504e+01
-1.174574e+01
-1.272534e+01
-1.376989e+01
-1.484746e+01
-1.594921e+01
-1.708790e+01
-1.826155e+01
-1.943373e+01
-2.061506e+01
-2.180378e+01
-2.296086e+01
-2.406374e+01
-2.509140e+01
-2.601851e+01
0.000000e+00
-1.690506e-01
-4.406718e-01
-7.826236e-01
-1.202628e+00
-1.672837e+00
-2.179234e+00
-2.714132e+00
-3.271630e+00
-3.861987e+00
-4.497756e+00
-5.172707e+00
-5.871499e+00
-6.607456e+00
-7.367680e+00
-8.183786e+00
-9.036034e+00
-9.936492e+00
-1.084642e+01
-1.177497e+01
-1.275605e+01
-1.380116e+01
-1.487338e+01
-1.596864e+01
-1.709583e+01
-1.826258e+01
-1.943090e+01
-2.059922e+01
-2.176845e+01
-2.290155e+01
-2.398577e+01
-2.500563e+01
-2.594691e+01
0.000000e+00
-1.263352e-01
-4.026158e-01
-7.859329e-01
-1.244647e+00
-1.709815e+00
-2.231090e+00
-2.753809e+00
-3.336328e+00
-3.910041e+00
-4.572542e+00
-5.232752e+00
-5.928354e+00
-6.658548e+00
-7.434068e+00
-8.258063e+00
-9.097986e+00
-9.975281e+00
-1.088596e+01
-1.181462e+01
-1.280055e+01
-1.383868e+01
-1.490072e+01
-1.599076e+01
-1.711339e+01
-1.827515e+01
-1.944025e+01
-2.060231e+01
-2.174931e+01
-2.286510e+01
-2.393614e+01
-2.495444e+01
-2.591554e+01
0.000000e+00
-1.167790e-01
-4.219364e-01
-8.321312e-01
-1.286504e+00
-1.769968e+00
-2.282102e+00
-2.820241e+00
-3.402459e+00
-3.995555e+00
-4.635438e+00
-5.289853e+00
-5.985333e+00
-6.731764e+00
-7.516543e+00
-8.320323e+00
-9.148806e+00
-1.001997e+01
-1.093960e+01
-1.187788e+01
-1.285620e+01
-1.388501e+01
-1.493250e+01
-1.602009e+01
-1.715090e+01
-1.830523e+01
-1.946570e+01
-2.061624e+01
-2.174788e+01
-2.284902e+01
-2.391029e+01
-2.492861e+01
-2.590979e+01
0.000000e+00
-1.528145e-01
-4.914803e-01
-9.037997e-01
-1.357837e+00
-1.842441e+00
-2.349567e+00
-2.895258e+00
-3.472865e+00
-4.076443e+00
-4.702195e+00
-5.357089e+00
-6.052643e+00
-6.812240e+00
-7.592887e+00
-8.385949e+00
-9.206800e+00
-1.007951e+01
-1.100753e+01
-1.195337e+01
-1.292765e+01
-1.394328e+01
-1.498407e+01
-1.607466e+01
-1.720560e+01
-1.835259e+01
-1.950048e+01
-2.063936e+01
-2.175865e+01
-2.284849e+01
-2.390187e+01
-2.491924e+01
-2.591419e+01
0.000000e+00
-2.648838e-01
-5.815700e-01
-9.877467e-01
-1.447617e+00
-1.925884e+00
-2.430778e+00
-2.975908e+00
-3.550260e+00
-4.151420e+00
-4.781685e+00
-5.435796e+00
-6.137557e+00
-6.889086e+00
-7.666609e+00
-8.462833e+00
-9.284931e+00
-1.016061e+01
-1.108206e+01
-1.202605e+01
-1.300749e+01
-1.401606e+01
-1.505743e+01