TITLE = "Solution"
VARIABLES = x, y, u, v, psiu, psiv, t, stress
ZONE T="structure" N=153 E=128 F=FEBLOCK ET=QUADRILATERAL VARLOCATION=([7,8]=cellcentered)
0.000000e+00
1.250000e+01
2.500000e+01
3.750000e+01
5.000000e+01
6.250000e+01
7.500000e+01
8.750000e+01
1.000000e+02
1.125000e+02
1.250000e+02
1.375000e+02
1.500000e+02
1.625000e+02
1.750000e+02
1.875000e+02
2.000000e+02
0.000000e+00
1.250000e+01
2.500000e+01
3.750000e+01
5.000000e+01
6.250000e+01
7.500000e+01
8.750000e+01
1.000000e+02
1.125000e+02
1.250000e+02
1.375000e+02
1.500000e+02
1.625000e+02
1.750000e+02
1.875000e+02
2.000000e+02
0.000000e+00
1.250000e+01
2.500000e+01
3.750000e+01
5.000000e+01
6.250000e+01
7.500000e+01
8.750000e+01
1.000000e+02
1.125000e+02
1.250000e+02
1.375000e+02
1.500000e+02
1.625000e+02
1.750000e+02
1.875000e+02
2.000000e+02
0.000000e+00
1.250000e+01
2.500000e+01
3.750000e+01
5.000000e+01
6.250000e+01
7.500000e+01
8.750000e+01
1.000000e+02
1.125000e+02
1.250000e+02
1.375000e+02
1.500000e+02
1.625000e+02
1.750000e+02
1.875000e+02
2.000000e+02
0.000000e+00
1.250000e+01
2.500000e+01
3.750000e+01
5.000000e+01
6.250000e+01
7.500000e+01
8.750000e+01
1.000000e+02
1.125000e+02
1.250000e+02
1.375000e+02
1.500000e+02
1.625000e+02
1.750000e+02
1.875000e+02
2.000000e+02
0.000000e+00
1.250000e+01
2.500000e+01
3.750000e+01
5.000000e+01
6.250000e+01
7.500000e+01
8.750000e+01
1.000000e+02
1.125000e+02
1.250000e+02
1.375000e+02
1.500000e+02
1.625000e+02
1.750000e+02
1.875000e+02
2.000000e+02
0.000000e+00
1.250000e+01
2.500000e+01
3.750000e+01
5.000000e+01
6.250000e+01
7.500000e+01
8.750000e+01
1.000000e+02
1.125000e+02
1.250000e+02
1.375000e+02
1.500000e+02
1.625000e+02
1.750000e+02
1.875000e+02
2.000000e+02
0.000000e+00
1.250000e+01
2.500000e+01
3.750000e+01
5.000000e+01
6.250000e+01
7.500000e+01
8.750000e+01
1.000000e+02
1.125000e+02
1.250000e+02
1.375000e+02
1.500000e+02
1.625000e+02
1.750000e+02
1.875000e+02
2.000000e+02
0.000000e+00
1.250000e+01
2.500000e+01
3.750000e+01
5.000000e+01
6.250000e+01
7.500000e+01
8.750000e+01
1.000000e+02
1.125000e+02
1.250000e+02
1.375000e+02
1.500000e+02
1.625000e+02
1.750000e+02
1.875000e+02
2.000000e+02
0.000000e+00
0.000000e+00
0.000000e+00
0.000000e+00
0.000000e+00
0.000000e+00
0.000000e+00
0.000000e+00
0.000000e+00
0.000000e+00
0.000000e+00
0.000000e+00
0.000000e+00
0.000000e+00
0.000000e+00
0.000000e+00
0.000000e+00
1.250000e+01
1.250000e+01
1.250000e+01
1.250000e+01
1.250000e+01
1.250000e+01
1.250000e+01
1.250000e+01
1.250000e+01
1.250000e+01
1.250000e+01
1.250000e+01
1.250000e+01
1.250000e+01
1.250000e+01
1.250000e+01
1.250000e+01
2.500000e+01
2.500000e+01
2.500000e+01
2.500000e+01
2.500000e+01
2.500000e+01
2.500000e+01
2.500000e+01
2.500000e+01
2.500000e+01
2.500000e+01
2.500000e+01
2.500000e+01
2.500000e+01
2.500000e+01
2.500000e+01
2.500000e+01
3.750000e+01
3.750000e+01
3.750000e+01
3.750000e+01
3.750000e+01
3.750000e+01
3.750000e+01
3.750000e+01
3.750000e+01
3.750000e+01
3.750000e+01
3.750000e+01
3.750000e+01
3.750000e+01
3.750000e+01
3.750000e+01
3.750000e+01
5.000000e+01
5.000000e+01
5.000000e+01
5.000000e+01
5.000000e+01
5.000000e+01
5.000000e+01
5.000000e+01
5.000000e+01
5.000000e+01
5.000000e+01
5.000000e+01
5.000000e+01
5.000000e+01
5.000000e+01
5.000000e+01
5.000000e+01
6.250000e+01
6.250000e+01
6.250000e+01
6.250000e+01
6.250000e+01
6.250000e+01
6.250000e+01
6.250000e+01
6.250000e+01
6.250000e+01
6.250000e+01
6.250000e+01
6.250000e+01
6.250000e+01
6.250000e+01
6.250000e+01
6.250000e+01
7.500000e+01
7.500000e+01
7.500000e+01
7.500000e+01
7.500000e+01
7.500000e+01
7.500000e+01
7.500000e+01
7.500000e+01
7.500000e+01
7.500000e+01
7.500000e+01
7.500000e+01
7.500000e+01
7.500000e+01
7.500000e+01
7.500000e+01
8.750000e+01
8.750000e+01
8.750000e+01
8.750000e+01
8.750000e+01
8.750000e+01
8.750000e+01
8.750000e+01
8.750000e+01
8.750000e+01
8.750000e+01
8.750000e+01
8.750000e+01
8.750000e+01
8.750000e+01
8.750000e+01
8.750000e+01
1.000000e+02
1.000000e+02
1.000000e+02
1.000000e+02
1.000000e+02
1.000000e+02
1.000000e+02
1.000000e+02
1.000000e+02
1.000000e+02
1.000000e+02
1.000000e+02
1.000000e+02
1.000000e+02
1.000000e+02
1.000000e+02
1.000000e+02
0.000000e+00
-8.884320e-01
-1.608193e+00
-2.292142e+00
-2.982093e+00
-3.650073e+00
-4.310935e+00
-4.972171e+00
-5.625385e+00
-6.265835e+00
-6.893898e+00
-7.517715e+00
-8.160131e+00
-8.848703e+00
-9.555649e+00
-1.022449e+01
-1.065639e+01
0.000000e+00
-4.545411e-01
-9.542128e-01
-1.452893e+00
-1.967325e+00
-2.469626e+00
-2.966324e+00
-3.463175e+00
-3.953810e+00
-4.433867e+00
-4.901667e+00
-5.357929e+00
-5.808465e+00
-6.241517e+00
-6.554423e+00
-6.632333e+00
-6.790633e+00
0.000000e+00
-2.139656e-01
-4.665492e-01
-7.771981e-01
-1.115877e+00
-1.454606e+00
-1.793510e+00
-2.132501e+00
-2.465928e+00
-2.789864e+00
-3.099522e+00
-3.385696e+00
-3.632842e+00
-3.807933e+00
-3.855599e+00
-3.835524e+00
-3.985062e+00
0.000000e+00
-6.889775e-02
-1.672881e-01
-3.089423e-01
-4.765866e-01
-6.502713e-01
-8.271402e-01
-1.003031e+00
-1.173379e+00
-1.334181e+00
-1.477640e+00
-1.589415e+00
-1.650631e+00
-1.644900e+00
-1.591127e+00
-1.590333e+00
-1.709175e+00
0.000000e+00
-1.705745e-03
-3.563431e-03
-5.541160e-03
-7.437330e-03
-8.938565e-03
-9.357474e-03
-7.315663e-03
-3.059916e-04
1.583556e-02
4.749257e-02
1.026254e-01
1.868805e-01
2.935843e-01
3.835407e-01
3.950390e-01
3.043800e-01
0.000000e+00
6.607639e-02
1.614143e-01
2.999537e-01
4.648489e-01
6.369396e-01
8.145891e-01
9.960091e-01
1.180510e+00
1.369927e+00
1.565213e+00
1.763561e+00
1.956951e+00
2.127613e+00
2.242339e+00
2.268065e+00
2.213785e+00
0.000000e+00
2.125013e-01
4.635457e-01
7.727518e-01
1.110343e+00
1.448895e+00
1.789333e+00
2.132681e+00
2.474179e+00
2.810817e+00
3.139491e+00
3.451714e+00
3.731527e+00
3.956530e+00
4.101994e+00
4.153544e+00
4.138619e+00
0.000000e+00
4.543904e-01
9.539531e-01
1.452508e+00
1.966577e+00
2.468104e+00
2.963404e+00
3.457459e+00
3.941352e+00
4.407213e+00
4.850023e+00
5.259755e+00
5.615932e+00
5.891904e+00
6.069184e+00
6.148921e+00
6.163622e+00
0.000000e+00
8.890624e-01
1.610214e+00
2.295751e+00
2.986993e+00
3.655377e+00
4.314863e+00
4.970774e+00
5.609759e+00
6.220497e+00
6.795269e+00
7.319143e+00
7.760390e+00
8.077277e+00
8.246811e+00
8.293998e+00
8.294536e+00
0.000000e+00
-5.598096e-01
-1.195570e+00
-2.036604e+00
-3.051590e+00
-4.231062e+00
-5.580173e+00
-7.099448e+00
-8.785976e+00
-1.063748e+01
-1.265125e+01
-1.482794e+01
-1.717742e+01
-1.971173e+01
-2.247127e+01
-2.567034e+01
-3.038919e+01
0.000000e+00
-3.598838e-01
-1.024091e+00
-1.859071e+00
-2.875127e+00
-4.057628e+00
-5.407085e+00
-6.927429e+00
-8.617108e+00
-1.047289e+01
-1.249100e+01
-1.466959e+01
-1.701747e+01
-1.956339e+01
-2.235742e+01
-2.556874e+01
-2.947653e+01
0.000000e+00
-3.086507e-01
-9.190115e-01
-1.743969e+00
-2.754996e+00
-3.935298e+00
-5.284728e+00
-6.806790e+00
-8.499881e+00
-1.036145e+01
-1.238832e+01
-1.457819e+01
-1.694234e+01
-1.952117e+01
-2.234548e+01
-2.538909e+01
-2.826071e+01
0.000000e+00
-3.275794e-01
-8.942828e-01
-1.692122e+00
-2.691418e+00
-3.865792e+00
-5.214955e+00
-6.739664e+00
-8.437769e+00
-1.030812e+01
-1.234905e+01
-1.455793e+01
-1.694152e+01
-1.952435e+01
-2.228707e+01
-2.506772e+01
-2.752113e+01
0.000000e+00
-3.469556e-01
-8.977445e-01
-1.683735e+00
-2.674107e+00
-3.847181e+00
-5.198137e+00
-6.727075e+00
-8.431959e+00
-1.031205e+01
-1.236570e+01
-1.458761e+01
-1.697327e+01
-1.951787e+01
-2.216291e+01
-2.474542e+01
-2.698535e+01
0.000000e+00
-3.271244e-01
-8.944032e-01
-1.693945e+00
-2.696279e+00
-3.875356e+00
-5.231360e+00
-6.765915e+00
-8.477216e+00
-1.036330e+01
-1.242108e+01
-1.464255e+01
-1.701292e+01
-1.950312e+01
-2.203949e+01
-2.448221e+01
-2.662172e+01
0.000000e+00
-3.079229e-01
-9.192365e-01
-1.746961e+00
-2.762985e+00
-3.951043e+00
-5.311861e+00
-6.850185e+00
-8.564600e+00
-1.045115e+01
-1.250490e+01
-1.471615e+01
-1.706370e+01
-1.950398e+01
-2.195794e+01
-2.431142e+01
-2.643533e+01
0.000000e+00
-3.591607e-01
-1.024410e+00
-1.862496e+00
-2.884221e+00
-4.075586e+00
-5.438056e+00
-6.976639e+00
-8.689575e+00
-1.057189e+01
-1.261724e+01
-1.481421e+01
-1.713798e+01
-1.953846e+01
-2.193552e+01
-2.423506e+01
-2.638535e+01
0.000000e+00
-5.593353e-01
-1.196182e+00
-2.040362e+00
-3.061010e+00
-4.249304e+00
-5.611222e+00
-7.147823e+00
-8.855379e+00
-1.072974e+01
-1.276401e+01
-1.494390e+01
-1.724050e+01
-1.960244e+01
-2.195534e+01
-2.422100e+01
-2.638467e+01


0.000000e+00
1.543890e-05
2.930400e-05
4.300629e-05
5.907016e-05
7.509045e-05
9.004154e-05
1.051354e-04
1.204868e-04
1.357373e-04
1.511228e-04
1.666689e-04
1.815773e-04
1.940887e-04
2.022058e-04
2.081929e-04
2.144713e-04
0.000000e+00
1.062606e-05
2.169591e-05
3.103317e-05
4.282621e-05
5.476563e-05
6.551595e-05
7.645896e-05
8.789868e-05
9.918510e-05
1.104345e-04
1.215740e-04
1.314732e-04
1.381862e-04
1.416492e-04
1.465314e-04
1.529128e-04
0.000000e+00
7.225103e-06
1.365996e-05
1.919817e-05
2.662822e-05
3.407678e-05
4.099331e-05
4.825159e-05
5.585192e-05
6.326713e-05
7.037008e-05
7.672505e-05
8.146724e-05
8.411590e-05
8.596846e-05
8.988720e-05
9.547429e-05
0.000000e+00
2.758283e-06
4.583841e-06
7.480080e-06
1.078621e-05
1.414210e-05
1.766282e-05
2.140834e-05
2.506178e-05
2.845479e-05
3.129342e-05
3.317010e-05
3.403367e-05
3.451262e-05
3.564884e-05
3.855554e-05
4.314232e-05
0.000000e+00
-6.427950e-09
-2.164215e-08
-5.890617e-08
-1.298626e-07
-2.620423e-07
-4.939665e-07
-8.755263e-07
-1.475015e-06
-2.381632e-06
-3.671555e-06
-5.266472e-06
-6.837160e-06
-7.821108e-06
-7.650053e-06
-6.029542e-06
-2.848599e-06
0.000000e+00
-2.752888e-06
-4.609774e-06
-7.555872e-06
-1.097268e-05
-1.452936e-05
-1.838538e-05
-2.267150e-05
-2.715854e-05
-3.182832e-05
-3.655126e-05
-4.090576e-05
-4.438205e-05
-4.660969e-05
-4.757333e-05
-4.732713e-05
-4.573548e-05
0.000000e+00
-7.191114e-06
-1.363470e-05
-1.920703e-05
-2.669221e-05
-3.424508e-05
-4.129956e-05
-4.872165e-05
-5.653050e-05
-6.425103e-05
-7.178526e-05
-7.861673e-05
-8.393252e-05
-8.740381e-05
-8.929931e-05
-8.996803e-05
-8.961080e-05
0.000000e+00
-1.058286e-05
-2.165146e-05
-3.098842e-05
-4.277462e-05
-5.472899e-05
-6.546225e-05
-7.631649e-05
-8.759394e-05
-9.859019e-05
-1.092194e-04
-1.189899e-04
-1.267232e-04
-1.317730e-04
-1.345347e-04
-1.356981e-04
-1.358833e-04
0.000000e+00
-1.543506e-05
-2.930258e-05
-4.296908e-05
-5.896167e-05
-7.489209e-05
-8.966234e-05
-1.044527e-04
-1.193778e-04
-1.339842e-04
-1.482056e-04
-1.614054e-04
-1.721269e-04
-1.792302e-04
-1.827898e-04
-1.838794e-04
-1.839828e-04
0.000000e+00
1.316529e-05
2.363230e-05
3.814415e-05
5.797153e-05
8.112020e-05
1.082820e-04
1.403763e-04
1.767991e-04
2.173082e-04
2.622263e-04
3.113569e-04
3.642302e-04
4.210815e-04
4.852673e-04
5.571576e-04
6.297494e-04
0.000000e+00
7.225134e-06
1.830618e-05
3.200660e-05
5.101851e-05
7.447698e-05
1.019397e-04
1.338546e-04
1.702231e-04
2.108075e-04
2.557481e-04
3.051127e-04
3.588722e-04
4.171381e-04
4.799035e-04
5.489038e-04
6.196738e-04
0.000000e+00
3.726226e-06
1.397595e-05
2.754787e-05
4.599456e-05
6.958305e-05
9.728526e-05
1.290786e-04
1.653264e-04
2.059992e-04
2.511203e-04
3.008924e-04
3.554684e-04
4.144309e-04
4.748283e-04
5.399802e-04
6.075513e-04
0.000000e+00
2.857685e-06
1.194082e-05
2.544670e-05
4.390434e-05
6.739841e-05
9.504008e-05
1.267953e-04
1.629888e-04
2.037425e-04
2.491779e-04
2.993458e-04
3.541214e-04
4.125547e-04
4.711123e-04
5.321322e-04
5.945784e-04
0.000000e+00
2.866934e-06
1.135350e-05
2.472023e-05
4.334146e-05
6.675922e-05
9.436834e-05
1.261762e-04
1.624184e-04
2.032841e-04
2.489998e-04
2.994482e-04
3.540476e-04
4.115590e-04
4.685402e-04
5.257106e-04
5.821016e-04
0.000000e+00
2.886748e-06
1.200039e-05
2.554595e-05
4.404926e-05
6.760243e-05
9.532294e-05
1.271824e-04
1.635082e-04
2.044911e-04
2.503649e-04
3.009628e-04
3.553143e-04
4.116878e-04
4.673397e-04
5.214863e-04
5.728899e-04
0.000000e+00
3.761919e-06
1.405988e-05
2.769830e-05
4.621879e-05
6.989830e-05
9.772272e-05
1.296877e-04
1.661880e-04
2.073169e-04
2.532562e-04
3.038131e-04
3.577131e-04
4.128948e-04
4.670894e-04
5.191993e-04
5.682723e-04
0.000000e+00
7.254119e-06
1.840132e-05
3.218405e-05
5.128426e-05
7.484660e-05
1.024260e-04
1.345049e-04
1.711398e-04
2.121983e-04
2.579237e-04
3.079704e-04
3.608682e-04
4.145948e-04
4.673914e-04
5.182672e-04
5.669618e-04
0.000000e+00
1.319179e-05
2.373532e-05
3.832890e-05
5.825788e-05
8.151512e-05
1.087681e-04
1.409933e-04
1.776286e-04
2.184601e-04
2.637873e-04
3.129448e-04
3.643483e-04
4.164256e-04
4.679712e-04
5.181345e-04
5.668412e-04


2.367244e+00
2.249497e+00
2.342803e+00
2.547891e+00
2.674938e+00
2.912729e+00
3.225057e+00
3.557266e+00
3.939849e+00
4.399596e+00
4.989887e+00
5.804526e+00
6.704628e+00
6.802756e+00
5.675275e+00
4.528220e+00
4.307773e+00
4.125163e+00
4.096207e+00
4.109499e+00
4.091632e+00
4.201131e+00
4.400330e+00
4.634403e+00
4.933584e+00
5.304658e+00
5.750987e+00
6.321719e+00
6.890987e+00
6.629897e+00
5.265304e+00
4.090669e+00
7.204556e+00
7.010394e+00
6.803759e+00
6.563609e+00
6.317499e+00
6.223380e+00
6.228901e+00
6.286981e+00
6.411536e+00
6.571870e+00
6.711544e+00
6.845291e+00
6.942547e+00
6.410690e+00
5.200537e+00
4.314468e+00
8.808243e+00
8.624905e+00
8.298454e+00
7.883241e+00
7.527913e+00
7.310318e+00
7.184964e+00
7.113193e+00
7.078751e+00
7.018581e+00
6.861301e+00
6.645295e+00
6.481244e+00
6.163456e+00
5.702531e+00
5.490906e+00
8.808694e+00
8.626879e+00
8.301767e+00
7.883480e+00
7.516010e+00
7.273368e+00
7.105198e+00
6.964108e+00
6.825999e+00
6.637346e+00
6.365627e+00
6.108195e+00
6.054028e+00
6.217733e+00
6.546103e+00
6.893044e+00
7.204697e+00
7.012777e+00
6.807221e+00
6.559239e+00
6.287059e+00
6.141203e+00
6.060321e+00
5.980474e+00
5.905856e+00
5.839866e+00
5.808768e+00
5.908981e+00
6.254410e+00
6.838688e+00
7.529981e+00
8.031807e+00
4.305887e+00
4.123896e+00
4.094041e+00
4.100580e+00
4.065212e+00
4.143616e+00
4.295467e+00
4.458905e+00
4.676049e+00
5.013330e+00
5.514323e+00
6.170937e+00
6.919616e+00
7.675770e+00
8.336798e+00
8.733310e+00
2.363834e+00
2.245902e+00
2.337850e+00
2.540762e+00
2.665964e+00
2.906223e+00
3.231921e+00
3.595860e+00
4.061540e+00
4.720322e+00
5.599604e+00
6.587203e+00
7.496389e+00
8.231156e+00
8.762625e+00
9.051775e+00


-5.922147e-01
-3.153766e-01
-2.286743e-01
-2.723640e-01
-2.032550e-01
-1.785495e-01
-1.806573e-01
-1.535606e-01
-1.086103e-01
-6.117138e-02
-2.996398e-02
-5.000444e-02
-9.014141e-02
1.082952e-01
5.036817e-01
-6.031369e-01
5.595894e-01
4.076434e-01
3.406651e-01
2.757889e-01
2.916922e-01
2.926827e-01
2.815694e-01
2.882611e-01
3.081280e-01
3.402192e-01
3.908575e-01
4.628438e-01
5.867114e-01
8.004943e-01
7.451173e-01
-1.182920e+00
8.393298e-01
6.902795e-01
5.463337e-01
4.675734e-01
4.540965e-01
4.382753e-01
4.226935e-01
4.196222e-01
4.260497e-01
4.480346e-01
4.964661e-01
5.581885e-01
5.767286e-01
4.776201e-01
2.107777e-01
-2.121922e-01
8.527882e-01
6.870857e-01
5.008319e-01
4.033869e-01
3.826391e-01
3.781838e-01
3.801954e-01
3.890239e-01
4.002867e-01
4.141346e-01
4.258548e-01
4.024558e-01
2.832406e-01
1.028904e-01
7.250434e-02
1.860264e-01
8.539735e-01
6.890451e-01
5.039043e-01
4.070402e-01
3.860368e-01
3.803493e-01
3.784431e-01
3.786923e-01
3.733669e-01
3.564956e-01
3.213695e-01
2.528097e-01
1.450424e-01
8.941214e-02
2.262379e-01
5.287279e-01
8.422834e-01
6.944585e-01
5.515475e-01
4.720386e-01
4.549552e-01
4.315809e-01
4.012268e-01
3.730160e-01
3.385794e-01
2.930977e-01
2.426131e-01
1.987919e-01
1.893099e-01
2.807994e-01
5.127927e-01
8.134875e-01
5.622838e-01
4.105245e-01
3.429469e-01
2.766472e-01
2.890145e-01
2.829642e-01
2.595005e-01
2.492428e-01
2.451490e-01
2.384500e-01
2.416606e-01
2.814366e-01
3.849219e-01
5.660095e-01
7.917679e-01
9.618325e-01
-5.925772e-01
-3.180251e-01
-2.317658e-01
-2.747136e-01
-2.035061e-01
-1.751779e-01
-1.688093e-01
-1.204384e-01
-3.918458e-02
5.838197e-02
1.884415e-01
3.811044e-01
6.239455e-01
8.396838e-01
9.639353e-01
9.990432e-01
1 2 19 18
2 3 20 19
3 4 21 20
4 5 22 21
5 6 23 22
6 7 24 23
7 8 25 24
8 9 26 25
9 10 27 26
10 11 28 27
11 12 29 28
12 13 30 29
13 14 31 30
14 15 32 31
15 16 33 32
16 17 34 33
18 19 36 35
19 20 37 36
20 21 38 37
21 22 39 38
22 23 40 39
23 24 41 40
24 25 42 41
25 26 43 42
26 27 44 43
27 28 45 44
28 29 46 45
29 30 47 46
30 31 48 47
31 32 49 48
32 33 50 49
33 34 51 50
35 36 53 52
36 37 54 53
37 38 55 54
38 39 56 55
39 40 57 56
40 41 58 57
41 42 59 58
42 43 60 59
43 44 61 60
44 45 62 61
45 46 63 62
46 47 64 63
47 48 65 64
48 49 66 65
49 50 67 66
50 51 68 67
52 53 70 69
53 54 71 70
54 55 72 71
55 56 73 72
56 57 74 73
57 58 75 74
58 59 76 75
59 60 77 76
60 61 78 77
61 62 79 78
62 63 80 79
63 64 81 80
64 65 82 81
65 66 83 82
66 67 84 83
67 68 85 84
69 70 87 86
70 71 88 87
71 72 89 88
72 73 90 89
73 74 91 90
74 75 92 91
75 76 93 92
76 77 94 93
77 78 95 94
78 79 96 95
79 80 97 96
80 81 98 97
81 82 99 98
82 83 100 99
83 84 101 100
84 85 102 101
86 87 104 103
87 88 105 104
88 89 106 105
89 90 107 106
90 91 108 107
91 92 109 108
92 93 110 109
93 94 111 110
94 95 112 111
95 96 113 112
96 97 114 113
97 98 115 114
98 99 116 115
99 100 117 116
100 101 118 117
101 102 119 118
103 104 121 120
104 105 122 121
105 106 123 122
106 107 124 123
107 108 125 124
108 109 126 125
109 110 127 126
110 111 128 127
111 112 129 128
112 113 130 129
113 114 131 130
114 115 132 131
115 116 133 132
116 117 134 133
117 118 135 134
118 119 136 135
120 121 138 137
121 122 139 138
122 123 140 139
123 124 141 140
124 125 142 141
125 126 143 142
126 127 144 143
127 128 145 144
128 129 146 145
129 130 147 146
130 131 148 147
131 132 149 148
132 133 150 149
133 134 151 150
134 135 152 151
135 136 153 152
