TITLE = "Solution"
VARIABLES = x, y, u, v, psiu, psiv, t, stress
ZONE T="structure" N=153 E=128 F=FEBLOCK ET=QUADRILATERAL VARLOCATION=([7,8]=cellcentered)
0.000000e+00
1.250000e+01
2.500000e+01
3.750000e+01
5.000000e+01
6.250000e+01
7.500000e+01
8.750000e+01
1.000000e+02
1.125000e+02
1.250000e+02
1.375000e+02
1.500000e+02
1.625000e+02
1.750000e+02
1.875000e+02
2.000000e+02
0.000000e+00
1.250000e+01
2.500000e+01
3.750000e+01
5.000000e+01
6.250000e+01
7.500000e+01
8.750000e+01
1.000000e+02
1.125000e+02
1.250000e+02
1.375000e+02
1.500000e+02
1.625000e+02
1.750000e+02
1.875000e+02
2.000000e+02
0.000000e+00
1.250000e+01
2.500000e+01
3.750000e+01
5.000000e+01
6.250000e+01
7.500000e+01
8.750000e+01
1.000000e+02
1.125000e+02
1.250000e+02
1.375000e+02
1.500000e+02
1.625000e+02
1.750000e+02
1.875000e+02
2.000000e+02
0.000000e+00
1.250000e+01
2.500000e+01
3.750000e+01
5.000000e+01
6.250000e+01
7.500000e+01
8.750000e+01
1.000000e+02
1.125000e+02
1.250000e+02
1.375000e+02
1.500000e+02
1.625000e+02
1.750000e+02
1.875000e+02
2.000000e+02
0.000000e+00
1.250000e+01
2.500000e+01
3.750000e+01
5.000000e+01
6.250000e+01
7.500000e+01
8.750000e+01
1.000000e+02
1.125000e+02
1.250000e+02
1.375000e+02
1.500000e+02
1.625000e+02
1.750000e+02
1.875000e+02
2.000000e+02
0.000000e+00
1.250000e+01
2.500000e+01
3.750000e+01
5.000000e+01
6.250000e+01
7.500000e+01
8.750000e+01
1.000000e+02
1.125000e+02
1.250000e+02
1.375000e+02
1.500000e+02
1.625000e+02
1.750000e+02
1.875000e+02
2.000000e+02
0.000000e+00
1.250000e+01
2.500000e+01
3.750000e+01
5.000000e+01
6.250000e+01
7.500000e+01
8.750000e+01
1.000000e+02
1.125000e+02
1.250000e+02
1.375000e+02
1.500000e+02
1.625000e+02
1.750000e+02
1.875000e+02
2.000000e+02
0.000000e+00
1.250000e+01
2.500000e+01
3.750000e+01
5.000000e+01
6.250000e+01
7.500000e+01
8.750000e+01
1.000000e+02
1.125000e+02
1.250000e+02
1.375000e+02
1.500000e+02
1.625000e+02
1.750000e+02
1.875000e+02
2.000000e+02
0.000000e+00
1.250000e+01
2.500000e+01
3.750000e+01
5.000000e+01
6.250000e+01
7.500000e+01
8.750000e+01
1.000000e+02
1.125000e+02
1.250000e+02
1.375000e+02
1.500000e+02
1.625000e+02
1.750000e+02
1.875000e+02
2.000000e+02
0.000000e+00
0.000000e+00
0.000000e+00
0.000000e+00
0.000000e+00
0.000000e+00
0.000000e+00
0.000000e+00
0.000000e+00
0.000000e+00
0.000000e+00
0.000000e+00
0.000000e+00
0.000000e+00
0.000000e+00
0.000000e+00
0.000000e+00
1.250000e+01
1.250000e+01
1.250000e+01
1.250000e+01
1.250000e+01
1.250000e+01
1.250000e+01
1.250000e+01
1.250000e+01
1.250000e+01
1.250000e+01
1.250000e+01
1.250000e+01
1.250000e+01
1.250000e+01
1.250000e+01
1.250000e+01
2.500000e+01
2.500000e+01
2.500000e+01
2.500000e+01
2.500000e+01
2.500000e+01
2.500000e+01
2.500000e+01
2.500000e+01
2.500000e+01
2.500000e+01
2.500000e+01
2.500000e+01
2.500000e+01
2.500000e+01
2.500000e+01
2.500000e+01
3.750000e+01
3.750000e+01
3.750000e+01
3.750000e+01
3.750000e+01
3.750000e+01
3.750000e+01
3.750000e+01
3.750000e+01
3.750000e+01
3.750000e+01
3.750000e+01
3.750000e+01
3.750000e+01
3.750000e+01
3.750000e+01
3.750000e+01
5.000000e+01
5.000000e+01
5.000000e+01
5.000000e+01
5.000000e+01
5.000000e+01
5.000000e+01
5.000000e+01
5.000000e+01
5.000000e+01
5.000000e+01
5.000000e+01
5.000000e+01
5.000000e+01
5.000000e+01
5.000000e+01
5.000000e+01
6.250000e+01
6.250000e+01
6.250000e+01
6.250000e+01
6.250000e+01
6.250000e+01
6.250000e+01
6.250000e+01
6.250000e+01
6.250000e+01
6.250000e+01
6.250000e+01
6.250000e+01
6.250000e+01
6.250000e+01
6.250000e+01
6.250000e+01
7.500000e+01
7.500000e+01
7.500000e+01
7.500000e+01
7.500000e+01
7.500000e+01
7.500000e+01
7.500000e+01
7.500000e+01
7.500000e+01
7.500000e+01
7.500000e+01
7.500000e+01
7.500000e+01
7.500000e+01
7.500000e+01
7.500000e+01
8.750000e+01
8.750000e+01
8.750000e+01
8.750000e+01
8.750000e+01
8.750000e+01
8.750000e+01
8.750000e+01
8.750000e+01
8.750000e+01
8.750000e+01
8.750000e+01
8.750000e+01
8.750000e+01
8.750000e+01
8.750000e+01
8.750000e+01
1.000000e+02
1.000000e+02
1.000000e+02
1.000000e+02
1.000000e+02
1.000000e+02
1.000000e+02
1.000000e+02
1.000000e+02
1.000000e+02
1.000000e+02
1.000000e+02
1.000000e+02
1.000000e+02
1.000000e+02
1.000000e+02
1.000000e+02
0.000000e+00
-8.842217e-01
-1.602059e+00
-2.284698e+00
-2.974074e+00
-3.641395e+00
-4.300446e+00
-4.959849e+00
-5.611437e+00
-6.250937e+00
-6.881850e+00
-7.512180e+00
-8.157532e+00
-8.840225e+00
-9.537189e+00
-1.020216e+01
-1.063202e+01
0.000000e+00
-4.556900e-01
-9.552134e-01
-1.452830e+00
-1.966102e+00
-2.467563e+00
-2.962807e+00
-3.458028e+00
-3.947017e+00
-4.425707e+00
-4.894674e+00
-5.354465e+00
-5.805683e+00
-6.232804e+00
-6.539044e+00
-6.614447e+00
-6.771230e+00
0.000000e+00
-2.173854e-01
-4.716399e-01
-7.816721e-01
-1.119295e+00
-1.457452e+00
-1.795453e+00
-2.133201e+00
-2.465213e+00
-2.787787e+00
-3.096813e+00
-3.382501e+00
-3.627318e+00
-3.798033e+00
-3.842585e+00
-3.821164e+00
-3.971153e+00
0.000000e+00
-7.112983e-02
-1.710311e-01
-3.128709e-01
-4.802965e-01
-6.535585e-01
-8.296374e-01
-1.004505e+00
-1.173642e+00
-1.332869e+00
-1.474285e+00
-1.583727e+00
-1.642681e+00
-1.635482e+00
-1.581569e+00
-1.581434e+00
-1.701433e+00
0.000000e+00
-1.561057e-03
-3.296205e-03
-5.155936e-03
-6.928559e-03
-8.251043e-03
-8.371425e-03
-5.851889e-03
1.855418e-03
1.889819e-02
5.155115e-02
1.075313e-01
1.921348e-01
2.981752e-01
3.866170e-01
3.963720e-01
3.047525e-01
0.000000e+00
6.855833e-02
1.656286e-01
3.045406e-01
4.693957e-01
6.412933e-01
8.184764e-01
9.992776e-01
1.183031e+00
1.371513e+00
1.565762e+00
1.763282e+00
1.955930e+00
2.125272e+00
2.238172e+00
2.262596e+00
2.208480e+00
0.000000e+00
2.162089e-01
4.691294e-01
7.777955e-01
1.114295e+00
1.452173e+00
1.791515e+00
2.133198e+00
2.472685e+00
2.807349e+00
3.134866e+00
3.446796e+00
3.726171e+00
3.950092e+00
4.094299e+00
4.145185e+00
4.130617e+00
0.000000e+00
4.557888e-01
9.553236e-01
1.452866e+00
1.965844e+00
2.466586e+00
2.960379e+00
3.452492e+00
3.934454e+00
4.398981e+00
4.842283e+00
5.253663e+00
5.610058e+00
5.884495e+00
6.060059e+00
6.138759e+00
6.153281e+00
0.000000e+00
8.850343e-01
1.604251e+00
2.288510e+00
2.979383e+00
3.647394e+00
4.305264e+00
4.959447e+00
5.597301e+00
6.208339e+00
6.786094e+00
7.313446e+00
7.754502e+00
8.068122e+00
8.234631e+00
8.280380e+00
8.280684e+00
0.000000e+00
-5.556230e-01
-1.183403e+00
-2.015238e+00
-3.021783e+00
-4.193691e+00
-5.535452e+00
-7.047462e+00
-8.726682e+00
-1.057141e+01
-1.258037e+01
-1.475426e+01
-1.710090e+01
-1.963176e+01
-2.238931e+01
-2.558657e+01
-3.029464e+01
0.000000e+00
-3.564070e-01
-1.012114e+00
-1.837887e+00
-2.845373e+00
-4.020513e+00
-5.362839e+00
-6.875954e+00
-8.558313e+00
-1.040676e+01
-1.241904e+01
-1.459480e+01
-1.694160e+01
-1.948555e+01
-2.227661e+01
-2.548488e+01
-2.938985e+01
0.000000e+00
-3.041459e-01
-9.068002e-01
-1.722504e+00
-2.724917e+00
-3.898038e+00
-5.240627e+00
-6.755726e+00
-8.441581e+00
-1.029558e+01
-1.231629e+01
-1.450351e+01
-1.686728e+01
-1.944412e+01
-2.226488e+01
-2.530490e+01
-2.817185e+01
0.000000e+00
-3.209924e-01
-8.807064e-01
-1.669541e+00
-2.660375e+00
-3.827831e+00
-5.170566e+00
-6.688720e+00
-8.379822e+00
-1.024273e+01
-1.227747e+01
-1.448347e+01
-1.686656e+01
-1.944760e+01
-2.220682e+01
-2.498197e+01
-2.742783e+01
0.000000e+00
-3.395487e-01
-8.833256e-01
-1.660360e+00
-2.642390e+00
-3.808636e+00
-5.153402e+00
-6.675985e+00
-8.374011e+00
-1.024677e+01
-1.229426e+01
-1.451318e+01
-1.689847e+01
-1.944171e+01
-2.208278e+01
-2.465781e+01
-2.688892e+01
0.000000e+00
-3.205508e-01
-8.808151e-01
-1.671243e+00
-2.664963e+00
-3.837017e+00
-5.186556e+00
-6.714479e+00
-8.418678e+00
-1.029747e+01
-1.234950e+01
-1.456856e+01
-1.693879e+01
-1.942755e+01
-2.195919e+01
-2.439420e+01
-2.652659e+01
0.000000e+00
-3.034664e-01
-9.070090e-01
-1.725267e+00
-2.732421e+00
-3.913115e+00
-5.266978e+00
-6.798153e+00
-8.505188e+00
-1.038463e+01
-1.243336e+01
-1.464305e+01
-1.699053e+01
-1.942889e+01
-2.187790e+01
-2.422472e+01
-2.634366e+01
0.000000e+00
-3.557795e-01
-1.012418e+00
-1.841032e+00
-2.853898e+00
-4.037676e+00
-5.392818e+00
-6.923913e+00
-8.629428e+00
-1.050506e+01
-1.254617e+01
-1.474210e+01
-1.706549e+01
-1.946342e+01
-2.185557e+01
-2.414934e+01
-2.629530e+01
0.000000e+00
-5.552714e-01
-1.183998e+00
-2.018728e+00
-3.030667e+00
-4.211160e+00
-5.565466e+00
-7.094535e+00
-8.794845e+00
-1.066313e+01
-1.269387e+01
-1.487253e+01
-1.716783e+01
-1.952670e+01
-2.187494e+01
-2.413541e+01
-2.629487e+01


0.000000e+00
1.572594e-05
2.956752e-05
4.329556e-05
5.940238e-05
7.530690e-05
9.017821e-05
1.052287e-04
1.204811e-04
1.355473e-04
1.506430e-04
1.657519e-04
1.800615e-04
1.920632e-04
2.000488e-04
2.060312e-04
2.122114e-04
0.000000e+00
1.070903e-05
2.169118e-05
3.103984e-05
4.297348e-05
5.492210e-05
6.568472e-05
7.668743e-05
8.811515e-05
9.932618e-05
1.104146e-04
1.212356e-04
1.306771e-04
1.370561e-04
1.404762e-04
1.453346e-04
1.516590e-04
0.000000e+00
7.090640e-06
1.340142e-05
1.900208e-05
2.665134e-05
3.424874e-05
4.129254e-05
4.865290e-05
5.627465e-05
6.366719e-05
7.067977e-05
7.685433e-05
8.139685e-05
8.396107e-05
8.581571e-05
8.973103e-05
9.531116e-05
0.000000e+00
2.565008e-06
4.323100e-06
7.369395e-06
1.088653e-05
1.441435e-05
1.806264e-05
2.185096e-05
2.552397e-05
2.893069e-05
3.177573e-05
3.367171e-05
3.458649e-05
3.512687e-05
3.628834e-05
3.917182e-05
4.369051e-05
0.000000e+00
-5.286084e-09
-1.976062e-08
-5.320102e-08
-1.188848e-07
-2.404871e-07
-4.511203e-07
-7.987571e-07
-1.348870e-06
-2.185936e-06
-3.378958e-06
-4.840607e-06
-6.245309e-06
-7.067481e-06
-6.817299e-06
-5.235685e-06
-2.178128e-06
0.000000e+00
-2.574225e-06
-4.358052e-06
-7.452417e-06
-1.106892e-05
-1.478307e-05
-1.874700e-05
-2.303860e-05
-2.748610e-05
-3.207964e-05
-3.666638e-05
-4.083215e-05
-4.409178e-05
-4.612245e-05
-4.698300e-05
-4.675287e-05
-4.525773e-05
0.000000e+00
-7.084771e-06
-1.340942e-05
-1.903909e-05
-2.673903e-05
-3.443192e-05
-4.161405e-05
-4.913611e-05
-5.695499e-05
-6.462637e-05
-7.201212e-05
-7.859676e-05
-8.365919e-05
-8.695267e-05
-8.875525e-05
-8.939206e-05
-8.904294e-05
0.000000e+00
-1.069618e-05
-2.168238e-05
-3.103212e-05
-4.296627e-05
-5.492789e-05
-6.567987e-05
-7.659717e-05
-8.785751e-05
-9.876899e-05
-1.091863e-04
-1.185801e-04
-1.259188e-04
-1.307386e-04
-1.334290e-04
-1.345843e-04
-1.347709e-04
0.000000e+00
-1.574696e-05
-2.958933e-05
-4.329222e-05
-5.934683e-05
-7.517237e-05
-8.988079e-05
-1.046388e-04
-1.194642e-04
-1.338882e-04
-1.477675e-04
-1.604192e-04
-1.705406e-04
-1.772795e-04
-1.808059e-04
-1.820140e-04
-1.821855e-04
0.000000e+00
1.339682e-05
2.405736e-05
3.888756e-05
5.891236e-05
8.207208e-05
1.092258e-04
1.412424e-04
1.774744e-04
2.176732e-04
2.620811e-04
3.104370e-04
3.623128e-04
4.181032e-04
4.811835e-04
5.520074e-04
6.235318e-04
0.000000e+00
7.426573e-06
1.874714e-05
3.270439e-05
5.193702e-05
7.544591e-05
1.028790e-04
1.347225e-04
1.709360e-04
2.112531e-04
2.557457e-04
3.044175e-04
3.572048e-04
4.142912e-04
4.758666e-04
5.438264e-04
6.136052e-04
0.000000e+00
3.977701e-06
1.447716e-05
2.825803e-05
4.685968e-05
7.049118e-05
9.816526e-05
1.299089e-04
1.660496e-04
2.065080e-04
2.512502e-04
3.003848e-04
3.539769e-04
4.116377e-04
4.707603e-04
5.348633e-04
6.015215e-04
0.000000e+00
3.161386e-06
1.253923e-05
2.621350e-05
4.470931e-05
6.816980e-05
9.581478e-05
1.275796e-04
1.637085e-04
2.042959e-04
2.493875e-04
2.989165e-04
3.526786e-04
4.097765e-04
4.670227e-04
5.270242e-04
5.887130e-04
0.000000e+00
3.182858e-06
1.201111e-05
2.553021e-05
4.411881e-05
6.745146e-05
9.508576e-05
1.269402e-04
1.631377e-04
2.038542e-04
2.492192e-04
2.989958e-04
3.525676e-04
4.087690e-04
4.645215e-04
5.207970e-04
5.766453e-04
0.000000e+00
3.187848e-06
1.259465e-05
2.630201e-05
4.483815e-05
6.835567e-05
9.607996e-05
1.279509e-04
1.642158e-04
2.050306e-04
2.505251e-04
3.004160e-04
3.537287e-04
4.088566e-04
4.633992e-04
5.168230e-04
5.678957e-04
0.000000e+00
4.013534e-06
1.455673e-05
2.839200e-05
4.706034e-05
7.078139e-05
9.858084e-05
1.304989e-04
1.668940e-04
2.078070e-04
2.533211e-04
3.031315e-04
3.559772e-04
4.099809e-04
4.631786e-04
5.146788e-04
5.634537e-04
0.000000e+00
7.462526e-06
1.883897e-05
3.286345e-05
5.217840e-05
7.578997e-05
1.033471e-04
1.353599e-04
1.718401e-04
2.126304e-04
2.578673e-04
3.071115e-04
3.589510e-04
4.115844e-04
4.634911e-04
5.137930e-04
5.620713e-04
0.000000e+00
1.343738e-05
2.415775e-05
3.905926e-05
5.917736e-05
8.244202e-05
1.096949e-04
1.418424e-04
1.782848e-04
2.188002e-04
2.635614e-04
3.118554e-04
3.622365e-04
4.133413e-04
4.640899e-04
5.136789e-04
5.618940e-04


2.324338e+00
2.216887e+00
2.322153e+00
2.535588e+00
2.669857e+00
2.905159e+00
3.217710e+00
3.549823e+00
3.938734e+00
4.428909e+00
5.041405e+00
5.807573e+00
6.608945e+00
6.657924e+00
5.565006e+00
4.453085e+00
4.147552e+00
3.980253e+00
3.966091e+00
4.005350e+00
4.014481e+00
4.139079e+00
4.345703e+00
4.581367e+00
4.882954e+00
5.273876e+00
5.735894e+00
6.276456e+00
6.780976e+00
6.508551e+00
5.199276e+00
4.069604e+00
6.911179e+00
6.719484e+00
6.532053e+00
6.335721e+00
6.142561e+00
6.085144e+00
6.110720e+00
6.171763e+00
6.291259e+00
6.457517e+00
6.615475e+00
6.756640e+00
6.845406e+00
6.344392e+00
5.194119e+00
4.326339e+00
8.455945e+00
8.271425e+00
7.969102e+00
7.616216e+00
7.328378e+00
7.159019e+00
7.058615e+00
6.989818e+00
6.946737e+00
6.892736e+00
6.771760e+00
6.604173e+00
6.470009e+00
6.177946e+00
5.717478e+00
5.473138e+00
8.458796e+00
8.275170e+00
7.972652e+00
7.615199e+00
7.314905e+00
7.121765e+00
6.982144e+00
6.852371e+00
6.720140e+00
6.557571e+00
6.344253e+00
6.148380e+00
6.113289e+00
6.248556e+00
6.506813e+00
6.776294e+00
6.915446e+00
6.724439e+00
6.535193e+00
6.328818e+00
6.110715e+00
6.006006e+00
5.953992e+00
5.894263e+00
5.842393e+00
5.818340e+00
5.840261e+00
5.965566e+00
6.281418e+00
6.792191e+00
7.389729e+00
7.818486e+00
4.147910e+00
3.979912e+00
3.963005e+00
3.995050e+00
3.988696e+00
4.086250e+00
4.250846e+00
4.425880e+00
4.659707e+00
5.024345e+00
5.537005e+00
6.158688e+00
6.840272e+00
7.527728e+00
8.123907e+00
8.473996e+00
2.322063e+00
2.213615e+00
2.317069e+00
2.528520e+00
2.661530e+00
2.898870e+00
3.222548e+00
3.583643e+00
4.048840e+00
4.711801e+00
5.567693e+00
6.486230e+00
7.326071e+00
8.018305e+00
8.514170e+00
8.772938e+00


-5.844714e-01
-3.101924e-01
-2.234009e-01
-2.684739e-01
-2.000714e-01
-1.719661e-01
-1.736558e-01
-1.469952e-01
-1.041651e-01
-6.900560e-02
-4.882712e-02
-5.634876e-02
-6.706563e-02
1.367285e-01
5.120642e-01
-5.837859e-01
5.563915e-01
4.096671e-01
3.464784e-01
2.817594e-01
2.953851e-01
2.973039e-01
2.868425e-01
2.937773e-01
3.131481e-01
3.403477e-01
3.875924e-01
4.666065e-01
6.002259e-01
8.082589e-01
7.457950e-01
-1.189670e+00
8.413701e-01
6.981626e-01
5.596312e-01
4.803266e-01
4.640017e-01
4.482733e-01
4.334692e-01
4.311485e-01
4.385087e-01
4.594128e-01
5.048839e-01
5.648460e-01
5.828232e-01
4.804078e-01
2.101306e-01
-2.227718e-01
8.601515e-01
7.007446e-01
5.232551e-01
4.270401e-01
4.035575e-01
3.975694e-01
3.989991e-01
4.077350e-01
4.187162e-01
4.285595e-01
4.315734e-01
3.998505e-01
2.784888e-01
9.896674e-02
7.020709e-02
1.792331e-01
8.612604e-01
7.025726e-01
5.261363e-01
4.304013e-01
4.063885e-01
3.986300e-01
3.953155e-01
3.940765e-01
3.863265e-01
3.632362e-01
3.180869e-01
2.415852e-01
1.343779e-01
8.439592e-02
2.273220e-01
5.311046e-01
8.440776e-01
7.021645e-01
5.647693e-01
4.846708e-01
4.643507e-01
4.404374e-01
4.102121e-01
3.816082e-01
3.456912e-01
2.955501e-01
2.380449e-01
1.908932e-01
1.855975e-01
2.843389e-01
5.202065e-01
8.185719e-01
5.584297e-01
4.121325e-01
3.486701e-01
2.827488e-01
2.930463e-01
2.883542e-01
2.665016e-01
2.568990e-01
2.517562e-01
2.400719e-01
2.385181e-01
2.803696e-01
3.893226e-01
5.730348e-01
7.972271e-01
9.633729e-01
-5.858976e-01
-3.130716e-01
-2.266366e-01
-2.713411e-01
-2.009186e-01
-1.687125e-01
-1.611398e-01
-1.139382e-01
-3.661256e-02
5.277268e-02
1.803982e-01
3.815686e-01
6.300326e-01
8.438878e-01
9.652749e-01
9.991094e-01
1 2 19 18
2 3 20 19
3 4 21 20
4 5 22 21
5 6 23 22
6 7 24 23
7 8 25 24
8 9 26 25
9 10 27 26
10 11 28 27
11 12 29 28
12 13 30 29
13 14 31 30
14 15 32 31
15 16 33 32
16 17 34 33
18 19 36 35
19 20 37 36
20 21 38 37
21 22 39 38
22 23 40 39
23 24 41 40
24 25 42 41
25 26 43 42
26 27 44 43
27 28 45 44
28 29 46 45
29 30 47 46
30 31 48 47
31 32 49 48
32 33 50 49
33 34 51 50
35 36 53 52
36 37 54 53
37 38 55 54
38 39 56 55
39 40 57 56
40 41 58 57
41 42 59 58
42 43 60 59
43 44 61 60
44 45 62 61
45 46 63 62
46 47 64 63
47 48 65 64
48 49 66 65
49 50 67 66
50 51 68 67
52 53 70 69
53 54 71 70
54 55 72 71
55 56 73 72
56 57 74 73
57 58 75 74
58 59 76 75
59 60 77 76
60 61 78 77
61 62 79 78
62 63 80 79
63 64 81 80
64 65 82 81
65 66 83 82
66 67 84 83
67 68 85 84
69 70 87 86
70 71 88 87
71 72 89 88
72 73 90 89
73 74 91 90
74 75 92 91
75 76 93 92
76 77 94 93
77 78 95 94
78 79 96 95
79 80 97 96
80 81 98 97
81 82 99 98
82 83 100 99
83 84 101 100
84 85 102 101
86 87 104 103
87 88 105 104
88 89 106 105
89 90 107 106
90 91 108 107
91 92 109 108
92 93 110 109
93 94 111 110
94 95 112 111
95 96 113 112
96 97 114 113
97 98 115 114
98 99 116 115
99 100 117 116
100 101 118 117
101 102 119 118
103 104 121 120
104 105 122 121
105 106 123 122
106 107 124 123
107 108 125 124
108 109 126 125
109 110 127 126
110 111 128 127
111 112 129 128
112 113 130 129
113 114 131 130
114 115 132 131
115 116 133 132
116 117 134 133
117 118 135 134
118 119 136 135
120 121 138 137
121 122 139 138
122 123 140 139
123 124 141 140
124 125 142 141
125 126 143 142
126 127 144 143
127 128 145 144
128 129 146 145
129 130 147 146
130 131 148 147
131 132 149 148
132 133 150 149
133 134 151 150
134 135 152 151
135 136 153 152
