TITLE = "Solution"
VARIABLES = x, y, u, v, psiu, psiv, t, stress
ZONE T="structure" N=561 E=512 F=FEBLOCK ET=QUADRILATERAL VARLOCATION=([7,8]=cellcentered)
0.000000e+00
6.250000e+00
1.250000e+01
1.875000e+01
2.500000e+01
3.125000e+01
3.750000e+01
4.375000e+01
5.000000e+01
5.625000e+01
6.250000e+01
6.875000e+01
7.500000e+01
8.125000e+01
8.750000e+01
9.375000e+01
1.000000e+02
1.062500e+02
1.125000e+02
1.187500e+02
1.250000e+02
1.312500e+02
1.375000e+02
1.437500e+02
1.500000e+02
1.562500e+02
1.625000e+02
1.687500e+02
1.750000e+02
1.812500e+02
1.875000e+02
1.937500e+02
2.000000e+02
0.000000e+00
6.250000e+00
1.250000e+01
1.875000e+01
2.500000e+01
3.125000e+01
3.750000e+01
4.375000e+01
5.000000e+01
5.625000e+01
6.250000e+01
6.875000e+01
7.500000e+01
8.125000e+01
8.750000e+01
9.375000e+01
1.000000e+02
1.062500e+02
1.125000e+02
1.187500e+02
1.250000e+02
1.312500e+02
1.375000e+02
1.437500e+02
1.500000e+02
1.562500e+02
1.625000e+02
1.687500e+02
1.750000e+02
1.812500e+02
1.875000e+02
1.937500e+02
2.000000e+02
0.000000e+00
6.250000e+00
1.250000e+01
1.875000e+01
2.500000e+01
3.125000e+01
3.750000e+01
4.375000e+01
5.000000e+01
5.625000e+01
6.250000e+01
6.875000e+01
7.500000e+01
8.125000e+01
8.750000e+01
9.375000e+01
1.000000e+02
1.062500e+02
1.125000e+02
1.187500e+02
1.250000e+02
1.312500e+02
1.375000e+02
1.437500e+02
1.500000e+02
1.562500e+02
1.625000e+02
1.687500e+02
1.750000e+02
1.812500e+02
1.875000e+02
1.937500e+02
2.000000e+02
0.000000e+00
6.250000e+00
1.250000e+01
1.875000e+01
2.500000e+01
3.125000e+01
3.750000e+01
4.375000e+01
5.000000e+01
5.625000e+01
6.250000e+01
6.875000e+01
7.500000e+01
8.125000e+01
8.750000e+01
9.375000e+01
1.000000e+02
1.062500e+02
1.125000e+02
1.187500e+02
1.250000e+02
1.312500e+02
1.375000e+02
1.437500e+02
1.500000e+02
1.562500e+02
1.625000e+02
1.687500e+02
1.750000e+02
1.812500e+02
1.875000e+02
1.937500e+02
2.000000e+02
0.000000e+00
6.250000e+00
1.250000e+01
1.875000e+01
2.500000e+01
3.125000e+01
3.750000e+01
4.375000e+01
5.000000e+01
5.625000e+01
6.250000e+01
6.875000e+01
7.500000e+01
8.125000e+01
8.750000e+01
9.375000e+01
1.000000e+02
1.062500e+02
1.125000e+02
1.187500e+02
1.250000e+02
1.312500e+02
1.375000e+02
1.437500e+02
1.500000e+02
1.562500e+02
1.625000e+02
1.687500e+02
1.750000e+02
1.812500e+02
1.875000e+02
1.937500e+02
2.000000e+02
0.000000e+00
6.250000e+00
1.250000e+01
1.875000e+01
2.500000e+01
3.125000e+01
3.750000e+01
4.375000e+01
5.000000e+01
5.625000e+01
6.250000e+01
6.875000e+01
7.500000e+01
8.125000e+01
8.750000e+01
9.375000e+01
1.000000e+02
1.062500e+02
1.125000e+02
1.187500e+02
1.250000e+02
1.312500e+02
1.375000e+02
1.437500e+02
1.500000e+02
1.562500e+02
1.625000e+02
1.687500e+02
1.750000e+02
1.812500e+02
1.875000e+02
1.937500e+02
2.000000e+02
0.000000e+00
6.250000e+00
1.250000e+01
1.875000e+01
2.500000e+01
3.125000e+01
3.750000e+01
4.375000e+01
5.000000e+01
5.625000e+01
6.250000e+01
6.875000e+01
7.500000e+01
8.125000e+01
8.750000e+01
9.375000e+01
1.000000e+02
1.062500e+02
1.125000e+02
1.187500e+02
1.250000e+02
1.312500e+02
1.375000e+02
1.437500e+02
1.500000e+02
1.562500e+02
1.625000e+02
1.687500e+02
1.750000e+02
1.812500e+02
1.875000e+02
1.937500e+02
2.000000e+02
0.000000e+00
6.250000e+00
1.250000e+01
1.875000e+01
2.500000e+01
3.125000e+01
3.750000e+01
4.375000e+01
5.000000e+01
5.625000e+01
6.250000e+01
6.875000e+01
7.500000e+01
8.125000e+01
8.750000e+01
9.375000e+01
1.000000e+02
1.062500e+02
1.125000e+02
1.187500e+02
1.250000e+02
1.312500e+02
1.375000e+02
1.437500e+02
1.500000e+02
1.562500e+02
1.625000e+02
1.687500e+02
1.750000e+02
1.812500e+02
1.875000e+02
1.937500e+02
2.000000e+02
0.000000e+00
6.250000e+00
1.250000e+01
1.875000e+01
2.500000e+01
3.125000e+01
3.750000e+01
4.375000e+01
5.000000e+01
5.625000e+01
6.250000e+01
6.875000e+01
7.500000e+01
8.125000e+01
8.750000e+01
9.375000e+01
1.000000e+02
1.062500e+02
1.125000e+02
1.187500e+02
1.250000e+02
1.312500e+02
1.375000e+02
1.437500e+02
1.500000e+02
1.562500e+02
1.625000e+02
1.687500e+02
1.750000e+02
1.812500e+02
1.875000e+02
1.937500e+02
2.000000e+02
0.000000e+00
6.250000e+00
1.250000e+01
1.875000e+01
2.500000e+01
3.125000e+01
3.750000e+01
4.375000e+01
5.000000e+01
5.625000e+01
6.250000e+01
6.875000e+01
7.500000e+01
8.125000e+01
8.750000e+01
9.375000e+01
1.000000e+02
1.062500e+02
1.125000e+02
1.187500e+02
1.250000e+02
1.312500e+02
1.375000e+02
1.437500e+02
1.500000e+02
1.562500e+02
1.625000e+02
1.687500e+02
1.750000e+02
1.812500e+02
1.875000e+02
1.937500e+02
2.000000e+02
0.000000e+00
6.250000e+00
1.250000e+01
1.875000e+01
2.500000e+01
3.125000e+01
3.750000e+01
4.375000e+01
5.000000e+01
5.625000e+01
6.250000e+01
6.875000e+01
7.500000e+01
8.125000e+01
8.750000e+01
9.375000e+01
1.000000e+02
1.062500e+02
1.125000e+02
1.187500e+02
1.250000e+02
1.312500e+02
1.375000e+02
1.437500e+02
1.500000e+02
1.562500e+02
1.625000e+02
1.687500e+02
1.750000e+02
1.812500e+02
1.875000e+02
1.937500e+02
2.000000e+02
0.000000e+00
6.250000e+00
1.250000e+01
1.875000e+01
2.500000e+01
3.125000e+01
3.750000e+01
4.375000e+01
5.000000e+01
5.625000e+01
6.250000e+01
6.875000e+01
7.500000e+01
8.125000e+01
8.750000e+01
9.375000e+01
1.000000e+02
1.062500e+02
1.125000e+02
1.187500e+02
1.250000e+02
1.312500e+02
1.375000e+02
1.437500e+02
1.500000e+02
1.562500e+02
1.625000e+02
1.687500e+02
1.750000e+02
1.812500e+02
1.875000e+02
1.937500e+02
2.000000e+02
0.000000e+00
6.250000e+00
1.250000e+01
1.875000e+01
2.500000e+01
3.125000e+01
3.750000e+01
4.375000e+01
5.000000e+01
5.625000e+01
6.250000e+01
6.875000e+01
7.500000e+01
8.125000e+01
8.750000e+01
9.375000e+01
1.000000e+02
1.062500e+02
1.125000e+02
1.187500e+02
1.250000e+02
1.312500e+02
1.375000e+02
1.437500e+02
1.500000e+02
1.562500e+02
1.625000e+02
1.687500e+02
1.750000e+02
1.812500e+02
1.875000e+02
1.937500e+02
2.000000e+02
0.000000e+00
6.250000e+00
1.250000e+01
1.875000e+01
2.500000e+01
3.125000e+01
3.750000e+01
4.375000e+01
5.000000e+01
5.625000e+01
6.250000e+01
6.875000e+01
7.500000e+01
8.125000e+01
8.750000e+01
9.375000e+01
1.000000e+02
1.062500e+02
1.125000e+02
1.187500e+02
1.250000e+02
1.312500e+02
1.375000e+02
1.437500e+02
1.500000e+02
1.562500e+02
1.625000e+02
1.687500e+02
1.750000e+02
1.812500e+02
1.875000e+02
1.937500e+02
2.000000e+02
0.000000e+00
6.250000e+00
1.250000e+01
1.875000e+01
2.500000e+01
3.125000e+01
3.750000e+01
4.375000e+01
5.000000e+01
5.625000e+01
6.250000e+01
6.875000e+01
7.500000e+01
8.125000e+01
8.750000e+01
9.375000e+01
1.000000e+02
1.062500e+02
1.125000e+02
1.187500e+02
1.250000e+02
1.312500e+02
1.375000e+02
1.437500e+02
1.500000e+02
1.562500e+02
1.625000e+02
1.687500e+02
1.750000e+02
1.812500e+02
1.875000e+02
1.937500e+02
2.000000e+02
0.000000e+00
6.250000e+00
1.250000e+01
1.875000e+01
2.500000e+01
3.125000e+01
3.750000e+01
4.375000e+01
5.000000e+01
5.625000e+01
6.250000e+01
6.875000e+01
7.500000e+01
8.125000e+01
8.750000e+01
9.375000e+01
1.000000e+02
1.062500e+02
1.125000e+02
1.187500e+02
1.250000e+02
1.312500e+02
1.375000e+02
1.437500e+02
1.500000e+02
1.562500e+02
1.625000e+02
1.687500e+02
1.750000e+02
1.812500e+02
1.875000e+02
1.937500e+02
2.000000e+02
0.000000e+00
6.250000e+00
1.250000e+01
1.875000e+01
2.500000e+01
3.125000e+01
3.750000e+01
4.375000e+01
5.000000e+01
5.625000e+01
6.250000e+01
6.875000e+01
7.500000e+01
8.125000e+01
8.750000e+01
9.375000e+01
1.000000e+02
1.062500e+02
1.125000e+02
1.187500e+02
1.250000e+02
1.312500e+02
1.375000e+02
1.437500e+02
1.500000e+02
1.562500e+02
1.625000e+02
1.687500e+02
1.750000e+02
1.812500e+02
1.875000e+02
1.937500e+02
2.000000e+02
0.000000e+00
0.000000e+00
0.000000e+00
0.000000e+00
0.000000e+00
0.000000e+00
0.000000e+00
0.000000e+00
0.000000e+00
0.000000e+00
0.000000e+00
0.000000e+00
0.000000e+00
0.000000e+00
0.000000e+00
0.000000e+00
0.000000e+00
0.000000e+00
0.000000e+00
0.000000e+00
0.000000e+00
0.000000e+00
0.000000e+00
0.000000e+00
0.000000e+00
0.000000e+00
0.000000e+00
0.000000e+00
0.000000e+00
0.000000e+00
0.000000e+00
0.000000e+00
0.000000e+00
6.250000e+00
6.250000e+00
6.250000e+00
6.250000e+00
6.250000e+00
6.250000e+00
6.250000e+00
6.250000e+00
6.250000e+00
6.250000e+00
6.250000e+00
6.250000e+00
6.250000e+00
6.250000e+00
6.250000e+00
6.250000e+00
6.250000e+00
6.250000e+00
6.250000e+00
6.250000e+00
6.250000e+00
6.250000e+00
6.250000e+00
6.250000e+00
6.250000e+00
6.250000e+00
6.250000e+00
6.250000e+00
6.250000e+00
6.250000e+00
6.250000e+00
6.250000e+00
6.250000e+00
1.250000e+01
1.250000e+01
1.250000e+01
1.250000e+01
1.250000e+01
1.250000e+01
1.250000e+01
1.250000e+01
1.250000e+01
1.250000e+01
1.250000e+01
1.250000e+01
1.250000e+01
1.250000e+01
1.250000e+01
1.250000e+01
1.250000e+01
1.250000e+01
1.250000e+01
1.250000e+01
1.250000e+01
1.250000e+01
1.250000e+01
1.250000e+01
1.250000e+01
1.250000e+01
1.250000e+01
1.250000e+01
1.250000e+01
1.250000e+01
1.250000e+01
1.250000e+01
1.250000e+01
1.875000e+01
1.875000e+01
1.875000e+01
1.875000e+01
1.875000e+01
1.875000e+01
1.875000e+01
1.875000e+01
1.875000e+01
1.875000e+01
1.875000e+01
1.875000e+01
1.875000e+01
1.875000e+01
1.875000e+01
1.875000e+01
1.875000e+01
1.875000e+01
1.875000e+01
1.875000e+01
1.875000e+01
1.875000e+01
1.875000e+01
1.875000e+01
1.875000e+01
1.875000e+01
1.875000e+01
1.875000e+01
1.875000e+01
1.875000e+01
1.875000e+01
1.875000e+01
1.875000e+01
2.500000e+01
2.500000e+01
2.500000e+01
2.500000e+01
2.500000e+01
2.500000e+01
2.500000e+01
2.500000e+01
2.500000e+01
2.500000e+01
2.500000e+01
2.500000e+01
2.500000e+01
2.500000e+01
2.500000e+01
2.500000e+01
2.500000e+01
2.500000e+01
2.500000e+01
2.500000e+01
2.500000e+01
2.500000e+01
2.500000e+01
2.500000e+01
2.500000e+01
2.500000e+01
2.500000e+01
2.500000e+01
2.500000e+01
2.500000e+01
2.500000e+01
2.500000e+01
2.500000e+01
3.125000e+01
3.125000e+01
3.125000e+01
3.125000e+01
3.125000e+01
3.125000e+01
3.125000e+01
3.125000e+01
3.125000e+01
3.125000e+01
3.125000e+01
3.125000e+01
3.125000e+01
3.125000e+01
3.125000e+01
3.125000e+01
3.125000e+01
3.125000e+01
3.125000e+01
3.125000e+01
3.125000e+01
3.125000e+01
3.125000e+01
3.125000e+01
3.125000e+01
3.125000e+01
3.125000e+01
3.125000e+01
3.125000e+01
3.125000e+01
3.125000e+01
3.125000e+01
3.125000e+01
3.750000e+01
3.750000e+01
3.750000e+01
3.750000e+01
3.750000e+01
3.750000e+01
3.750000e+01
3.750000e+01
3.750000e+01
3.750000e+01
3.750000e+01
3.750000e+01
3.750000e+01
3.750000e+01
3.750000e+01
3.750000e+01
3.750000e+01
3.750000e+01
3.750000e+01
3.750000e+01
3.750000e+01
3.750000e+01
3.750000e+01
3.750000e+01
3.750000e+01
3.750000e+01
3.750000e+01
3.750000e+01
3.750000e+01
3.750000e+01
3.750000e+01
3.750000e+01
3.750000e+01
4.375000e+01
4.375000e+01
4.375000e+01
4.375000e+01
4.375000e+01
4.375000e+01
4.375000e+01
4.375000e+01
4.375000e+01
4.375000e+01
4.375000e+01
4.375000e+01
4.375000e+01
4.375000e+01
4.375000e+01
4.375000e+01
4.375000e+01
4.375000e+01
4.375000e+01
4.375000e+01
4.375000e+01
4.375000e+01
4.375000e+01
4.375000e+01
4.375000e+01
4.375000e+01
4.375000e+01
4.375000e+01
4.375000e+01
4.375000e+01
4.375000e+01
4.375000e+01
4.375000e+01
5.000000e+01
5.000000e+01
5.000000e+01
5.000000e+01
5.000000e+01
5.000000e+01
5.000000e+01
5.000000e+01
5.000000e+01
5.000000e+01
5.000000e+01
5.000000e+01
5.000000e+01
5.000000e+01
5.000000e+01
5.000000e+01
5.000000e+01
5.000000e+01
5.000000e+01
5.000000e+01
5.000000e+01
5.000000e+01
5.000000e+01
5.000000e+01
5.000000e+01
5.000000e+01
5.000000e+01
5.000000e+01
5.000000e+01
5.000000e+01
5.000000e+01
5.000000e+01
5.000000e+01
5.625000e+01
5.625000e+01
5.625000e+01
5.625000e+01
5.625000e+01
5.625000e+01
5.625000e+01
5.625000e+01
5.625000e+01
5.625000e+01
5.625000e+01
5.625000e+01
5.625000e+01
5.625000e+01
5.625000e+01
5.625000e+01
5.625000e+01
5.625000e+01
5.625000e+01
5.625000e+01
5.625000e+01
5.625000e+01
5.625000e+01
5.625000e+01
5.625000e+01
5.625000e+01
5.625000e+01
5.625000e+01
5.625000e+01
5.625000e+01
5.625000e+01
5.625000e+01
5.625000e+01
6.250000e+01
6.250000e+01
6.250000e+01
6.250000e+01
6.250000e+01
6.250000e+01
6.250000e+01
6.250000e+01
6.250000e+01
6.250000e+01
6.250000e+01
6.250000e+01
6.250000e+01
6.250000e+01
6.250000e+01
6.250000e+01
6.250000e+01
6.250000e+01
6.250000e+01
6.250000e+01
6.250000e+01
6.250000e+01
6.250000e+01
6.250000e+01
6.250000e+01
6.250000e+01
6.250000e+01
6.250000e+01
6.250000e+01
6.250000e+01
6.250000e+01
6.250000e+01
6.250000e+01
6.875000e+01
6.875000e+01
6.875000e+01
6.875000e+01
6.875000e+01
6.875000e+01
6.875000e+01
6.875000e+01
6.875000e+01
6.875000e+01
6.875000e+01
6.875000e+01
6.875000e+01
6.875000e+01
6.875000e+01
6.875000e+01
6.875000e+01
6.875000e+01
6.875000e+01
6.875000e+01
6.875000e+01
6.875000e+01
6.875000e+01
6.875000e+01
6.875000e+01
6.875000e+01
6.875000e+01
6.875000e+01
6.875000e+01
6.875000e+01
6.875000e+01
6.875000e+01
6.875000e+01
7.500000e+01
7.500000e+01
7.500000e+01
7.500000e+01
7.500000e+01
7.500000e+01
7.500000e+01
7.500000e+01
7.500000e+01
7.500000e+01
7.500000e+01
7.500000e+01
7.500000e+01
7.500000e+01
7.500000e+01
7.500000e+01
7.500000e+01
7.500000e+01
7.500000e+01
7.500000e+01
7.500000e+01
7.500000e+01
7.500000e+01
7.500000e+01
7.500000e+01
7.500000e+01
7.500000e+01
7.500000e+01
7.500000e+01
7.500000e+01
7.500000e+01
7.500000e+01
7.500000e+01
8.125000e+01
8.125000e+01
8.125000e+01
8.125000e+01
8.125000e+01
8.125000e+01
8.125000e+01
8.125000e+01
8.125000e+01
8.125000e+01
8.125000e+01
8.125000e+01
8.125000e+01
8.125000e+01
8.125000e+01
8.125000e+01
8.125000e+01
8.125000e+01
8.125000e+01
8.125000e+01
8.125000e+01
8.125000e+01
8.125000e+01
8.125000e+01
8.125000e+01
8.125000e+01
8.125000e+01
8.125000e+01
8.125000e+01
8.125000e+01
8.125000e+01
8.125000e+01
8.125000e+01
8.750000e+01
8.750000e+01
8.750000e+01
8.750000e+01
8.750000e+01
8.750000e+01
8.750000e+01
8.750000e+01
8.750000e+01
8.750000e+01
8.750000e+01
8.750000e+01
8.750000e+01
8.750000e+01
8.750000e+01
8.750000e+01
8.750000e+01
8.750000e+01
8.750000e+01
8.750000e+01
8.750000e+01
8.750000e+01
8.750000e+01
8.750000e+01
8.750000e+01
8.750000e+01
8.750000e+01
8.750000e+01
8.750000e+01
8.750000e+01
8.750000e+01
8.750000e+01
8.750000e+01
9.375000e+01
9.375000e+01
9.375000e+01
9.375000e+01
9.375000e+01
9.375000e+01
9.375000e+01
9.375000e+01
9.375000e+01
9.375000e+01
9.375000e+01
9.375000e+01
9.375000e+01
9.375000e+01
9.375000e+01
9.375000e+01
9.375000e+01
9.375000e+01
9.375000e+01
9.375000e+01
9.375000e+01
9.375000e+01
9.375000e+01
9.375000e+01
9.375000e+01
9.375000e+01
9.375000e+01
9.375000e+01
9.375000e+01
9.375000e+01
9.375000e+01
9.375000e+01
9.375000e+01
1.000000e+02
1.000000e+02
1.000000e+02
1.000000e+02
1.000000e+02
1.000000e+02
1.000000e+02
1.000000e+02
1.000000e+02
1.000000e+02
1.000000e+02
1.000000e+02
1.000000e+02
1.000000e+02
1.000000e+02
1.000000e+02
1.000000e+02
1.000000e+02
1.000000e+02
1.000000e+02
1.000000e+02
1.000000e+02
1.000000e+02
1.000000e+02
1.000000e+02
1.000000e+02
1.000000e+02
1.000000e+02
1.000000e+02
1.000000e+02
1.000000e+02
1.000000e+02
1.000000e+02
0.000000e+00
-4.715601e-01
-7.821504e-01
-1.121954e+00
-1.423779e+00
-1.716055e+00
-2.027463e+00
-2.315341e+00
-2.615125e+00
-2.908795e+00
-3.206119e+00
-3.505001e+00
-3.804109e+00
-4.104305e+00
-4.403934e+00
-4.705837e+00
-5.007752e+00
-5.310801e+00
-5.613360e+00
-5.915362e+00
-6.217803e+00
-6.519606e+00
-6.822008e+00
-7.120097e+00
-7.413766e+00
-7.718405e+00
-8.018077e+00
-8.348345e+00
-8.667994e+00
-9.021857e+00
-9.509803e+00
-9.926453e+00
-1.013075e+01
0.000000e+00
-2.334124e-01
-4.704295e-01
-7.358377e-01
-1.001872e+00
-1.254683e+00
-1.524499e+00
-1.784840e+00
-2.047284e+00
-2.312391e+00
-2.572702e+00
-2.837951e+00
-3.098318e+00
-3.362136e+00
-3.623642e+00
-3.885746e+00
-4.148267e+00
-4.409006e+00
-4.671703e+00
-4.932101e+00
-5.194166e+00
-5.454584e+00
-5.716108e+00
-5.976234e+00
-6.237619e+00
-6.498452e+00
-6.758153e+00
-7.022139e+00
-7.276706e+00
-7.533897e+00
-7.787679e+00
-7.888605e+00
-7.994415e+00
0.000000e+00
-1.032363e-01
-2.388021e-01
-4.351528e-01
-6.534936e-01
-8.608235e-01
-1.086940e+00
-1.314024e+00
-1.541102e+00
-1.772781e+00
-1.996326e+00
-2.224097e+00
-2.446173e+00
-2.671314e+00
-2.894863e+00
-3.117130e+00
-3.339923e+00
-3.560897e+00
-3.784356e+00
-4.006991e+00
-4.231506e+00
-4.454837e+00
-4.679086e+00
-4.907359e+00
-5.137313e+00
-5.360132e+00
-5.572722e+00
-5.770191e+00
-5.949761e+00
-6.098796e+00
-6.185898e+00
-6.191347e+00
-6.284238e+00
0.000000e+00
-1.024712e-01
-1.860560e-01
-3.406670e-01
-4.635882e-01
-6.187319e-01
-7.956072e-01
-9.652337e-01
-1.158009e+00
-1.335938e+00
-1.521034e+00
-1.703909e+00
-1.886065e+00
-2.071478e+00
-2.255510e+00
-2.440978e+00
-2.626244e+00
-2.813646e+00
-3.003314e+00
-3.194664e+00
-3.388368e+00
-3.581497e+00
-3.775563e+00
-3.970103e+00
-4.156023e+00
-4.330291e+00
-4.480069e+00
-4.612433e+00
-4.713361e+00
-4.776638e+00
-4.791716e+00
-4.808940e+00
-4.889470e+00
0.000000e+00
-9.292240e-02
-1.843587e-01
-2.753088e-01
-3.885415e-01
-5.043248e-01
-6.365033e-01
-7.707891e-01
-9.156265e-01
-1.056897e+00
-1.202871e+00
-1.348489e+00
-1.492205e+00
-1.641037e+00
-1.785063e+00
-1.934233e+00
-2.080927e+00
-2.229941e+00
-2.379767e+00
-2.528536e+00
-2.678612e+00
-2.824979e+00
-2.969185e+00
-3.106499e+00
-3.234815e+00
-3.348937e+00
-3.446046e+00
-3.520169e+00
-3.568713e+00
-3.593047e+00
-3.596357e+00
-3.626245e+00
-3.697795e+00
0.000000e+00
-7.434237e-02
-1.457523e-01
-2.207042e-01
-3.020802e-01
-3.915038e-01
-4.862467e-01
-5.874954e-01
-6.912140e-01
-7.989935e-01
-9.065153e-01
-1.015251e+00
-1.124075e+00
-1.232226e+00
-1.341530e+00
-1.449803e+00
-1.558933e+00
-1.667205e+00
-1.775023e+00
-1.881633e+00
-1.985678e+00
-2.086527e+00
-2.181423e+00
-2.268972e+00
-2.346520e+00
-2.412124e+00
-2.463480e+00
-2.498491e+00
-2.520938e+00
-2.521188e+00
-2.516567e+00
-2.543183e+00
-2.609066e+00
0.000000e+00
-5.122323e-02
-1.019026e-01
-1.537099e-01
-2.091056e-01
-2.683939e-01
-3.317585e-01
-3.981461e-01
-4.673305e-01
-5.379838e-01
-6.096312e-01
-6.813872e-01
-7.529662e-01
-8.243286e-01
-8.952059e-01
-9.658292e-01
-1.035684e+00
-1.104653e+00
-1.172130e+00
-1.237478e+00
-1.299828e+00
-1.357794e+00
-1.409972e+00
-1.454556e+00
-1.490448e+00
-1.515453e+00
-1.529288e+00
-1.534413e+00
-1.518152e+00
-1.488660e+00
-1.477594e+00
-1.501142e+00
-1.565580e+00
0.000000e+00
-2.699888e-02
-5.384694e-02
-8.126957e-02
-1.099771e-01
-1.404235e-01
-1.724959e-01
-2.060418e-01
-2.406323e-01
-2.759332e-01
-3.114073e-01
-3.467081e-01
-3.815472e-01
-4.157561e-01
-4.492891e-01
-4.819763e-01
-5.136187e-01
-5.438165e-01
-5.722125e-01
-5.982999e-01
-6.213730e-01
-6.405668e-01
-6.546362e-01
-6.626390e-01
-6.629459e-01
-6.561575e-01
-6.400844e-01
-6.017523e-01
-5.520835e-01
-5.008952e-01
-4.746106e-01
-4.979698e-01
-5.650595e-01
0.000000e+00
-1.982807e-03
-4.012394e-03
-6.003147e-03
-7.844051e-03
-9.411952e-03
-1.064081e-02
-1.152715e-02
-1.211154e-02
-1.237010e-02
-1.221100e-02
-1.149113e-02
-1.006594e-02
-7.764056e-03
-4.372506e-03
2.303297e-04
6.290440e-03
1.420977e-02
2.408912e-02
3.585755e-02
5.000864e-02
6.694975e-02
8.657034e-02
1.113870e-01
1.420249e-01
1.829937e-01
2.428251e-01
3.147694e-01
3.879594e-01
4.390566e-01
4.548262e-01
4.225757e-01
3.431523e-01
0.000000e+00
2.318117e-02
4.613749e-02
6.974312e-02
9.495083e-02
1.224670e-01
1.523458e-01
1.843433e-01
2.179259e-01
2.526559e-01
2.881695e-01
3.243151e-01
3.610882e-01
3.988870e-01
4.382196e-01
4.794507e-01
5.230253e-01
5.688288e-01
6.167320e-01
6.661423e-01
7.162349e-01
7.677371e-01
8.230139e-01
8.821691e-01
9.497747e-01
1.032956e+00
1.122626e+00
1.213900e+00
1.288133e+00
1.331956e+00
1.329409e+00
1.284001e+00
1.221218e+00
0.000000e+00
4.780414e-02
9.507632e-02
1.435857e-01
1.960213e-01
2.531060e-01
3.150217e-01
3.806966e-01
4.493347e-01
5.196324e-01
5.907411e-01
6.618532e-01
7.329842e-01
8.048142e-01
8.784254e-01
9.554596e-01
1.036333e+00
1.120115e+00
1.205597e+00
1.292490e+00
1.381816e+00
1.471513e+00
1.563794e+00
1.666300e+00
1.775030e+00
1.885875e+00
1.995375e+00
2.084642e+00
2.148854e+00
2.175551e+00
2.167953e+00
2.137918e+00
2.093824e+00
0.000000e+00
7.137187e-02
1.400576e-01
2.126848e-01
2.922162e-01
3.806879e-01
4.757726e-01
5.771013e-01
6.816947e-01
7.895655e-01
8.979544e-01
1.006812e+00
1.115382e+00
1.224267e+00
1.334144e+00
1.444785e+00
1.558863e+00
1.675941e+00
1.795320e+00
1.917955e+00
2.046453e+00
2.182637e+00
2.324737e+00
2.466951e+00
2.605024e+00
2.734134e+00
2.846331e+00
2.935541e+00
2.991377e+00
3.019539e+00
3.023043e+00
3.005008e+00
2.977436e+00
0.000000e+00
9.015645e-02
1.790325e-01
2.689637e-01
3.828621e-01
5.017883e-01
6.344472e-01
7.722185e-01
9.159943e-01
1.059843e+00
1.206473e+00
1.353353e+00
1.500688e+00
1.652037e+00
1.803055e+00
1.958088e+00
2.113942e+00
2.274141e+00
2.439188e+00
2.605479e+00
2.774565e+00
2.946250e+00
3.116268e+00
3.280871e+00
3.434169e+00
3.575031e+00
3.695669e+00
3.786806e+00
3.853486e+00
3.892735e+00
3.905709e+00
3.899194e+00
3.884680e+00
0.000000e+00
9.878231e-02
1.798010e-01
3.318956e-01
4.589029e-01
6.218431e-01
8.040522e-01
9.740473e-01
1.167553e+00
1.345292e+00
1.528812e+00
1.709219e+00
1.892112e+00
2.081676e+00
2.275778e+00
2.476804e+00
2.680312e+00
2.886074e+00
3.096346e+00
3.309520e+00
3.520009e+00
3.724628e+00
3.920820e+00
4.105344e+00
4.280064e+00
4.437620e+00
4.572876e+00
4.679808e+00
4.756407e+00
4.804236e+00
4.826466e+00
4.829291e+00
4.824555e+00
0.000000e+00
1.009736e-01
2.323526e-01
4.210477e-01
6.378737e-01
8.476090e-01
1.078941e+00
1.309713e+00
1.539456e+00
1.774173e+00
1.998255e+00
2.224512e+00
2.446432e+00
2.672790e+00
2.901132e+00
3.132507e+00
3.365856e+00
3.596723e+00
3.828450e+00
4.061064e+00
4.295309e+00
4.524274e+00
4.745014e+00
4.966204e+00
5.176776e+00
5.363061e+00
5.512739e+00
5.627550e+00
5.710083e+00
5.762993e+00
5.790710e+00
5.799773e+00
5.800889e+00
0.000000e+00
2.337398e-01
4.716984e-01
7.364406e-01
1.001866e+00
1.254170e+00
1.523256e+00
1.783861e+00
2.045811e+00
2.310426e+00
2.570347e+00
2.834486e+00
3.094002e+00
3.355922e+00
3.615813e+00
3.875546e+00
4.135472e+00
4.392867e+00
4.650617e+00
4.904702e+00
5.159999e+00
5.413525e+00
5.666853e+00
5.925114e+00
6.168503e+00
6.369282e+00
6.526856e+00
6.643766e+00
6.724035e+00
6.773274e+00
6.798430e+00
6.807541e+00
6.809781e+00
0.000000e+00
4.727999e-01
7.892469e-01
1.134308e+00
1.439148e+00
1.729631e+00
2.037699e+00
2.322680e+00
2.619796e+00
2.910477e+00
3.206105e+00
3.505156e+00
3.802585e+00
4.100154e+00
4.393201e+00
4.684171e+00
4.972414e+00
5.261890e+00
5.552203e+00
5.840299e+00
6.127444e+00
6.416060e+00
6.707371e+00
7.000072e+00
7.264976e+00
7.475817e+00
7.634095e+00
7.743076e+00
7.808004e+00
7.837138e+00
7.842219e+00
7.837586e+00
7.835028e+00
0.000000e+00
-2.790146e-01
-5.889097e-01
-9.850419e-01
-1.416752e+00
-1.886015e+00
-2.395813e+00
-2.936298e+00
-3.512532e+00
-4.120327e+00
-4.762191e+00
-5.440106e+00
-6.154183e+00
-6.906587e+00
-7.695750e+00
-8.523749e+00
-9.390246e+00
-1.029655e+01
-1.124271e+01
-1.222826e+01
-1.325376e+01
-1.431913e+01
-1.542572e+01
-1.657244e+01
-1.775700e+01
-1.898072e+01
-2.024797e+01
-2.156888e+01
-2.295050e+01
-2.441305e+01
-2.597353e+01
-2.778154e+01
-3.031967e+01
0.000000e+00
-1.799883e-01
-5.084735e-01
-8.972876e-01
-1.335745e+00
-1.801598e+00
-2.311291e+00
-2.853800e+00
-3.428308e+00
-4.037206e+00
-4.677999e+00
-5.356327e+00
-6.070087e+00
-6.822655e+00
-7.611876e+00
-8.439518e+00
-9.306254e+00
-1.021225e+01
-1.115870e+01
-1.214414e+01
-1.316971e+01
-1.423479e+01
-1.534146e+01
-1.648885e+01
-1.767330e+01
-1.889652e+01
-2.016225e+01
-2.148155e+01
-2.286452e+01
-2.431818e+01
-2.589802e+01
-2.769314e+01
-2.994445e+01
0.000000e+00
-1.589236e-01
-4.495015e-01
-8.407686e-01
-1.269116e+00
-1.732702e+00
-2.240452e+00
-2.780811e+00
-3.356542e+00
-3.964362e+00
-4.606116e+00
-5.284589e+00
-5.998621e+00
-6.751234e+00
-7.541074e+00
-8.368768e+00
-9.235821e+00
-1.014173e+01
-1.108798e+01
-1.207338e+01
-1.309887e+01
-1.416358e+01
-1.526892e+01
-1.641551e+01
-1.760088e+01
-1.882687e+01
-2.009448e+01
-2.141887e+01
-2.280570e+01
-2.427984e+01
-2.590249e+01
-2.758727e+01
-2.933578e+01
0.000000e+00
-2.039980e-01
-4.495359e-01
-8.370894e-01
-1.234174e+00
-1.687018e+00
-2.193197e+00
-2.720830e+00
-3.302655e+00
-3.904895e+00
-4.549439e+00
-5.228139e+00
-5.940955e+00
-6.695726e+00
-7.483979e+00
-8.313721e+00
-9.179739e+00
-1.008584e+01
-1.103185e+01
-1.201625e+01
-1.304253e+01
-1.410625e+01
-1.521071e+01
-1.635711e+01
-1.754458e+01
-1.877673e+01
-2.005043e+01
-2.138206e+01
-2.277774e+01
-2.427125e+01
-2.588679e+01
-2.743642e+01
-2.883554e+01
0.000000e+00
-2.202477e-01
-4.880433e-01
-8.326168e-01
-1.232047e+00
-1.667419e+00
-2.164101e+00
-2.686020e+00
-3.262834e+00
-3.864941e+00
-4.508432e+00
-5.188787e+00
-5.900441e+00
-6.657339e+00
-7.444294e+00
-8.275473e+00
-9.141030e+00
-1.004693e+01
-1.099306e+01
-1.197673e+01
-1.300343e+01
-1.406724e+01
-1.517292e+01
-1.632026e+01
-1.751123e+01
-1.874664e+01
-2.002844e+01
-2.136377e+01
-2.276202e+01
-2.425097e+01
-2.578685e+01
-2.723535e+01
-2.850134e+01
0.000000e+00
-2.272201e-01
-5.044160e-01
-8.385580e-01
-1.225789e+00
-1.660579e+00
-2.142549e+00
-2.666783e+00
-3.233409e+00
-3.837998e+00
-4.479811e+00
-5.159332e+00
-5.874661e+00
-6.628423e+00
-7.419171e+00
-8.248178e+00
-9.115601e+00
-1.002173e+01
-1.096785e+01
-1.195359e+01
-1.298003e+01
-1.404674e+01
-1.515448e+01
-1.630451e+01
-1.749769e+01
-1.873494e+01
-2.001919e+01
-2.135405e+01
-2.274146e+01
-2.419014e+01
-2.563160e+01
-2.699986e+01
-2.820403e+01
0.000000e+00
-2.309183e-01
-5.106151e-01
-8.417755e-01
-1.223829e+00
-1.654556e+00
-2.131814e+00
-2.653275e+00
-3.216880e+00
-3.820353e+00
-4.462300e+00
-5.141760e+00
-5.858468e+00
-6.612471e+00
-7.404024e+00
-8.233579e+00
-9.101642e+00
-1.000893e+01
-1.095603e+01
-1.194349e+01
-1.297171e+01
-1.404093e+01
-1.515154e+01
-1.630382e+01
-1.749840e+01
-1.873586e+01
-2.001619e+01
-2.134746e+01
-2.270303e+01
-2.410047e+01
-2.547637e+01
-2.677677e+01
-2.791852e+01
0.000000e+00
-2.323170e-01
-5.129358e-01
-8.432294e-01
-1.223257e+00
-1.651824e+00
-2.127124e+00
-2.647092e+00
-3.209654e+00
-3.812870e+00
-4.455147e+00
-5.135407e+00
-5.853020e+00
-6.607861e+00
-7.400120e+00
-8.230351e+00
-9.099306e+00
-1.000769e+01
-1.095617e+01
-1.194530e+01
-1.297554e+01
-1.404713e+01
-1.516000e+01
-1.631413e+01
-1.750801e+01
-1.874515e+01
-2.001778e+01
-2.132982e+01
-2.265086e+01
-2.399532e+01
-2.532475e+01
-2.656750e+01
-2.765346e+01
0.000000e+00
-2.326061e-01
-5.135297e-01
-8.438526e-01
-1.223732e+00
-1.652220e+00
-2.127604e+00
-2.647842e+00
-3.210895e+00
-3.814888e+00
-4.458225e+00
-5.139651e+00
-5.858398e+00
-6.614210e+00
-7.407238e+00
-8.238118e+00
-9.107981e+00
-1.001756e+01
-1.096720e+01
-1.195767e+01
-1.298960e+01
-1.406263e+01
-1.517684e+01
-1.633146e+01
-1.752468e+01
-1.875632e+01
-2.001461e+01
-2.129760e+01
-2.259431e+01
-2.388804e+01
-2.515834e+01
-2.632596e+01
-2.731858e+01
0.000000e+00
-2.321516e-01
-5.129878e-01
-8.439701e-01
-1.225277e+00
-1.655687e+00
-2.133159e+00
-2.655417e+00
-3.220343e+00
-3.826122e+00
-4.471179e+00
-5.154137e+00
-5.874131e+00
-6.631074e+00
-7.425027e+00
-8.256395e+00
-9.127338e+00
-1.003820e+01
-1.098880e+01
-1.197946e+01
-1.301266e+01
-1.408590e+01
-1.519848e+01
-1.635483e+01
-1.754088e+01
-1.876068e+01
-2.000176e+01
-2.126195e+01
-2.252941e+01
-2.378601e+01
-2.499116e+01
-2.609218e+01
-2.705114e+01
0.000000e+00
-2.306722e-01
-5.107812e-01
-8.432498e-01
-1.227917e+00
-1.662488e+00
-2.144214e+00
-2.670208e+00
-3.238310e+00
-3.846652e+00
-4.493868e+00
-5.178369e+00
-5.899375e+00
-6.657624e+00
-7.452582e+00
-8.285017e+00
-9.157368e+00
-1.006959e+01
-1.102106e+01
-1.201082e+01
-1.304325e+01
-1.411447e+01
-1.522493e+01
-1.637486e+01
-1.755220e+01
-1.875679e+01
-1.998655e+01
-2.122472e+01
-2.246650e+01
-2.368223e+01
-2.484164e+01
-2.591066e+01
-2.685898e+01
0.000000e+00
-2.270062e-01
-5.048485e-01
-8.408032e-01
-1.231935e+00
-1.673262e+00
-2.161922e+00
-2.693024e+00
-3.265778e+00
-3.877200e+00
-4.526415e+00
-5.212234e+00
-5.933461e+00
-6.692737e+00
-7.488828e+00
-8.323469e+00
-9.197674e+00
-1.011088e+01
-1.106236e+01
-1.205100e+01
-1.307910e+01
-1.414623e+01
-1.525095e+01
-1.639093e+01
-1.755896e+01
-1.875405e+01
-1.997188e+01
-2.119709e+01
-2.241196e+01
-2.359836e+01
-2.472836e+01
-2.578141e+01
-2.673369e+01
0.000000e+00
-2.199282e-01
-4.888206e-01
-8.360132e-01
-1.240245e+00
-1.686849e+00
-2.190552e+00
-2.723394e+00
-3.305229e+00
-3.917474e+00
-4.569035e+00
-5.255851e+00
-5.976215e+00
-6.738245e+00
-7.534606e+00
-8.372836e+00
-9.248010e+00
-1.016029e+01
-1.111018e+01
-1.209548e+01
-1.311872e+01
-1.418000e+01
-1.527675e+01
-1.640736e+01
-1.756819e+01
-1.875952e+01
-1.997155e+01
-2.118201e+01
-2.237699e+01
-2.353815e+01
-2.464953e+01
-2.569560e+01
-2.666261e+01
0.000000e+00
-2.027145e-01
-4.501417e-01
-8.413409e-01
-1.247128e+00
-1.712582e+00
-2.229939e+00
-2.766291e+00
-3.355983e+00
-3.967581e+00
-4.620298e+00
-5.306411e+00
-6.029173e+00
-6.792996e+00
-7.592765e+00
-8.432536e+00
-9.307685e+00
-1.021815e+01
-1.116465e+01
-1.214612e+01
-1.316407e+01
-1.421812e+01
-1.530614e+01
-1.642957e+01
-1.759161e+01
-1.878292e+01
-1.998786e+01
-2.118315e+01
-2.235922e+01
-2.350200e+01
-2.459988e+01
-2.564456e+01
-2.663186e+01
0.000000e+00
-1.561037e-01
-4.480866e-01
-8.443988e-01
-1.284554e+00
-1.761630e+00
-2.281730e+00
-2.830973e+00
-3.415334e+00
-4.030932e+00
-4.679897e+00
-5.366617e+00
-6.091146e+00
-6.856016e+00
-7.658795e+00
-8.498291e+00
-9.373146e+00
-1.028180e+01
-1.122630e+01
-1.220506e+01
-1.321856e+01
-1.426617e+01
-1.534705e+01
-1.647150e+01
-1.763603e+01
-1.882451e+01
-2.001539e+01
-2.119713e+01
-2.235777e+01
-2.348633e+01
-2.457425e+01
-2.561899e+01
-2.662666e+01
0.000000e+00
-1.766485e-01
-5.061058e-01
-9.011557e-01
-1.351928e+00
-1.831881e+00
-2.353600e+00
-2.905813e+00
-3.488552e+00
-4.104874e+00
-4.752309e+00
-5.439036e+00
-6.163690e+00
-6.929142e+00
-7.732249e+00
-8.571680e+00
-9.445500e+00
-1.035272e+01
-1.129608e+01
-1.227348e+01
-1.328521e+01
-1.432970e+01
-1.541108e+01
-1.653662e+01
-1.769772e+01
-1.887384e+01
-2.005154e+01
-2.122018e+01
-2.236835e+01
-2.348579e+01
-2.456594e+01
-2.560978e+01
-2.663135e+01
0.000000e+00
-2.764742e-01
-5.876336e-01
-9.897282e-01
-1.433130e+00
-1.915816e+00
-2.437709e+00
-2.988083e+00
-3.572511e+00
-4.187646e+00
-4.836431e+00
-5.522822e+00
-6.247478e+00
-7.012511e+00
-7.814850e+00
-8.653869e+00
-9.526823e+00
-1.043402e+01
-1.137646e+01
-1.235338e+01
-1.336465e+01
-1.440940e+01