TITLE = "Solution"
VARIABLES = x, y, u, v, psiu, psiv, t, stress
ZONE T="structure" N=561 E=512 F=FEBLOCK ET=QUADRILATERAL VARLOCATION=([7,8]=cellcentered)
0.000000e+00
6.250000e+00
1.250000e+01
1.875000e+01
2.500000e+01
3.125000e+01
3.750000e+01
4.375000e+01
5.000000e+01
5.625000e+01
6.250000e+01
6.875000e+01
7.500000e+01
8.125000e+01
8.750000e+01
9.375000e+01
1.000000e+02
1.062500e+02
1.125000e+02
1.187500e+02
1.250000e+02
1.312500e+02
1.375000e+02
1.437500e+02
1.500000e+02
1.562500e+02
1.625000e+02
1.687500e+02
1.750000e+02
1.812500e+02
1.875000e+02
1.937500e+02
2.000000e+02
0.000000e+00
6.250000e+00
1.250000e+01
1.875000e+01
2.500000e+01
3.125000e+01
3.750000e+01
4.375000e+01
5.000000e+01
5.625000e+01
6.250000e+01
6.875000e+01
7.500000e+01
8.125000e+01
8.750000e+01
9.375000e+01
1.000000e+02
1.062500e+02
1.125000e+02
1.187500e+02
1.250000e+02
1.312500e+02
1.375000e+02
1.437500e+02
1.500000e+02
1.562500e+02
1.625000e+02
1.687500e+02
1.750000e+02
1.812500e+02
1.875000e+02
1.937500e+02
2.000000e+02
0.000000e+00
6.250000e+00
1.250000e+01
1.875000e+01
2.500000e+01
3.125000e+01
3.750000e+01
4.375000e+01
5.000000e+01
5.625000e+01
6.250000e+01
6.875000e+01
7.500000e+01
8.125000e+01
8.750000e+01
9.375000e+01
1.000000e+02
1.062500e+02
1.125000e+02
1.187500e+02
1.250000e+02
1.312500e+02
1.375000e+02
1.437500e+02
1.500000e+02
1.562500e+02
1.625000e+02
1.687500e+02
1.750000e+02
1.812500e+02
1.875000e+02
1.937500e+02
2.000000e+02
0.000000e+00
6.250000e+00
1.250000e+01
1.875000e+01
2.500000e+01
3.125000e+01
3.750000e+01
4.375000e+01
5.000000e+01
5.625000e+01
6.250000e+01
6.875000e+01
7.500000e+01
8.125000e+01
8.750000e+01
9.375000e+01
1.000000e+02
1.062500e+02
1.125000e+02
1.187500e+02
1.250000e+02
1.312500e+02
1.375000e+02
1.437500e+02
1.500000e+02
1.562500e+02
1.625000e+02
1.687500e+02
1.750000e+02
1.812500e+02
1.875000e+02
1.937500e+02
2.000000e+02
0.000000e+00
6.250000e+00
1.250000e+01
1.875000e+01
2.500000e+01
3.125000e+01
3.750000e+01
4.375000e+01
5.000000e+01
5.625000e+01
6.250000e+01
6.875000e+01
7.500000e+01
8.125000e+01
8.750000e+01
9.375000e+01
1.000000e+02
1.062500e+02
1.125000e+02
1.187500e+02
1.250000e+02
1.312500e+02
1.375000e+02
1.437500e+02
1.500000e+02
1.562500e+02
1.625000e+02
1.687500e+02
1.750000e+02
1.812500e+02
1.875000e+02
1.937500e+02
2.000000e+02
0.000000e+00
6.250000e+00
1.250000e+01
1.875000e+01
2.500000e+01
3.125000e+01
3.750000e+01
4.375000e+01
5.000000e+01
5.625000e+01
6.250000e+01
6.875000e+01
7.500000e+01
8.125000e+01
8.750000e+01
9.375000e+01
1.000000e+02
1.062500e+02
1.125000e+02
1.187500e+02
1.250000e+02
1.312500e+02
1.375000e+02
1.437500e+02
1.500000e+02
1.562500e+02
1.625000e+02
1.687500e+02
1.750000e+02
1.812500e+02
1.875000e+02
1.937500e+02
2.000000e+02
0.000000e+00
6.250000e+00
1.250000e+01
1.875000e+01
2.500000e+01
3.125000e+01
3.750000e+01
4.375000e+01
5.000000e+01
5.625000e+01
6.250000e+01
6.875000e+01
7.500000e+01
8.125000e+01
8.750000e+01
9.375000e+01
1.000000e+02
1.062500e+02
1.125000e+02
1.187500e+02
1.250000e+02
1.312500e+02
1.375000e+02
1.437500e+02
1.500000e+02
1.562500e+02
1.625000e+02
1.687500e+02
1.750000e+02
1.812500e+02
1.875000e+02
1.937500e+02
2.000000e+02
0.000000e+00
6.250000e+00
1.250000e+01
1.875000e+01
2.500000e+01
3.125000e+01
3.750000e+01
4.375000e+01
5.000000e+01
5.625000e+01
6.250000e+01
6.875000e+01
7.500000e+01
8.125000e+01
8.750000e+01
9.375000e+01
1.000000e+02
1.062500e+02
1.125000e+02
1.187500e+02
1.250000e+02
1.312500e+02
1.375000e+02
1.437500e+02
1.500000e+02
1.562500e+02
1.625000e+02
1.687500e+02
1.750000e+02
1.812500e+02
1.875000e+02
1.937500e+02
2.000000e+02
0.000000e+00
6.250000e+00
1.250000e+01
1.875000e+01
2.500000e+01
3.125000e+01
3.750000e+01
4.375000e+01
5.000000e+01
5.625000e+01
6.250000e+01
6.875000e+01
7.500000e+01
8.125000e+01
8.750000e+01
9.375000e+01
1.000000e+02
1.062500e+02
1.125000e+02
1.187500e+02
1.250000e+02
1.312500e+02
1.375000e+02
1.437500e+02
1.500000e+02
1.562500e+02
1.625000e+02
1.687500e+02
1.750000e+02
1.812500e+02
1.875000e+02
1.937500e+02
2.000000e+02
0.000000e+00
6.250000e+00
1.250000e+01
1.875000e+01
2.500000e+01
3.125000e+01
3.750000e+01
4.375000e+01
5.000000e+01
5.625000e+01
6.250000e+01
6.875000e+01
7.500000e+01
8.125000e+01
8.750000e+01
9.375000e+01
1.000000e+02
1.062500e+02
1.125000e+02
1.187500e+02
1.250000e+02
1.312500e+02
1.375000e+02
1.437500e+02
1.500000e+02
1.562500e+02
1.625000e+02
1.687500e+02
1.750000e+02
1.812500e+02
1.875000e+02
1.937500e+02
2.000000e+02
0.000000e+00
6.250000e+00
1.250000e+01
1.875000e+01
2.500000e+01
3.125000e+01
3.750000e+01
4.375000e+01
5.000000e+01
5.625000e+01
6.250000e+01
6.875000e+01
7.500000e+01
8.125000e+01
8.750000e+01
9.375000e+01
1.000000e+02
1.062500e+02
1.125000e+02
1.187500e+02
1.250000e+02
1.312500e+02
1.375000e+02
1.437500e+02
1.500000e+02
1.562500e+02
1.625000e+02
1.687500e+02
1.750000e+02
1.812500e+02
1.875000e+02
1.937500e+02
2.000000e+02
0.000000e+00
6.250000e+00
1.250000e+01
1.875000e+01
2.500000e+01
3.125000e+01
3.750000e+01
4.375000e+01
5.000000e+01
5.625000e+01
6.250000e+01
6.875000e+01
7.500000e+01
8.125000e+01
8.750000e+01
9.375000e+01
1.000000e+02
1.062500e+02
1.125000e+02
1.187500e+02
1.250000e+02
1.312500e+02
1.375000e+02
1.437500e+02
1.500000e+02
1.562500e+02
1.625000e+02
1.687500e+02
1.750000e+02
1.812500e+02
1.875000e+02
1.937500e+02
2.000000e+02
0.000000e+00
6.250000e+00
1.250000e+01
1.875000e+01
2.500000e+01
3.125000e+01
3.750000e+01
4.375000e+01
5.000000e+01
5.625000e+01
6.250000e+01
6.875000e+01
7.500000e+01
8.125000e+01
8.750000e+01
9.375000e+01
1.000000e+02
1.062500e+02
1.125000e+02
1.187500e+02
1.250000e+02
1.312500e+02
1.375000e+02
1.437500e+02
1.500000e+02
1.562500e+02
1.625000e+02
1.687500e+02
1.750000e+02
1.812500e+02
1.875000e+02
1.937500e+02
2.000000e+02
0.000000e+00
6.250000e+00
1.250000e+01
1.875000e+01
2.500000e+01
3.125000e+01
3.750000e+01
4.375000e+01
5.000000e+01
5.625000e+01
6.250000e+01
6.875000e+01
7.500000e+01
8.125000e+01
8.750000e+01
9.375000e+01
1.000000e+02
1.062500e+02
1.125000e+02
1.187500e+02
1.250000e+02
1.312500e+02
1.375000e+02
1.437500e+02
1.500000e+02
1.562500e+02
1.625000e+02
1.687500e+02
1.750000e+02
1.812500e+02
1.875000e+02
1.937500e+02
2.000000e+02
0.000000e+00
6.250000e+00
1.250000e+01
1.875000e+01
2.500000e+01
3.125000e+01
3.750000e+01
4.375000e+01
5.000000e+01
5.625000e+01
6.250000e+01
6.875000e+01
7.500000e+01
8.125000e+01
8.750000e+01
9.375000e+01
1.000000e+02
1.062500e+02
1.125000e+02
1.187500e+02
1.250000e+02
1.312500e+02
1.375000e+02
1.437500e+02
1.500000e+02
1.562500e+02
1.625000e+02
1.687500e+02
1.750000e+02
1.812500e+02
1.875000e+02
1.937500e+02
2.000000e+02
0.000000e+00
6.250000e+00
1.250000e+01
1.875000e+01
2.500000e+01
3.125000e+01
3.750000e+01
4.375000e+01
5.000000e+01
5.625000e+01
6.250000e+01
6.875000e+01
7.500000e+01
8.125000e+01
8.750000e+01
9.375000e+01
1.000000e+02
1.062500e+02
1.125000e+02
1.187500e+02
1.250000e+02
1.312500e+02
1.375000e+02
1.437500e+02
1.500000e+02
1.562500e+02
1.625000e+02
1.687500e+02
1.750000e+02
1.812500e+02
1.875000e+02
1.937500e+02
2.000000e+02
0.000000e+00
6.250000e+00
1.250000e+01
1.875000e+01
2.500000e+01
3.125000e+01
3.750000e+01
4.375000e+01
5.000000e+01
5.625000e+01
6.250000e+01
6.875000e+01
7.500000e+01
8.125000e+01
8.750000e+01
9.375000e+01
1.000000e+02
1.062500e+02
1.125000e+02
1.187500e+02
1.250000e+02
1.312500e+02
1.375000e+02
1.437500e+02
1.500000e+02
1.562500e+02
1.625000e+02
1.687500e+02
1.750000e+02
1.812500e+02
1.875000e+02
1.937500e+02
2.000000e+02
0.000000e+00
0.000000e+00
0.000000e+00
0.000000e+00
0.000000e+00
0.000000e+00
0.000000e+00
0.000000e+00
0.000000e+00
0.000000e+00
0.000000e+00
0.000000e+00
0.000000e+00
0.000000e+00
0.000000e+00
0.000000e+00
0.000000e+00
0.000000e+00
0.000000e+00
0.000000e+00
0.000000e+00
0.000000e+00
0.000000e+00
0.000000e+00
0.000000e+00
0.000000e+00
0.000000e+00
0.000000e+00
0.000000e+00
0.000000e+00
0.000000e+00
0.000000e+00
0.000000e+00
6.250000e+00
6.250000e+00
6.250000e+00
6.250000e+00
6.250000e+00
6.250000e+00
6.250000e+00
6.250000e+00
6.250000e+00
6.250000e+00
6.250000e+00
6.250000e+00
6.250000e+00
6.250000e+00
6.250000e+00
6.250000e+00
6.250000e+00
6.250000e+00
6.250000e+00
6.250000e+00
6.250000e+00
6.250000e+00
6.250000e+00
6.250000e+00
6.250000e+00
6.250000e+00
6.250000e+00
6.250000e+00
6.250000e+00
6.250000e+00
6.250000e+00
6.250000e+00
6.250000e+00
1.250000e+01
1.250000e+01
1.250000e+01
1.250000e+01
1.250000e+01
1.250000e+01
1.250000e+01
1.250000e+01
1.250000e+01
1.250000e+01
1.250000e+01
1.250000e+01
1.250000e+01
1.250000e+01
1.250000e+01
1.250000e+01
1.250000e+01
1.250000e+01
1.250000e+01
1.250000e+01
1.250000e+01
1.250000e+01
1.250000e+01
1.250000e+01
1.250000e+01
1.250000e+01
1.250000e+01
1.250000e+01
1.250000e+01
1.250000e+01
1.250000e+01
1.250000e+01
1.250000e+01
1.875000e+01
1.875000e+01
1.875000e+01
1.875000e+01
1.875000e+01
1.875000e+01
1.875000e+01
1.875000e+01
1.875000e+01
1.875000e+01
1.875000e+01
1.875000e+01
1.875000e+01
1.875000e+01
1.875000e+01
1.875000e+01
1.875000e+01
1.875000e+01
1.875000e+01
1.875000e+01
1.875000e+01
1.875000e+01
1.875000e+01
1.875000e+01
1.875000e+01
1.875000e+01
1.875000e+01
1.875000e+01
1.875000e+01
1.875000e+01
1.875000e+01
1.875000e+01
1.875000e+01
2.500000e+01
2.500000e+01
2.500000e+01
2.500000e+01
2.500000e+01
2.500000e+01
2.500000e+01
2.500000e+01
2.500000e+01
2.500000e+01
2.500000e+01
2.500000e+01
2.500000e+01
2.500000e+01
2.500000e+01
2.500000e+01
2.500000e+01
2.500000e+01
2.500000e+01
2.500000e+01
2.500000e+01
2.500000e+01
2.500000e+01
2.500000e+01
2.500000e+01
2.500000e+01
2.500000e+01
2.500000e+01
2.500000e+01
2.500000e+01
2.500000e+01
2.500000e+01
2.500000e+01
3.125000e+01
3.125000e+01
3.125000e+01
3.125000e+01
3.125000e+01
3.125000e+01
3.125000e+01
3.125000e+01
3.125000e+01
3.125000e+01
3.125000e+01
3.125000e+01
3.125000e+01
3.125000e+01
3.125000e+01
3.125000e+01
3.125000e+01
3.125000e+01
3.125000e+01
3.125000e+01
3.125000e+01
3.125000e+01
3.125000e+01
3.125000e+01
3.125000e+01
3.125000e+01
3.125000e+01
3.125000e+01
3.125000e+01
3.125000e+01
3.125000e+01
3.125000e+01
3.125000e+01
3.750000e+01
3.750000e+01
3.750000e+01
3.750000e+01
3.750000e+01
3.750000e+01
3.750000e+01
3.750000e+01
3.750000e+01
3.750000e+01
3.750000e+01
3.750000e+01
3.750000e+01
3.750000e+01
3.750000e+01
3.750000e+01
3.750000e+01
3.750000e+01
3.750000e+01
3.750000e+01
3.750000e+01
3.750000e+01
3.750000e+01
3.750000e+01
3.750000e+01
3.750000e+01
3.750000e+01
3.750000e+01
3.750000e+01
3.750000e+01
3.750000e+01
3.750000e+01
3.750000e+01
4.375000e+01
4.375000e+01
4.375000e+01
4.375000e+01
4.375000e+01
4.375000e+01
4.375000e+01
4.375000e+01
4.375000e+01
4.375000e+01
4.375000e+01
4.375000e+01
4.375000e+01
4.375000e+01
4.375000e+01
4.375000e+01
4.375000e+01
4.375000e+01
4.375000e+01
4.375000e+01
4.375000e+01
4.375000e+01
4.375000e+01
4.375000e+01
4.375000e+01
4.375000e+01
4.375000e+01
4.375000e+01
4.375000e+01
4.375000e+01
4.375000e+01
4.375000e+01
4.375000e+01
5.000000e+01
5.000000e+01
5.000000e+01
5.000000e+01
5.000000e+01
5.000000e+01
5.000000e+01
5.000000e+01
5.000000e+01
5.000000e+01
5.000000e+01
5.000000e+01
5.000000e+01
5.000000e+01
5.000000e+01
5.000000e+01
5.000000e+01
5.000000e+01
5.000000e+01
5.000000e+01
5.000000e+01
5.000000e+01
5.000000e+01
5.000000e+01
5.000000e+01
5.000000e+01
5.000000e+01
5.000000e+01
5.000000e+01
5.000000e+01
5.000000e+01
5.000000e+01
5.000000e+01
5.625000e+01
5.625000e+01
5.625000e+01
5.625000e+01
5.625000e+01
5.625000e+01
5.625000e+01
5.625000e+01
5.625000e+01
5.625000e+01
5.625000e+01
5.625000e+01
5.625000e+01
5.625000e+01
5.625000e+01
5.625000e+01
5.625000e+01
5.625000e+01
5.625000e+01
5.625000e+01
5.625000e+01
5.625000e+01
5.625000e+01
5.625000e+01
5.625000e+01
5.625000e+01
5.625000e+01
5.625000e+01
5.625000e+01
5.625000e+01
5.625000e+01
5.625000e+01
5.625000e+01
6.250000e+01
6.250000e+01
6.250000e+01
6.250000e+01
6.250000e+01
6.250000e+01
6.250000e+01
6.250000e+01
6.250000e+01
6.250000e+01
6.250000e+01
6.250000e+01
6.250000e+01
6.250000e+01
6.250000e+01
6.250000e+01
6.250000e+01
6.250000e+01
6.250000e+01
6.250000e+01
6.250000e+01
6.250000e+01
6.250000e+01
6.250000e+01
6.250000e+01
6.250000e+01
6.250000e+01
6.250000e+01
6.250000e+01
6.250000e+01
6.250000e+01
6.250000e+01
6.250000e+01
6.875000e+01
6.875000e+01
6.875000e+01
6.875000e+01
6.875000e+01
6.875000e+01
6.875000e+01
6.875000e+01
6.875000e+01
6.875000e+01
6.875000e+01
6.875000e+01
6.875000e+01
6.875000e+01
6.875000e+01
6.875000e+01
6.875000e+01
6.875000e+01
6.875000e+01
6.875000e+01
6.875000e+01
6.875000e+01
6.875000e+01
6.875000e+01
6.875000e+01
6.875000e+01
6.875000e+01
6.875000e+01
6.875000e+01
6.875000e+01
6.875000e+01
6.875000e+01
6.875000e+01
7.500000e+01
7.500000e+01
7.500000e+01
7.500000e+01
7.500000e+01
7.500000e+01
7.500000e+01
7.500000e+01
7.500000e+01
7.500000e+01
7.500000e+01
7.500000e+01
7.500000e+01
7.500000e+01
7.500000e+01
7.500000e+01
7.500000e+01
7.500000e+01
7.500000e+01
7.500000e+01
7.500000e+01
7.500000e+01
7.500000e+01
7.500000e+01
7.500000e+01
7.500000e+01
7.500000e+01
7.500000e+01
7.500000e+01
7.500000e+01
7.500000e+01
7.500000e+01
7.500000e+01
8.125000e+01
8.125000e+01
8.125000e+01
8.125000e+01
8.125000e+01
8.125000e+01
8.125000e+01
8.125000e+01
8.125000e+01
8.125000e+01
8.125000e+01
8.125000e+01
8.125000e+01
8.125000e+01
8.125000e+01
8.125000e+01
8.125000e+01
8.125000e+01
8.125000e+01
8.125000e+01
8.125000e+01
8.125000e+01
8.125000e+01
8.125000e+01
8.125000e+01
8.125000e+01
8.125000e+01
8.125000e+01
8.125000e+01
8.125000e+01
8.125000e+01
8.125000e+01
8.125000e+01
8.750000e+01
8.750000e+01
8.750000e+01
8.750000e+01
8.750000e+01
8.750000e+01
8.750000e+01
8.750000e+01
8.750000e+01
8.750000e+01
8.750000e+01
8.750000e+01
8.750000e+01
8.750000e+01
8.750000e+01
8.750000e+01
8.750000e+01
8.750000e+01
8.750000e+01
8.750000e+01
8.750000e+01
8.750000e+01
8.750000e+01
8.750000e+01
8.750000e+01
8.750000e+01
8.750000e+01
8.750000e+01
8.750000e+01
8.750000e+01
8.750000e+01
8.750000e+01
8.750000e+01
9.375000e+01
9.375000e+01
9.375000e+01
9.375000e+01
9.375000e+01
9.375000e+01
9.375000e+01
9.375000e+01
9.375000e+01
9.375000e+01
9.375000e+01
9.375000e+01
9.375000e+01
9.375000e+01
9.375000e+01
9.375000e+01
9.375000e+01
9.375000e+01
9.375000e+01
9.375000e+01
9.375000e+01
9.375000e+01
9.375000e+01
9.375000e+01
9.375000e+01
9.375000e+01
9.375000e+01
9.375000e+01
9.375000e+01
9.375000e+01
9.375000e+01
9.375000e+01
9.375000e+01
1.000000e+02
1.000000e+02
1.000000e+02
1.000000e+02
1.000000e+02
1.000000e+02
1.000000e+02
1.000000e+02
1.000000e+02
1.000000e+02
1.000000e+02
1.000000e+02
1.000000e+02
1.000000e+02
1.000000e+02
1.000000e+02
1.000000e+02
1.000000e+02
1.000000e+02
1.000000e+02
1.000000e+02
1.000000e+02
1.000000e+02
1.000000e+02
1.000000e+02
1.000000e+02
1.000000e+02
1.000000e+02
1.000000e+02
1.000000e+02
1.000000e+02
1.000000e+02
1.000000e+02
0.000000e+00
-4.720220e-01
-7.824766e-01
-1.122418e+00
-1.424161e+00
-1.716161e+00
-2.027935e+00
-2.315436e+00
-2.615185e+00
-2.908814e+00
-3.205945e+00
-3.505033e+00
-3.804300e+00
-4.104076e+00
-4.404077e+00
-4.705387e+00
-5.007821e+00
-5.311028e+00
-5.613582e+00
-5.915898e+00
-6.218133e+00
-6.519994e+00
-6.822398e+00
-7.120069e+00
-7.413539e+00
-7.718323e+00
-8.017695e+00
-8.348454e+00
-8.667661e+00
-9.021177e+00
-9.509858e+00
-9.926430e+00
-1.013063e+01
0.000000e+00
-2.335033e-01
-4.702991e-01
-7.357976e-01
-1.001799e+00
-1.254546e+00
-1.524412e+00
-1.784720e+00
-2.047215e+00
-2.312241e+00
-2.572684e+00
-2.837832e+00
-3.098233e+00
-3.362099e+00
-3.623505e+00
-3.885720e+00
-4.148244e+00
-4.408836e+00
-4.671781e+00
-4.931849e+00
-5.194192e+00
-5.454440e+00
-5.715996e+00
-5.976196e+00
-6.237427e+00
-6.498443e+00
-6.757965e+00
-7.022107e+00
-7.276501e+00
-7.533486e+00
-7.787707e+00
-7.888768e+00
-7.994583e+00
0.000000e+00
-1.029848e-01
-2.381651e-01
-4.346272e-01
-6.531799e-01
-8.604936e-01
-1.086410e+00
-1.313821e+00
-1.541019e+00
-1.772686e+00
-1.996544e+00
-2.223868e+00
-2.446075e+00
-2.671268e+00
-2.894865e+00
-3.117325e+00
-3.339889e+00
-3.560453e+00
-3.784068e+00
-4.006317e+00
-4.231163e+00
-4.454407e+00
-4.678699e+00
-4.907536e+00
-5.137516e+00
-5.360488e+00
-5.572896e+00
-5.770318e+00
-5.949870e+00
-6.098871e+00
-6.186290e+00
-6.191830e+00
-6.284721e+00
0.000000e+00
-1.024789e-01
-1.859518e-01
-3.410359e-01
-4.640289e-01
-6.187898e-01
-7.958486e-01
-9.654065e-01
-1.158593e+00
-1.336332e+00
-1.521407e+00
-1.704140e+00
-1.886038e+00
-2.071765e+00
-2.255720e+00
-2.441227e+00
-2.626243e+00
-2.813266e+00
-3.003019e+00
-3.194358e+00
-3.388282e+00
-3.581624e+00
-3.775941e+00
-3.970897e+00
-4.156917e+00
-4.331046e+00
-4.480596e+00
-4.612925e+00
-4.713806e+00
-4.777201e+00
-4.792322e+00
-4.809622e+00
-4.890110e+00
0.000000e+00
-9.300096e-02
-1.845267e-01
-2.754977e-01
-3.889185e-01
-5.046753e-01
-6.368698e-01
-7.712282e-01
-9.161878e-01
-1.057279e+00
-1.203429e+00
-1.348883e+00
-1.492391e+00
-1.641736e+00
-1.784988e+00
-1.934921e+00
-2.080817e+00
-2.230117e+00
-2.379858e+00
-2.528445e+00
-2.678940e+00
-2.825134e+00
-2.969677e+00
-3.107032e+00
-3.235430e+00
-3.349536e+00
-3.446573e+00
-3.520638e+00
-3.569186e+00
-3.593602e+00
-3.597005e+00
-3.626842e+00
-3.698299e+00
0.000000e+00
-7.440932e-02
-1.458689e-01
-2.208641e-01
-3.023015e-01
-3.918133e-01
-4.865903e-01
-5.878527e-01
-6.915961e-01
-7.994288e-01
-9.069041e-01
-1.015695e+00
-1.124480e+00
-1.232546e+00
-1.341952e+00
-1.450029e+00
-1.559309e+00
-1.667413e+00
-1.775248e+00
-1.881857e+00
-1.985859e+00
-2.086821e+00
-2.181704e+00
-2.269329e+00
-2.346922e+00
-2.412572e+00
-2.463934e+00
-2.498868e+00
-2.521450e+00
-2.521826e+00
-2.517147e+00
-2.543663e+00
-2.609497e+00
0.000000e+00
-5.126544e-02
-1.019825e-01
-1.538252e-01
-2.092702e-01
-2.686087e-01
-3.320102e-01
-3.984192e-01
-4.676337e-01
-5.383097e-01
-6.099875e-01
-6.817546e-01
-7.533228e-01
-8.246851e-01
-8.955306e-01
-9.661772e-01
-1.036007e+00
-1.104978e+00
-1.172417e+00
-1.237733e+00
-1.300066e+00
-1.358015e+00
-1.410201e+00
-1.454773e+00
-1.490719e+00
-1.515809e+00
-1.529753e+00
-1.535132e+00
-1.518831e+00
-1.489099e+00
-1.477910e+00
-1.501280e+00
-1.565610e+00
0.000000e+00
-2.702433e-02
-5.389654e-02
-8.134475e-02
-1.100802e-01
-1.405542e-01
-1.726489e-01
-2.062163e-01
-2.408327e-01
-2.761675e-01
-3.116737e-01
-3.469983e-01
-3.818512e-01
-4.160644e-01
-4.496098e-01
-4.823061e-01
-5.139632e-01
-5.441548e-01
-5.725362e-01
-5.985881e-01
-6.216208e-01
-6.407988e-01
-6.548667e-01
-6.628752e-01
-6.631939e-01
-6.565379e-01
-6.406351e-01
-6.022048e-01
-5.524698e-01
-5.010479e-01
-4.743570e-01
-4.975732e-01
-5.645929e-01
0.000000e+00
-1.993048e-03
-4.033349e-03
-6.034823e-03
-7.884659e-03
-9.457864e-03
-1.069072e-02
-1.158701e-02
-1.219541e-02
-1.249352e-02
-1.238038e-02
-1.170383e-02
-1.031658e-02
-8.052420e-03
-4.685370e-03
-1.046436e-04
5.937535e-03
1.386134e-02
2.374921e-02
3.550447e-02
4.969787e-02
6.664658e-02
8.607152e-02
1.106688e-01
1.412096e-01
1.824115e-01
2.426412e-01
3.148309e-01
3.881769e-01
4.392542e-01
4.550300e-01
4.226963e-01
3.429003e-01
0.000000e+00
2.318802e-02
4.614933e-02
6.975941e-02
9.497659e-02
1.225099e-01
1.524059e-01
1.844090e-01
2.179728e-01
2.526575e-01
2.881015e-01
3.241672e-01
3.608381e-01
3.985504e-01
4.378324e-01
4.790485e-01
5.226694e-01
5.684855e-01
6.163912e-01
6.657880e-01
7.156846e-01
7.670098e-01
8.224415e-01
8.817796e-01
9.493363e-01
1.032542e+00
1.122373e+00
1.213906e+00
1.288266e+00
1.332102e+00
1.329251e+00
1.283470e+00
1.220639e+00
0.000000e+00
4.783251e-02
9.513077e-02
1.436596e-01
1.961221e-01
2.532487e-01
3.152016e-01
3.808832e-01
4.495080e-01
5.197512e-01
5.907705e-01
6.617061e-01
7.326305e-01
8.042626e-01
8.777600e-01
9.548480e-01
1.035882e+00
1.119752e+00
1.205299e+00
1.292129e+00
1.381674e+00
1.471254e+00
1.563449e+00
1.666236e+00
1.774981e+00
1.885792e+00
1.995316e+00
2.084341e+00
2.148437e+00
2.174999e+00
2.167363e+00
2.137389e+00
2.093284e+00
0.000000e+00
7.142611e-02
1.401640e-01
2.128380e-01
2.924202e-01
3.809622e-01
4.761049e-01
5.774041e-01
6.819155e-01
7.897786e-01
8.980533e-01
1.006825e+00
1.115106e+00
1.223840e+00
1.333520e+00
1.443932e+00
1.557894e+00
1.675075e+00
1.794633e+00
1.917479e+00
2.046083e+00
2.182365e+00
2.324512e+00
2.466767e+00
2.604950e+00
2.734167e+00
2.846399e+00
2.935448e+00
2.991095e+00
3.019146e+00
3.022642e+00
3.004608e+00
2.977056e+00
0.000000e+00
9.021144e-02
1.791727e-01
2.691824e-01
3.832979e-01
5.023433e-01
6.349521e-01
7.725958e-01
9.164111e-01
1.059844e+00
1.206629e+00
1.353180e+00
1.500499e+00
1.651719e+00
1.802644e+00
1.957647e+00
2.113140e+00
2.273251e+00
2.438641e+00
2.605043e+00
2.774176e+00
2.946086e+00
3.116179e+00
3.280828e+00
3.433980e+00
3.575006e+00
3.695868e+00
3.786799e+00
3.853368e+00
3.892563e+00
3.905504e+00
3.898983e+00
3.884471e+00
0.000000e+00
9.872069e-02
1.796357e-01
3.321185e-01
4.595349e-01
6.225707e-01
8.047910e-01
9.743967e-01
1.168050e+00
1.345397e+00
1.528457e+00
1.708583e+00
1.891388e+00
2.081018e+00
2.275095e+00
2.476454e+00
2.680241e+00
2.885925e+00
3.096212e+00
3.309468e+00
3.519926e+00
3.724656e+00
3.920896e+00
4.105486e+00
4.280221e+00
4.437674e+00
4.572921e+00
4.679849e+00
4.756424e+00
4.804217e+00
4.826427e+00
4.829242e+00
4.824505e+00
0.000000e+00
1.006705e-01
2.316388e-01
4.202503e-01
6.373374e-01
8.475008e-01
1.078831e+00
1.309880e+00
1.539706e+00
1.774452e+00
1.998231e+00
2.224230e+00
2.446016e+00
2.672510e+00
2.900576e+00
3.132018e+00
3.365764e+00
3.596803e+00
3.828411e+00
4.060997e+00
4.295304e+00
4.524248e+00
4.744817e+00
4.966041e+00
5.176887e+00
5.363341e+00
5.512964e+00
5.627704e+00
5.710206e+00
5.763094e+00
5.790796e+00
5.799853e+00
5.800966e+00
0.000000e+00
2.337840e-01
4.715720e-01
7.363907e-01
1.001761e+00
1.253996e+00
1.523122e+00
1.783791e+00
2.045688e+00
2.310360e+00
2.570259e+00
2.834451e+00
3.093876e+00
3.355862e+00
3.615690e+00
3.875401e+00
4.135364e+00
4.392767e+00
4.650535e+00
4.904556e+00
5.159871e+00
5.413328e+00
5.666609e+00
5.925028e+00
6.168822e+00
6.369650e+00
6.527177e+00
6.644026e+00
6.724249e+00
6.773466e+00
6.798612e+00
6.807719e+00
6.809958e+00
0.000000e+00
4.732325e-01
7.897192e-01
1.134972e+00
1.439669e+00
1.729620e+00
2.037739e+00
2.322531e+00
2.619374e+00
2.910195e+00
3.205837e+00
3.505225e+00
3.802667e+00
4.100189e+00
4.393477e+00
4.684538e+00
4.972333e+00
5.261672e+00
5.552077e+00
5.840073e+00
6.127493e+00
6.415754e+00
6.707388e+00
7.000122e+00
7.265428e+00
7.476258e+00
7.634463e+00
7.743378e+00
7.808265e+00
7.837389e+00
7.842475e+00
7.837850e+00
7.835295e+00
0.000000e+00
-2.791545e-01
-5.893662e-01
-9.860236e-01
-1.418149e+00
-1.887720e+00
-2.397890e+00
-2.938705e+00
-3.515135e+00
-4.123054e+00
-4.764927e+00
-5.442839e+00
-6.157103e+00
-6.909561e+00
-7.698805e+00
-8.526734e+00
-9.393103e+00
-1.029954e+01
-1.124589e+01
-1.223176e+01
-1.325766e+01
-1.432332e+01
-1.543034e+01
-1.657730e+01
-1.776193e+01
-1.898567e+01
-2.025286e+01
-2.157392e+01
-2.295558e+01
-2.441823e+01
-2.597887e+01
-2.778685e+01
-3.032453e+01
0.000000e+00
-1.801317e-01
-5.089288e-01
-8.982614e-01
-1.337195e+00
-1.803297e+00
-2.313345e+00
-2.856257e+00
-3.430915e+00
-4.039939e+00
-4.680753e+00
-5.359020e+00
-6.073006e+00
-6.825660e+00
-7.614922e+00
-8.442535e+00
-9.309075e+00
-1.021519e+01
-1.116190e+01
-1.214759e+01
-1.317363e+01
-1.423896e+01
-1.534607e+01
-1.649380e+01
-1.767822e+01
-1.890149e+01
-2.016714e+01
-2.148656e+01
-2.286970e+01
-2.432333e+01
-2.590331e+01
-2.769846e+01
-2.994951e+01
0.000000e+00
-1.591684e-01
-4.498701e-01
-8.417673e-01
-1.270608e+00
-1.734395e+00
-2.242479e+00
-2.783191e+00
-3.359184e+00
-3.967019e+00
-4.608925e+00
-5.287302e+00
-6.001493e+00
-6.754238e+00
-7.544106e+00
-8.371786e+00
-9.238790e+00
-1.014465e+01
-1.109126e+01
-1.207683e+01
-1.310273e+01
-1.416776e+01
-1.527336e+01
-1.642040e+01
-1.760577e+01
-1.883184e+01
-2.009937e+01
-2.142391e+01
-2.281086e+01
-2.428497e+01
-2.590783e+01
-2.759251e+01
-2.934088e+01
0.000000e+00
-2.044501e-01
-4.499115e-01
-8.382618e-01
-1.235853e+00
-1.688678e+00
-2.195276e+00
-2.723007e+00
-3.305393e+00
-3.907434e+00
-4.552347e+00
-5.230994e+00
-5.943607e+00
-6.698978e+00
-7.486690e+00
-8.317088e+00
-9.182700e+00
-1.008892e+01
-1.103522e+01
-1.201961e+01
-1.304644e+01
-1.411027e+01
-1.521503e+01
-1.636177e+01
-1.754944e+01
-1.878170e+01
-2.005535e+01
-2.138710e+01
-2.278283e+01
-2.427647e+01
-2.589207e+01
-2.744172e+01
-2.884081e+01
0.000000e+00
-2.205952e-01
-4.886256e-01
-8.335991e-01
-1.233670e+00
-1.669138e+00
-2.166108e+00
-2.688160e+00
-3.265501e+00
-3.867459e+00
-4.511341e+00
-5.191792e+00
-5.902947e+00
-6.660864e+00
-7.446746e+00
-8.279166e+00
-9.143953e+00
-1.005020e+01
-1.099653e+01
-1.198001e+01
-1.300739e+01
-1.407106e+01
-1.517718e+01
-1.632474e+01
-1.751600e+01
-1.875155e+01
-2.003336e+01
-2.136871e+01
-2.276704e+01
-2.425636e+01
-2.579189e+01
-2.724072e+01
-2.850721e+01
0.000000e+00
-2.275291e-01
-5.050407e-01
-8.395626e-01
-1.227215e+00
-1.662305e+00
-2.144504e+00
-2.668983e+00
-3.235896e+00
-3.840634e+00
-4.482631e+00
-5.162254e+00
-5.877536e+00
-6.631504e+00
-7.422203e+00
-8.251406e+00
-9.118867e+00
-1.002501e+01
-1.097130e+01
-1.195710e+01
-1.298378e+01
-1.405067e+01
-1.515862e+01
-1.630892e+01
-1.750233e+01
-1.873976e+01
-2.002409e+01
-2.135886e+01
-2.274642e+01
-2.419542e+01
-2.563674e+01
-2.700498e+01
-2.820972e+01
0.000000e+00
-2.312220e-01
-5.112497e-01
-8.427713e-01
-1.225188e+00
-1.656233e+00
-2.133764e+00
-2.655479e+00
-3.219319e+00
-3.822992e+00
-4.465101e+00
-5.144664e+00
-5.861447e+00
-6.615514e+00
-7.407135e+00
-8.236774e+00
-9.104908e+00
-1.001229e+01
-1.095949e+01
-1.194709e+01
-1.297546e+01
-1.404486e+01
-1.515568e+01
-1.630817e+01
-1.750293e+01
-1.874058e+01
-2.002101e+01
-2.135231e+01
-2.270774e+01
-2.410551e+01
-2.548175e+01
-2.678223e+01
-2.792412e+01
0.000000e+00
-2.326211e-01
-5.135715e-01
-8.442157e-01
-1.224592e+00
-1.653483e+00
-2.129072e+00
-2.649294e+00
-3.212084e+00
-3.815500e+00
-4.457945e+00
-5.138331e+00
-5.856027e+00
-6.610928e+00
-7.403236e+00
-8.233528e+00
-9.102570e+00
-1.001107e+01
-1.095968e+01
-1.194896e+01
-1.297934e+01
-1.405107e+01
-1.516413e+01
-1.631853e+01
-1.751237e+01
-1.874980e+01
-2.002255e+01
-2.133469e+01
-2.265547e+01
-2.400003e+01
-2.533031e+01
-2.657351e+01
-2.765968e+01
0.000000e+00
-2.329107e-01
-5.141663e-01
-8.448396e-01
-1.225070e+00
-1.653890e+00
-2.129567e+00
-2.650056e+00
-3.213325e+00
-3.817515e+00
-4.461030e+00
-5.142597e+00
-5.861427e+00
-6.617285e+00
-7.410346e+00
-8.241264e+00
-9.111226e+00
-1.002094e+01
-1.097074e+01
-1.196139e+01
-1.299348e+01
-1.406656e+01
-1.518094e+01
-1.633597e+01
-1.752896e+01
-1.876091e+01
-2.001938e+01
-2.130238e+01
-2.259900e+01
-2.389262e+01
-2.516346e+01
-2.633145e+01
-2.732330e+01
0.000000e+00
-2.324574e-01
-5.136277e-01
-8.449678e-01
-1.226641e+00
-1.657396e+00
-2.135165e+00
-2.657661e+00
-3.222783e+00
-3.828744e+00
-4.473992e+00
-5.157105e+00
-5.877164e+00
-6.634138e+00
-7.428133e+00
-8.259482e+00
-9.130579e+00
-1.004159e+01
-1.099237e+01
-1.198315e+01
-1.301675e+01
-1.408981e+01
-1.520250e+01
-1.635936e+01
-1.754517e+01
-1.876516e+01
-2.000646e+01
-2.126656e+01
-2.253392e+01
-2.379058e+01
-2.499571e+01
-2.609681e+01
-2.705576e+01
0.000000e+00
-2.309829e-01
-5.114263e-01
-8.442637e-01
-1.229329e+00
-1.664274e+00
-2.146294e+00
-2.672506e+00
-3.240771e+00
-3.849265e+00
-4.496683e+00
-5.181340e+00
-5.902348e+00
-6.660661e+00
-7.455648e+00
-8.288109e+00
-9.160658e+00
-1.007294e+01
-1.102475e+01
-1.201451e+01
-1.304740e+01
-1.411841e+01
-1.522890e+01
-1.637932e+01
-1.755649e+01
-1.876112e+01
-1.999118e+01
-2.122905e+01
-2.247081e+01
-2.368650e+01
-2.484600e+01
-2.591511e+01
-2.686354e+01
0.000000e+00
-2.273347e-01
-5.054997e-01
-8.418307e-01
-1.233418e+00
-1.675179e+00
-2.164120e+00
-2.695359e+00
-3.268304e+00
-3.879805e+00
-4.529222e+00
-5.215142e+00
-5.936296e+00
-6.695673e+00
-7.491798e+00
-8.326697e+00
-9.200976e+00
-1.011431e+01
-1.106610e+01
-1.205487e+01
-1.308312e+01
-1.415021e+01
-1.525497e+01
-1.639521e+01
-1.756314e+01
-1.875826e+01
-1.997640e+01
-2.120138e+01
-2.241625e+01
-2.360269e+01
-2.473275e+01
-2.578589e+01
-2.673830e+01
0.000000e+00
-2.203060e-01
-4.894679e-01
-8.370488e-01
-1.241883e+00
-1.688931e+00
-2.192946e+00
-2.725637e+00
-3.307988e+00
-3.919922e+00
-4.571937e+00
-5.258490e+00
-5.978927e+00
-6.741096e+00
-7.537538e+00
-8.376102e+00
-9.251354e+00
-1.016374e+01
-1.111399e+01
-1.209942e+01
-1.312261e+01
-1.418405e+01
-1.528077e+01
-1.641149e+01
-1.757221e+01
-1.876366e+01
-1.997608e+01
-2.118633e+01
-2.238133e+01
-2.354251e+01
-2.465396e+01
-2.570012e+01
-2.666726e+01
0.000000e+00
-2.031757e-01
-4.506583e-01
-8.425608e-01
-1.248987e+00
-1.714821e+00
-2.232451e+00
-2.768614e+00
-3.358693e+00
-3.970064e+00
-4.622893e+00
-5.308859e+00
-6.031756e+00
-6.795861e+00
-7.595749e+00
-8.435769e+00
-9.311105e+00
-1.022170e+01
-1.116846e+01
-1.215000e+01
-1.316798e+01
-1.422217e+01
-1.531011e+01
-1.643354e+01
-1.759562e+01
-1.878714e+01
-1.999236e+01
-2.118754e+01
-2.236358e+01
-2.350639e+01
-2.460433e+01
-2.564911e+01
-2.663652e+01
0.000000e+00
-1.563450e-01
-4.485687e-01
-8.455748e-01
-1.286468e+00
-1.763972e+00
-2.284204e+00
-2.833549e+00
-3.417898e+00
-4.033380e+00
-4.682197e+00
-5.368992e+00
-6.093680e+00
-6.858834e+00
-7.661780e+00
-8.501594e+00
-9.376703e+00
-1.028545e+01
-1.123002e+01
-1.220887e+01
-1.322246e+01
-1.427013e+01
-1.535092e+01
-1.647536e+01
-1.764014e+01
-1.882885e+01
-2.001982e+01
-2.120155e+01
-2.236216e+01
-2.349074e+01
-2.457872e+01
-2.562354e+01
-2.663132e+01
0.000000e+00
-1.767777e-01
-5.066311e-01
-9.023711e-01
-1.353890e+00
-1.834246e+00
-2.356120e+00
-2.908472e+00
-3.491102e+00
-4.107258e+00
-4.754556e+00
-5.441348e+00
-6.166229e+00
-6.931893e+00
-7.735199e+00
-8.575054e+00
-9.449156e+00
-1.035638e+01
-1.129978e+01
-1.227724e+01
-1.328908e+01
-1.433357e+01
-1.541490e+01
-1.654059e+01
-1.770195e+01
-1.887820e+01
-2.005594e+01
-2.122459e+01
-2.237275e+01
-2.349021e+01
-2.457041e+01
-2.561434e+01
-2.663600e+01
0.000000e+00
-2.766171e-01
-5.881863e-01
-9.909647e-01
-1.435019e+00
-1.918122e+00
-2.440254e+00
-2.990701e+00
-3.575044e+00
-4.190040e+00
-4.838705e+00
-5.525159e+00
-6.250007e+00
-7.015251e+00
-7.817830e+00
-8.657239e+00
-9.530426e+00
-1.043768e+01
-1.138016e+01
-1.235712e+01
-1.336852e+01
-1.441321e+01