TITLE = "Solution"
VARIABLES = x, y, u, v, psiu, psiv, t, stress
ZONE T="structure" N=561 E=512 F=FEBLOCK ET=QUADRILATERAL VARLOCATION=([7,8]=cellcentered)
0.000000e+00
6.250000e+00
1.250000e+01
1.875000e+01
2.500000e+01
3.125000e+01
3.750000e+01
4.375000e+01
5.000000e+01
5.625000e+01
6.250000e+01
6.875000e+01
7.500000e+01
8.125000e+01
8.750000e+01
9.375000e+01
1.000000e+02
1.062500e+02
1.125000e+02
1.187500e+02
1.250000e+02
1.312500e+02
1.375000e+02
1.437500e+02
1.500000e+02
1.562500e+02
1.625000e+02
1.687500e+02
1.750000e+02
1.812500e+02
1.875000e+02
1.937500e+02
2.000000e+02
0.000000e+00
6.250000e+00
1.250000e+01
1.875000e+01
2.500000e+01
3.125000e+01
3.750000e+01
4.375000e+01
5.000000e+01
5.625000e+01
6.250000e+01
6.875000e+01
7.500000e+01
8.125000e+01
8.750000e+01
9.375000e+01
1.000000e+02
1.062500e+02
1.125000e+02
1.187500e+02
1.250000e+02
1.312500e+02
1.375000e+02
1.437500e+02
1.500000e+02
1.562500e+02
1.625000e+02
1.687500e+02
1.750000e+02
1.812500e+02
1.875000e+02
1.937500e+02
2.000000e+02
0.000000e+00
6.250000e+00
1.250000e+01
1.875000e+01
2.500000e+01
3.125000e+01
3.750000e+01
4.375000e+01
5.000000e+01
5.625000e+01
6.250000e+01
6.875000e+01
7.500000e+01
8.125000e+01
8.750000e+01
9.375000e+01
1.000000e+02
1.062500e+02
1.125000e+02
1.187500e+02
1.250000e+02
1.312500e+02
1.375000e+02
1.437500e+02
1.500000e+02
1.562500e+02
1.625000e+02
1.687500e+02
1.750000e+02
1.812500e+02
1.875000e+02
1.937500e+02
2.000000e+02
0.000000e+00
6.250000e+00
1.250000e+01
1.875000e+01
2.500000e+01
3.125000e+01
3.750000e+01
4.375000e+01
5.000000e+01
5.625000e+01
6.250000e+01
6.875000e+01
7.500000e+01
8.125000e+01
8.750000e+01
9.375000e+01
1.000000e+02
1.062500e+02
1.125000e+02
1.187500e+02
1.250000e+02
1.312500e+02
1.375000e+02
1.437500e+02
1.500000e+02
1.562500e+02
1.625000e+02
1.687500e+02
1.750000e+02
1.812500e+02
1.875000e+02
1.937500e+02
2.000000e+02
0.000000e+00
6.250000e+00
1.250000e+01
1.875000e+01
2.500000e+01
3.125000e+01
3.750000e+01
4.375000e+01
5.000000e+01
5.625000e+01
6.250000e+01
6.875000e+01
7.500000e+01
8.125000e+01
8.750000e+01
9.375000e+01
1.000000e+02
1.062500e+02
1.125000e+02
1.187500e+02
1.250000e+02
1.312500e+02
1.375000e+02
1.437500e+02
1.500000e+02
1.562500e+02
1.625000e+02
1.687500e+02
1.750000e+02
1.812500e+02
1.875000e+02
1.937500e+02
2.000000e+02
0.000000e+00
6.250000e+00
1.250000e+01
1.875000e+01
2.500000e+01
3.125000e+01
3.750000e+01
4.375000e+01
5.000000e+01
5.625000e+01
6.250000e+01
6.875000e+01
7.500000e+01
8.125000e+01
8.750000e+01
9.375000e+01
1.000000e+02
1.062500e+02
1.125000e+02
1.187500e+02
1.250000e+02
1.312500e+02
1.375000e+02
1.437500e+02
1.500000e+02
1.562500e+02
1.625000e+02
1.687500e+02
1.750000e+02
1.812500e+02
1.875000e+02
1.937500e+02
2.000000e+02
0.000000e+00
6.250000e+00
1.250000e+01
1.875000e+01
2.500000e+01
3.125000e+01
3.750000e+01
4.375000e+01
5.000000e+01
5.625000e+01
6.250000e+01
6.875000e+01
7.500000e+01
8.125000e+01
8.750000e+01
9.375000e+01
1.000000e+02
1.062500e+02
1.125000e+02
1.187500e+02
1.250000e+02
1.312500e+02
1.375000e+02
1.437500e+02
1.500000e+02
1.562500e+02
1.625000e+02
1.687500e+02
1.750000e+02
1.812500e+02
1.875000e+02
1.937500e+02
2.000000e+02
0.000000e+00
6.250000e+00
1.250000e+01
1.875000e+01
2.500000e+01
3.125000e+01
3.750000e+01
4.375000e+01
5.000000e+01
5.625000e+01
6.250000e+01
6.875000e+01
7.500000e+01
8.125000e+01
8.750000e+01
9.375000e+01
1.000000e+02
1.062500e+02
1.125000e+02
1.187500e+02
1.250000e+02
1.312500e+02
1.375000e+02
1.437500e+02
1.500000e+02
1.562500e+02
1.625000e+02
1.687500e+02
1.750000e+02
1.812500e+02
1.875000e+02
1.937500e+02
2.000000e+02
0.000000e+00
6.250000e+00
1.250000e+01
1.875000e+01
2.500000e+01
3.125000e+01
3.750000e+01
4.375000e+01
5.000000e+01
5.625000e+01
6.250000e+01
6.875000e+01
7.500000e+01
8.125000e+01
8.750000e+01
9.375000e+01
1.000000e+02
1.062500e+02
1.125000e+02
1.187500e+02
1.250000e+02
1.312500e+02
1.375000e+02
1.437500e+02
1.500000e+02
1.562500e+02
1.625000e+02
1.687500e+02
1.750000e+02
1.812500e+02
1.875000e+02
1.937500e+02
2.000000e+02
0.000000e+00
6.250000e+00
1.250000e+01
1.875000e+01
2.500000e+01
3.125000e+01
3.750000e+01
4.375000e+01
5.000000e+01
5.625000e+01
6.250000e+01
6.875000e+01
7.500000e+01
8.125000e+01
8.750000e+01
9.375000e+01
1.000000e+02
1.062500e+02
1.125000e+02
1.187500e+02
1.250000e+02
1.312500e+02
1.375000e+02
1.437500e+02
1.500000e+02
1.562500e+02
1.625000e+02
1.687500e+02
1.750000e+02
1.812500e+02
1.875000e+02
1.937500e+02
2.000000e+02
0.000000e+00
6.250000e+00
1.250000e+01
1.875000e+01
2.500000e+01
3.125000e+01
3.750000e+01
4.375000e+01
5.000000e+01
5.625000e+01
6.250000e+01
6.875000e+01
7.500000e+01
8.125000e+01
8.750000e+01
9.375000e+01
1.000000e+02
1.062500e+02
1.125000e+02
1.187500e+02
1.250000e+02
1.312500e+02
1.375000e+02
1.437500e+02
1.500000e+02
1.562500e+02
1.625000e+02
1.687500e+02
1.750000e+02
1.812500e+02
1.875000e+02
1.937500e+02
2.000000e+02
0.000000e+00
6.250000e+00
1.250000e+01
1.875000e+01
2.500000e+01
3.125000e+01
3.750000e+01
4.375000e+01
5.000000e+01
5.625000e+01
6.250000e+01
6.875000e+01
7.500000e+01
8.125000e+01
8.750000e+01
9.375000e+01
1.000000e+02
1.062500e+02
1.125000e+02
1.187500e+02
1.250000e+02
1.312500e+02
1.375000e+02
1.437500e+02
1.500000e+02
1.562500e+02
1.625000e+02
1.687500e+02
1.750000e+02
1.812500e+02
1.875000e+02
1.937500e+02
2.000000e+02
0.000000e+00
6.250000e+00
1.250000e+01
1.875000e+01
2.500000e+01
3.125000e+01
3.750000e+01
4.375000e+01
5.000000e+01
5.625000e+01
6.250000e+01
6.875000e+01
7.500000e+01
8.125000e+01
8.750000e+01
9.375000e+01
1.000000e+02
1.062500e+02
1.125000e+02
1.187500e+02
1.250000e+02
1.312500e+02
1.375000e+02
1.437500e+02
1.500000e+02
1.562500e+02
1.625000e+02
1.687500e+02
1.750000e+02
1.812500e+02
1.875000e+02
1.937500e+02
2.000000e+02
0.000000e+00
6.250000e+00
1.250000e+01
1.875000e+01
2.500000e+01
3.125000e+01
3.750000e+01
4.375000e+01
5.000000e+01
5.625000e+01
6.250000e+01
6.875000e+01
7.500000e+01
8.125000e+01
8.750000e+01
9.375000e+01
1.000000e+02
1.062500e+02
1.125000e+02
1.187500e+02
1.250000e+02
1.312500e+02
1.375000e+02
1.437500e+02
1.500000e+02
1.562500e+02
1.625000e+02
1.687500e+02
1.750000e+02
1.812500e+02
1.875000e+02
1.937500e+02
2.000000e+02
0.000000e+00
6.250000e+00
1.250000e+01
1.875000e+01
2.500000e+01
3.125000e+01
3.750000e+01
4.375000e+01
5.000000e+01
5.625000e+01
6.250000e+01
6.875000e+01
7.500000e+01
8.125000e+01
8.750000e+01
9.375000e+01
1.000000e+02
1.062500e+02
1.125000e+02
1.187500e+02
1.250000e+02
1.312500e+02
1.375000e+02
1.437500e+02
1.500000e+02
1.562500e+02
1.625000e+02
1.687500e+02
1.750000e+02
1.812500e+02
1.875000e+02
1.937500e+02
2.000000e+02
0.000000e+00
6.250000e+00
1.250000e+01
1.875000e+01
2.500000e+01
3.125000e+01
3.750000e+01
4.375000e+01
5.000000e+01
5.625000e+01
6.250000e+01
6.875000e+01
7.500000e+01
8.125000e+01
8.750000e+01
9.375000e+01
1.000000e+02
1.062500e+02
1.125000e+02
1.187500e+02
1.250000e+02
1.312500e+02
1.375000e+02
1.437500e+02
1.500000e+02
1.562500e+02
1.625000e+02
1.687500e+02
1.750000e+02
1.812500e+02
1.875000e+02
1.937500e+02
2.000000e+02
0.000000e+00
6.250000e+00
1.250000e+01
1.875000e+01
2.500000e+01
3.125000e+01
3.750000e+01
4.375000e+01
5.000000e+01
5.625000e+01
6.250000e+01
6.875000e+01
7.500000e+01
8.125000e+01
8.750000e+01
9.375000e+01
1.000000e+02
1.062500e+02
1.125000e+02
1.187500e+02
1.250000e+02
1.312500e+02
1.375000e+02
1.437500e+02
1.500000e+02
1.562500e+02
1.625000e+02
1.687500e+02
1.750000e+02
1.812500e+02
1.875000e+02
1.937500e+02
2.000000e+02
0.000000e+00
0.000000e+00
0.000000e+00
0.000000e+00
0.000000e+00
0.000000e+00
0.000000e+00
0.000000e+00
0.000000e+00
0.000000e+00
0.000000e+00
0.000000e+00
0.000000e+00
0.000000e+00
0.000000e+00
0.000000e+00
0.000000e+00
0.000000e+00
0.000000e+00
0.000000e+00
0.000000e+00
0.000000e+00
0.000000e+00
0.000000e+00
0.000000e+00
0.000000e+00
0.000000e+00
0.000000e+00
0.000000e+00
0.000000e+00
0.000000e+00
0.000000e+00
0.000000e+00
6.250000e+00
6.250000e+00
6.250000e+00
6.250000e+00
6.250000e+00
6.250000e+00
6.250000e+00
6.250000e+00
6.250000e+00
6.250000e+00
6.250000e+00
6.250000e+00
6.250000e+00
6.250000e+00
6.250000e+00
6.250000e+00
6.250000e+00
6.250000e+00
6.250000e+00
6.250000e+00
6.250000e+00
6.250000e+00
6.250000e+00
6.250000e+00
6.250000e+00
6.250000e+00
6.250000e+00
6.250000e+00
6.250000e+00
6.250000e+00
6.250000e+00
6.250000e+00
6.250000e+00
1.250000e+01
1.250000e+01
1.250000e+01
1.250000e+01
1.250000e+01
1.250000e+01
1.250000e+01
1.250000e+01
1.250000e+01
1.250000e+01
1.250000e+01
1.250000e+01
1.250000e+01
1.250000e+01
1.250000e+01
1.250000e+01
1.250000e+01
1.250000e+01
1.250000e+01
1.250000e+01
1.250000e+01
1.250000e+01
1.250000e+01
1.250000e+01
1.250000e+01
1.250000e+01
1.250000e+01
1.250000e+01
1.250000e+01
1.250000e+01
1.250000e+01
1.250000e+01
1.250000e+01
1.875000e+01
1.875000e+01
1.875000e+01
1.875000e+01
1.875000e+01
1.875000e+01
1.875000e+01
1.875000e+01
1.875000e+01
1.875000e+01
1.875000e+01
1.875000e+01
1.875000e+01
1.875000e+01
1.875000e+01
1.875000e+01
1.875000e+01
1.875000e+01
1.875000e+01
1.875000e+01
1.875000e+01
1.875000e+01
1.875000e+01
1.875000e+01
1.875000e+01
1.875000e+01
1.875000e+01
1.875000e+01
1.875000e+01
1.875000e+01
1.875000e+01
1.875000e+01
1.875000e+01
2.500000e+01
2.500000e+01
2.500000e+01
2.500000e+01
2.500000e+01
2.500000e+01
2.500000e+01
2.500000e+01
2.500000e+01
2.500000e+01
2.500000e+01
2.500000e+01
2.500000e+01
2.500000e+01
2.500000e+01
2.500000e+01
2.500000e+01
2.500000e+01
2.500000e+01
2.500000e+01
2.500000e+01
2.500000e+01
2.500000e+01
2.500000e+01
2.500000e+01
2.500000e+01
2.500000e+01
2.500000e+01
2.500000e+01
2.500000e+01
2.500000e+01
2.500000e+01
2.500000e+01
3.125000e+01
3.125000e+01
3.125000e+01
3.125000e+01
3.125000e+01
3.125000e+01
3.125000e+01
3.125000e+01
3.125000e+01
3.125000e+01
3.125000e+01
3.125000e+01
3.125000e+01
3.125000e+01
3.125000e+01
3.125000e+01
3.125000e+01
3.125000e+01
3.125000e+01
3.125000e+01
3.125000e+01
3.125000e+01
3.125000e+01
3.125000e+01
3.125000e+01
3.125000e+01
3.125000e+01
3.125000e+01
3.125000e+01
3.125000e+01
3.125000e+01
3.125000e+01
3.125000e+01
3.750000e+01
3.750000e+01
3.750000e+01
3.750000e+01
3.750000e+01
3.750000e+01
3.750000e+01
3.750000e+01
3.750000e+01
3.750000e+01
3.750000e+01
3.750000e+01
3.750000e+01
3.750000e+01
3.750000e+01
3.750000e+01
3.750000e+01
3.750000e+01
3.750000e+01
3.750000e+01
3.750000e+01
3.750000e+01
3.750000e+01
3.750000e+01
3.750000e+01
3.750000e+01
3.750000e+01
3.750000e+01
3.750000e+01
3.750000e+01
3.750000e+01
3.750000e+01
3.750000e+01
4.375000e+01
4.375000e+01
4.375000e+01
4.375000e+01
4.375000e+01
4.375000e+01
4.375000e+01
4.375000e+01
4.375000e+01
4.375000e+01
4.375000e+01
4.375000e+01
4.375000e+01
4.375000e+01
4.375000e+01
4.375000e+01
4.375000e+01
4.375000e+01
4.375000e+01
4.375000e+01
4.375000e+01
4.375000e+01
4.375000e+01
4.375000e+01
4.375000e+01
4.375000e+01
4.375000e+01
4.375000e+01
4.375000e+01
4.375000e+01
4.375000e+01
4.375000e+01
4.375000e+01
5.000000e+01
5.000000e+01
5.000000e+01
5.000000e+01
5.000000e+01
5.000000e+01
5.000000e+01
5.000000e+01
5.000000e+01
5.000000e+01
5.000000e+01
5.000000e+01
5.000000e+01
5.000000e+01
5.000000e+01
5.000000e+01
5.000000e+01
5.000000e+01
5.000000e+01
5.000000e+01
5.000000e+01
5.000000e+01
5.000000e+01
5.000000e+01
5.000000e+01
5.000000e+01
5.000000e+01
5.000000e+01
5.000000e+01
5.000000e+01
5.000000e+01
5.000000e+01
5.000000e+01
5.625000e+01
5.625000e+01
5.625000e+01
5.625000e+01
5.625000e+01
5.625000e+01
5.625000e+01
5.625000e+01
5.625000e+01
5.625000e+01
5.625000e+01
5.625000e+01
5.625000e+01
5.625000e+01
5.625000e+01
5.625000e+01
5.625000e+01
5.625000e+01
5.625000e+01
5.625000e+01
5.625000e+01
5.625000e+01
5.625000e+01
5.625000e+01
5.625000e+01
5.625000e+01
5.625000e+01
5.625000e+01
5.625000e+01
5.625000e+01
5.625000e+01
5.625000e+01
5.625000e+01
6.250000e+01
6.250000e+01
6.250000e+01
6.250000e+01
6.250000e+01
6.250000e+01
6.250000e+01
6.250000e+01
6.250000e+01
6.250000e+01
6.250000e+01
6.250000e+01
6.250000e+01
6.250000e+01
6.250000e+01
6.250000e+01
6.250000e+01
6.250000e+01
6.250000e+01
6.250000e+01
6.250000e+01
6.250000e+01
6.250000e+01
6.250000e+01
6.250000e+01
6.250000e+01
6.250000e+01
6.250000e+01
6.250000e+01
6.250000e+01
6.250000e+01
6.250000e+01
6.250000e+01
6.875000e+01
6.875000e+01
6.875000e+01
6.875000e+01
6.875000e+01
6.875000e+01
6.875000e+01
6.875000e+01
6.875000e+01
6.875000e+01
6.875000e+01
6.875000e+01
6.875000e+01
6.875000e+01
6.875000e+01
6.875000e+01
6.875000e+01
6.875000e+01
6.875000e+01
6.875000e+01
6.875000e+01
6.875000e+01
6.875000e+01
6.875000e+01
6.875000e+01
6.875000e+01
6.875000e+01
6.875000e+01
6.875000e+01
6.875000e+01
6.875000e+01
6.875000e+01
6.875000e+01
7.500000e+01
7.500000e+01
7.500000e+01
7.500000e+01
7.500000e+01
7.500000e+01
7.500000e+01
7.500000e+01
7.500000e+01
7.500000e+01
7.500000e+01
7.500000e+01
7.500000e+01
7.500000e+01
7.500000e+01
7.500000e+01
7.500000e+01
7.500000e+01
7.500000e+01
7.500000e+01
7.500000e+01
7.500000e+01
7.500000e+01
7.500000e+01
7.500000e+01
7.500000e+01
7.500000e+01
7.500000e+01
7.500000e+01
7.500000e+01
7.500000e+01
7.500000e+01
7.500000e+01
8.125000e+01
8.125000e+01
8.125000e+01
8.125000e+01
8.125000e+01
8.125000e+01
8.125000e+01
8.125000e+01
8.125000e+01
8.125000e+01
8.125000e+01
8.125000e+01
8.125000e+01
8.125000e+01
8.125000e+01
8.125000e+01
8.125000e+01
8.125000e+01
8.125000e+01
8.125000e+01
8.125000e+01
8.125000e+01
8.125000e+01
8.125000e+01
8.125000e+01
8.125000e+01
8.125000e+01
8.125000e+01
8.125000e+01
8.125000e+01
8.125000e+01
8.125000e+01
8.125000e+01
8.750000e+01
8.750000e+01
8.750000e+01
8.750000e+01
8.750000e+01
8.750000e+01
8.750000e+01
8.750000e+01
8.750000e+01
8.750000e+01
8.750000e+01
8.750000e+01
8.750000e+01
8.750000e+01
8.750000e+01
8.750000e+01
8.750000e+01
8.750000e+01
8.750000e+01
8.750000e+01
8.750000e+01
8.750000e+01
8.750000e+01
8.750000e+01
8.750000e+01
8.750000e+01
8.750000e+01
8.750000e+01
8.750000e+01
8.750000e+01
8.750000e+01
8.750000e+01
8.750000e+01
9.375000e+01
9.375000e+01
9.375000e+01
9.375000e+01
9.375000e+01
9.375000e+01
9.375000e+01
9.375000e+01
9.375000e+01
9.375000e+01
9.375000e+01
9.375000e+01
9.375000e+01
9.375000e+01
9.375000e+01
9.375000e+01
9.375000e+01
9.375000e+01
9.375000e+01
9.375000e+01
9.375000e+01
9.375000e+01
9.375000e+01
9.375000e+01
9.375000e+01
9.375000e+01
9.375000e+01
9.375000e+01
9.375000e+01
9.375000e+01
9.375000e+01
9.375000e+01
9.375000e+01
1.000000e+02
1.000000e+02
1.000000e+02
1.000000e+02
1.000000e+02
1.000000e+02
1.000000e+02
1.000000e+02
1.000000e+02
1.000000e+02
1.000000e+02
1.000000e+02
1.000000e+02
1.000000e+02
1.000000e+02
1.000000e+02
1.000000e+02
1.000000e+02
1.000000e+02
1.000000e+02
1.000000e+02
1.000000e+02
1.000000e+02
1.000000e+02
1.000000e+02
1.000000e+02
1.000000e+02
1.000000e+02
1.000000e+02
1.000000e+02
1.000000e+02
1.000000e+02
1.000000e+02
0.000000e+00
-4.584053e-01
-7.688399e-01
-1.103390e+00
-1.407755e+00
-1.704232e+00
-2.013114e+00
-2.305684e+00
-2.607149e+00
-2.903904e+00
-3.202280e+00
-3.502137e+00
-3.800679e+00
-4.100971e+00
-4.400890e+00
-4.701104e+00
-5.001842e+00
-5.302405e+00
-5.603195e+00
-5.904289e+00
-6.205114e+00
-6.506290e+00
-6.806786e+00
-7.105725e+00
-7.407676e+00
-7.709603e+00
-8.019275e+00
-8.343675e+00
-8.668675e+00
-9.036894e+00
-9.510061e+00
-9.925803e+00
-1.013233e+01
0.000000e+00
-2.329362e-01
-4.741604e-01
-7.384225e-01
-1.005126e+00
-1.258918e+00
-1.527891e+00
-1.788156e+00
-2.050585e+00
-2.315202e+00
-2.575370e+00
-2.839803e+00
-3.100938e+00
-3.363372e+00
-3.625797e+00
-3.886982e+00
-4.149410e+00
-4.410644e+00
-4.672100e+00
-4.933719e+00
-5.194304e+00
-5.455738e+00
-5.716428e+00
-5.976854e+00
-6.238881e+00
-6.498210e+00
-6.759690e+00
-7.021885e+00
-7.276853e+00
-7.539420e+00
-7.783119e+00
-7.880010e+00
-7.985593e+00
0.000000e+00
-1.133597e-01
-2.594172e-01
-4.561122e-01
-6.707886e-01
-8.769702e-01
-1.103496e+00
-1.326258e+00
-1.550485e+00
-1.778779e+00
-2.001348e+00
-2.228161e+00
-2.451791e+00
-2.676205e+00
-2.900695e+00
-3.123992e+00
-3.348482e+00
-3.572081e+00
-3.796077e+00
-4.020402e+00
-4.243941e+00
-4.468358e+00
-4.692849e+00
-4.917242e+00
-5.140840e+00
-5.358444e+00
-5.567993e+00
-5.764572e+00
-5.941453e+00
-6.089114e+00
-6.167943e+00
-6.171509e+00
-6.264247e+00
0.000000e+00
-1.026582e-01
-1.914382e-01
-3.383606e-01
-4.640911e-01
-6.220693e-01
-7.970410e-01
-9.690207e-01
-1.154307e+00
-1.335411e+00
-1.520128e+00
-1.705119e+00
-1.890549e+00
-2.076805e+00
-2.263631e+00
-2.451066e+00
-2.639559e+00
-2.828835e+00
-3.018853e+00
-3.209830e+00
-3.400687e+00
-3.591514e+00
-3.781409e+00
-3.967243e+00
-4.146736e+00
-4.314062e+00
-4.464239e+00
-4.593535e+00
-4.692608e+00
-4.751306e+00
-4.762706e+00
-4.777325e+00
-4.858557e+00
0.000000e+00
-9.124857e-02
-1.812219e-01
-2.729711e-01
-3.828127e-01
-4.999743e-01
-6.306628e-01
-7.654975e-01
-9.076124e-01
-1.051355e+00
-1.196383e+00
-1.344019e+00
-1.490458e+00
-1.638968e+00
-1.787201e+00
-1.935897e+00
-2.085476e+00
-2.234647e+00
-2.384168e+00
-2.532949e+00
-2.680114e+00
-2.824904e+00
-2.965108e+00
-3.098673e+00
-3.222530e+00
-3.333241e+00
-3.426771e+00
-3.498231e+00
-3.543257e+00
-3.561673e+00
-3.559505e+00
-3.588692e+00
-3.662787e+00
0.000000e+00
-7.287489e-02
-1.433444e-01
-2.174629e-01
-2.980373e-01
-3.861004e-01
-4.803604e-01
-5.809879e-01
-6.847656e-01
-7.917612e-01
-9.000474e-01
-1.008957e+00
-1.118639e+00
-1.228074e+00
-1.337794e+00
-1.447288e+00
-1.556428e+00
-1.665126e+00
-1.772667e+00
-1.878569e+00
-1.981748e+00
-2.080716e+00
-2.173837e+00
-2.258922e+00
-2.333689e+00
-2.395813e+00
-2.443069e+00
-2.473272e+00
-2.486657e+00
-2.480491e+00
-2.475836e+00
-2.504774e+00
-2.573008e+00
0.000000e+00
-5.025797e-02
-1.000861e-01
-1.512069e-01
-2.057735e-01
-2.643051e-01
-3.270048e-01
-3.930925e-01
-4.619121e-01
-5.323976e-01
-6.038619e-01
-6.757088e-01
-7.475172e-01
-8.191322e-01
-8.902841e-01
-9.608453e-01
-1.030571e+00
-1.099144e+00
-1.166135e+00
-1.230839e+00
-1.292261e+00
-1.349055e+00
-1.399632e+00
-1.442278e+00
-1.475237e+00
-1.496756e+00
-1.505992e+00
-1.502336e+00
-1.481907e+00
-1.453396e+00
-1.443604e+00
-1.471658e+00
-1.539777e+00
0.000000e+00
-2.644362e-02
-5.278859e-02
-7.973674e-02
-1.080032e-01
-1.380488e-01
-1.698558e-01
-2.032073e-01
-2.376313e-01
-2.726732e-01
-3.078632e-01
-3.428535e-01
-3.773998e-01
-4.113003e-01
-4.443946e-01
-4.764751e-01
-5.073170e-01
-5.366496e-01
-5.641207e-01
-5.892169e-01
-6.111383e-01
-6.287532e-01
-6.407135e-01
-6.458053e-01
-6.427159e-01
-6.304576e-01
-6.070641e-01
-5.680218e-01
-5.208279e-01
-4.759373e-01
-4.587633e-01
-4.872966e-01
-5.569267e-01
0.000000e+00
-1.880005e-03
-3.813597e-03
-5.732057e-03
-7.563757e-03
-9.228496e-03
-1.063828e-02
-1.169206e-02
-1.228057e-02
-1.228463e-02
-1.159018e-02
-1.009517e-02
-7.707876e-03
-4.323049e-03
2.047795e-04
6.069090e-03
1.348768e-02
2.266782e-02
3.380793e-02
4.715130e-02
6.313915e-02
8.253538e-02
1.064110e-01
1.359616e-01
1.715782e-01
2.158734e-01
2.732104e-01
3.405679e-01
4.062002e-01
4.514969e-01
4.629046e-01
4.300888e-01
3.575445e-01
0.000000e+00
2.276891e-02
4.533714e-02
6.854674e-02
9.326466e-02
1.201105e-01
1.492484e-01
1.806416e-01
2.140179e-01
2.491072e-01
2.856295e-01
3.234052e-01
3.623712e-01
4.025603e-01
4.441297e-01
4.872776e-01
5.322209e-01
5.791332e-01
6.281353e-01
6.792966e-01
7.326415e-01
7.884932e-01
8.473985e-01
9.102237e-01
9.805750e-01
1.060393e+00
1.144918e+00
1.228474e+00
1.297108e+00
1.337070e+00
1.337536e+00
1.299427e+00
1.238998e+00
0.000000e+00
4.682568e-02
9.312653e-02
1.407886e-01
1.921258e-01
2.478569e-01
3.083465e-01
3.730274e-01
4.413272e-01
5.123022e-01
5.852805e-01
6.597114e-01
7.352735e-01
8.120404e-01
8.901347e-01
9.698669e-01
1.051397e+00
1.134890e+00
1.220635e+00
1.308876e+00
1.399938e+00
1.493814e+00
1.590362e+00
1.691395e+00
1.796130e+00
1.903122e+00
2.006120e+00
2.093015e+00
2.156126e+00
2.186463e+00
2.183259e+00
2.154010e+00
2.110137e+00
0.000000e+00
6.979942e-02
1.371014e-01
2.081400e-01
2.859549e-01
3.717823e-01
4.646751e-01
5.648148e-01
6.693450e-01
7.779730e-01
8.889381e-01
1.001353e+00
1.115232e+00
1.229879e+00
1.346000e+00
1.463399e+00
1.582052e+00
1.701920e+00
1.823234e+00
1.947216e+00
2.075571e+00
2.209668e+00
2.347699e+00
2.484443e+00
2.616481e+00
2.740608e+00
2.850976e+00
2.939716e+00
2.999417e+00
3.030414e+00
3.034703e+00
3.017110e+00
2.989123e+00
0.000000e+00
8.865395e-02
1.757728e-01
2.648362e-01
3.722278e-01
4.879505e-01
6.178955e-01
7.540164e-01
8.979304e-01
1.045271e+00
1.194555e+00
1.346965e+00
1.499552e+00
1.655211e+00
1.812350e+00
1.971866e+00
2.133438e+00
2.296288e+00
2.460814e+00
2.626122e+00
2.793609e+00
2.961311e+00
3.126936e+00
3.288083e+00
3.439506e+00
3.577145e+00
3.695876e+00
3.789907e+00
3.857700e+00
3.897664e+00
3.911379e+00
3.904992e+00
3.890221e+00
0.000000e+00
1.006594e-01
1.874083e-01
3.311783e-01
4.546278e-01
6.107464e-01
7.856312e-01
9.586825e-01
1.147202e+00
1.331852e+00
1.521271e+00
1.710362e+00
1.901077e+00
2.094997e+00
2.292128e+00
2.492344e+00
2.695290e+00
2.901291e+00
3.109879e+00
3.319498e+00
3.526826e+00
3.728252e+00
3.921222e+00
4.105826e+00
4.280218e+00
4.436895e+00
4.570750e+00
4.677085e+00
4.754151e+00
4.802625e+00
4.825285e+00
4.828272e+00
4.823396e+00
0.000000e+00
1.130654e-01
2.580231e-01
4.522692e-01
6.641966e-01
8.677476e-01
1.092419e+00
1.314920e+00
1.539834e+00
1.770438e+00
1.995600e+00
2.224667e+00
2.450886e+00
2.679191e+00
2.909380e+00
3.139862e+00
3.371584e+00
3.603335e+00
3.836419e+00
4.070100e+00
4.302040e+00
4.529049e+00
4.750870e+00
4.968125e+00
5.172996e+00
5.353844e+00
5.502691e+00
5.618026e+00
5.701129e+00
5.754652e+00
5.782821e+00
5.792061e+00
5.793163e+00
0.000000e+00
2.333819e-01
4.748980e-01
7.390697e-01
1.005476e+00
1.259080e+00
1.527502e+00
1.787395e+00
2.049381e+00
2.313391e+00
2.573082e+00
2.836677e+00
3.096903e+00
3.358093e+00
3.618869e+00
3.878238e+00
4.138100e+00
4.396130e+00
4.653295e+00
4.909594e+00
5.163769e+00
5.416875e+00
5.670608e+00
5.922225e+00
6.154635e+00
6.352134e+00
6.509623e+00
6.627396e+00
6.708640e+00
6.758621e+00
6.784250e+00
6.793570e+00
6.795851e+00
0.000000e+00
4.585171e-01
7.704325e-01
1.107184e+00
1.414216e+00
1.713241e+00
2.024203e+00
2.317291e+00
2.618816e+00
2.913730e+00
3.209996e+00
3.507631e+00
3.803240e+00
4.099157e+00
4.392424e+00
4.683995e+00
4.975108e+00
5.264819e+00
5.552342e+00
5.839689e+00
6.125352e+00
6.413251e+00
6.703879e+00
6.988162e+00
7.242753e+00
7.451525e+00
7.610535e+00
7.720873e+00
7.786999e+00
7.816916e+00
7.822342e+00
7.817766e+00
7.815193e+00
0.000000e+00
-2.733169e-01
-5.699981e-01
-9.462039e-01
-1.358947e+00
-1.811308e+00
-2.304878e+00
-2.830865e+00
-3.394780e+00
-3.993003e+00
-4.627182e+00
-5.298779e+00
-6.006555e+00
-6.752675e+00
-7.536147e+00
-8.357847e+00
-9.218026e+00
-1.011638e+01
-1.105371e+01
-1.202970e+01
-1.304491e+01
-1.409985e+01
-1.519423e+01
-1.632854e+01
-1.750272e+01
-1.871818e+01
-1.998019e+01
-2.129466e+01
-2.267199e+01
-2.413118e+01
-2.568834e+01
-2.750162e+01
-3.005260e+01
0.000000e+00
-1.749823e-01
-4.898134e-01
-8.587348e-01
-1.276938e+00
-1.726806e+00
-2.220565e+00
-2.747747e+00
-3.310352e+00
-3.909566e+00
-4.543035e+00
-5.214852e+00
-5.922691e+00
-6.668586e+00
-7.452298e+00
-8.273842e+00
-9.134087e+00
-1.003249e+01
-1.096972e+01
-1.194583e+01
-1.296091e+01
-1.401583e+01
-1.511042e+01
-1.624445e+01
-1.741869e+01
-1.863379e+01
-1.989396e+01
-2.120817e+01
-2.258406e+01
-2.403631e+01
-2.561408e+01
-2.741223e+01
-2.967516e+01
0.000000e+00
-1.508188e-01
-4.319153e-01
-8.007905e-01
-1.210225e+00
-1.658031e+00
-2.150268e+00
-2.676085e+00
-3.238711e+00
-3.837497e+00
-4.471269e+00
-5.142924e+00
-5.851168e+00
-6.596967e+00
-7.380969e+00
-8.202543e+00
-9.062860e+00
-9.961423e+00
-1.089858e+01
-1.187489e+01
-1.288985e+01
-1.394457e+01
-1.503909e+01
-1.617300e+01
-1.734840e+01
-1.856510e+01
-1.982779e+01
-2.114576e+01
-2.252652e+01
-2.399961e+01
-2.561632e+01
-2.730729e+01
-2.906525e+01
0.000000e+00
-1.870771e-01
-4.285748e-01
-7.897657e-01
-1.172509e+00
-1.612503e+00
-2.101179e+00
-2.619906e+00
-3.183422e+00
-3.779804e+00
-4.413679e+00
-5.085412e+00
-5.793278e+00
-6.539517e+00
-7.323433e+00
-8.145042e+00
-9.005526e+00
-9.904021e+00
-1.084130e+01
-1.181782e+01
-1.283293e+01
-1.388786e+01
-1.498292e+01
-1.611815e+01
-1.729612e+01
-1.851737e+01
-1.978590e+01
-2.111021e+01
-2.250079e+01
-2.399043e+01
-2.560067e+01
-2.715502e+01
-2.856277e+01
0.000000e+00
-2.051125e-01
-4.601809e-01
-7.887275e-01
-1.168496e+00
-1.592806e+00
-2.072339e+00
-2.585623e+00
-3.144605e+00
-3.739865e+00
-4.371999e+00
-5.044172e+00
-5.751403e+00
-6.498135e+00
-7.282082e+00
-8.103786e+00
-8.964563e+00
-9.863093e+00
-1.080080e+01
-1.177774e+01
-1.279372e+01
-1.384993e+01
-1.494663e+01
-1.608476e+01
-1.726592e+01
-1.849183e+01
-1.976611e+01
-2.109494e+01
-2.248752e+01
-2.396761e+01
-2.550833e+01
-2.695201e+01
-2.821255e+01
0.000000e+00
-2.127785e-01
-4.753910e-01
-7.939456e-01
-1.164807e+00
-1.584792e+00
-2.052783e+00
-2.564168e+00
-3.117590e+00
-3.711229e+00
-4.343224e+00
-5.013984e+00
-5.722465e+00
-6.468913e+00
-7.253454e+00
-8.075910e+00
-8.936889e+00
-9.836419e+00
-1.077496e+01
-1.175307e+01
-1.277104e+01
-1.382957e+01
-1.492925e+01
-1.607079e+01
-1.725521e+01
-1.848395e+01
-1.976030e+01
-2.108835e+01
-2.246817e+01
-2.391081e+01
-2.535702e+01
-2.672115e+01
-2.791123e+01
0.000000e+00
-2.165977e-01
-4.814088e-01
-7.970863e-01
-1.163478e+00
-1.579079e+00
-2.042038e+00
-2.549998e+00
-3.100918e+00
-3.692939e+00
-4.324736e+00
-4.995401e+00
-5.704418e+00
-6.451554e+00
-7.236765e+00
-8.060179e+00
-8.922016e+00
-9.822625e+00
-1.076249e+01
-1.174224e+01
-1.276251e+01
-1.382388e+01
-1.492677e+01
-1.607152e+01
-1.725845e+01
-1.848780e+01
-1.976100e+01
-2.108212e+01
-2.243411e+01
-2.382570e+01
-2.519916e+01
-2.649265e+01
-2.762208e+01
0.000000e+00
-2.180375e-01
-4.836963e-01
-7.985322e-01
-1.162941e+00
-1.576192e+00
-2.036832e+00
-2.543006e+00
-3.092786e+00
-3.684404e+00
-4.316374e+00
-4.987624e+00
-5.697454e+00
-6.445530e+00
-7.231772e+00
-8.056270e+00
-8.919240e+00
-9.821032e+00
-1.076221e+01
-1.174356e+01
-1.276594e+01
-1.382994e+01
-1.493564e+01
-1.608278e+01
-1.727080e+01
-1.849856e+01
-1.976354e+01
-2.106717e+01
-2.238624e+01
-2.372515e+01
-2.504089e+01
-2.627049e+01
-2.734160e+01
0.000000e+00
-2.183178e-01
-4.842171e-01
-7.989632e-01
-1.163018e+00
-1.575868e+00
-2.036242e+00
-2.542430e+00
-3.092583e+00
-3.684919e+00
-4.317886e+00
-4.990273e+00
-5.701300e+00
-6.450585e+00
-7.238054e+00
-8.063801e+00
-8.927991e+00
-9.830913e+00
-1.077313e+01
-1.175558e+01
-1.277938e+01
-1.384531e+01
-1.495310e+01
-1.610117e+01
-1.728833e+01
-1.851036e+01
-1.976128e+01
-2.104016e+01
-2.233135e+01
-2.361912e+01
-2.487660e+01
-2.603667e+01
-2.703651e+01
0.000000e+00
-2.177866e-01
-4.834871e-01
-7.986636e-01
-1.163732e+00
-1.577995e+00
-2.040032e+00
-2.548019e+00
-3.100033e+00
-3.694245e+00
-4.329023e+00
-5.003102e+00
-5.715663e+00
-6.466365e+00
-7.255201e+00
-8.082297e+00
-8.947738e+00
-9.851655e+00
-1.079452e+01
-1.177729e+01
-1.280144e+01
-1.386815e+01
-1.497673e+01
-1.612424e+01
-1.730510e+01
-1.851674e+01
-1.975206e+01
-2.100787e+01
-2.227017e+01
-2.351713e+01
-2.471678e+01
-2.581834e+01
-2.677851e+01
0.000000e+00
-2.160994e-01
-4.809961e-01
-7.973563e-01
-1.165075e+00
-1.582706e+00
-2.048469e+00
-2.560050e+00
-3.115392e+00
-3.712525e+00
-4.349815e+00
-5.025978e+00
-5.740267e+00
-6.492468e+00
-7.282711e+00
-8.111193e+00
-8.977833e+00
-9.882563e+00
-1.082570e+01
-1.180806e+01
-1.283130e+01
-1.389735e+01
-1.500393e+01
-1.614614e+01
-1.731757e+01
-1.851730e+01
-1.974015e+01
-2.097498e+01
-2.220998e+01
-2.341929e+01
-2.457461e+01
-2.564173e+01
-2.658756e+01
0.000000e+00
-2.120140e-01
-4.747575e-01
-7.943424e-01
-1.167190e+00
-1.590295e+00
-2.062500e+00
-2.579402e+00
-3.139384e+00
-3.740505e+00
-4.380561e+00
-5.059134e+00
-5.775081e+00
-6.528690e+00
-7.320333e+00
-8.149994e+00
-9.017529e+00
-9.922549e+00
-1.086541e+01
-1.184655e+01
-1.286814e+01
-1.393052e+01
-1.503085e+01
-1.616477e+01
-1.732788e+01
-1.851821e+01
-1.972970e+01
-2.094858e+01
-2.215767e+01
-2.333727e+01
-2.446323e+01
-2.551249e+01
-2.646037e+01
0.000000e+00
-2.039801e-01
-4.592267e-01
-7.891483e-01
-1.171481e+00
-1.600239e+00
-2.085305e+00
-2.606416e+00
-3.173791e+00
-3.778913e+00
-4.421467e+00
-5.103276e+00
-5.820034e+00
-6.575669e+00
-7.368489e+00
-8.199127e+00
-9.067049e+00
-9.971205e+00
-1.091272e+01
-1.189147e+01
-1.290976e+01
-1.396589e+01
-1.505767e+01
-1.618398e+01
-1.734163e+01
-1.852639e+01
-1.972941e+01
-2.093344e+01
-2.212187e+01
-2.327776e+01
-2.438440e+01
-2.542593e+01
-2.638735e+01
0.000000e+00
-1.854057e-01
-4.271733e-01
-7.896123e-01
-1.175756e+00
-1.621084e+00
-2.117511e+00
-2.645462e+00
-3.219909e+00
-3.827601e+00
-4.473588e+00
-5.156476e+00
-5.875420e+00
-6.632515e+00
-7.426902e+00
-8.258231e+00
-9.125818e+00
-1.002902e+01
-1.096825e+01
-1.194399e+01
-1.295683e+01
-1.400538e+01
-1.508923e+01
-1.621045e+01
-1.736705e+01
-1.854898e+01
-1.974361e+01
-2.093324e+01
-2.210379e+01
-2.324155e+01
-2.433458e+01
-2.537416e+01
-2.635547e+01
0.000000e+00
-1.490722e-01
-4.298603e-01
-7.997624e-01
-1.212695e+00
-1.666587e+00
-2.167585e+00
-2.703955e+00
-3.278532e+00
-3.889618e+00
-4.535612e+00
-5.219147e+00
-5.939339e+00
-6.697230e+00
-7.492653e+00
-8.323912e+00
-9.191250e+00
-1.009392e+01
-1.103177e+01
-1.200491e+01
-1.301272e+01
-1.405492e+01
-1.513397e+01
-1.625405e+01
-1.740987e+01
-1.858705e+01
-1.977050e+01
-2.094652e+01
-2.210218e+01
-2.322582e+01
-2.430876e+01
-2.534814e+01
-2.634981e+01
0.000000e+00
-1.733619e-01
-4.874873e-01
-8.573009e-01
-1.278949e+00
-1.735181e+00
-2.237952e+00
-2.776217e+00
-3.351047e+00
-3.962937e+00
-4.608565e+00
-5.292464e+00
-6.012592e+00
-6.770935e+00
-7.566269e+00
-8.397226e+00
-9.264103e+00
-1.016613e+01
-1.110320e+01
-1.207470e+01
-1.307989e+01
-1.411973e+01
-1.519812e+01
-1.631717e+01
-1.746782e+01
-1.863523e+01
-1.980648e+01
-2.096964e+01
-2.211281e+01
-2.322535e+01
-2.430039e+01
-2.533875e+01
-2.635442e+01
0.000000e+00
-2.719263e-01
-5.679980e-01
-9.451033e-01
-1.361356e+00
-1.820030e+00
-2.322473e+00
-2.859422e+00
-3.435437e+00
-4.046125e+00
-4.692489e+00
-5.376127e+00
-6.096084e+00
-6.854330e+00
-7.649005e+00
-8.479726e+00
-9.346154e+00
-1.024759e+01
-1.118404e+01
-1.215485e+01
-1.315936e+01
-1.419964e+01