TITLE = "Solution"
VARIABLES = x, y, u, v, psiu, psiv, t, stress
ZONE T="structure" N=561 E=512 F=FEBLOCK ET=QUADRILATERAL VARLOCATION=([7,8]=cellcentered)
0.000000e+00
6.250000e+00
1.250000e+01
1.875000e+01
2.500000e+01
3.125000e+01
3.750000e+01
4.375000e+01
5.000000e+01
5.625000e+01
6.250000e+01
6.875000e+01
7.500000e+01
8.125000e+01
8.750000e+01
9.375000e+01
1.000000e+02
1.062500e+02
1.125000e+02
1.187500e+02
1.250000e+02
1.312500e+02
1.375000e+02
1.437500e+02
1.500000e+02
1.562500e+02
1.625000e+02
1.687500e+02
1.750000e+02
1.812500e+02
1.875000e+02
1.937500e+02
2.000000e+02
0.000000e+00
6.250000e+00
1.250000e+01
1.875000e+01
2.500000e+01
3.125000e+01
3.750000e+01
4.375000e+01
5.000000e+01
5.625000e+01
6.250000e+01
6.875000e+01
7.500000e+01
8.125000e+01
8.750000e+01
9.375000e+01
1.000000e+02
1.062500e+02
1.125000e+02
1.187500e+02
1.250000e+02
1.312500e+02
1.375000e+02
1.437500e+02
1.500000e+02
1.562500e+02
1.625000e+02
1.687500e+02
1.750000e+02
1.812500e+02
1.875000e+02
1.937500e+02
2.000000e+02
0.000000e+00
6.250000e+00
1.250000e+01
1.875000e+01
2.500000e+01
3.125000e+01
3.750000e+01
4.375000e+01
5.000000e+01
5.625000e+01
6.250000e+01
6.875000e+01
7.500000e+01
8.125000e+01
8.750000e+01
9.375000e+01
1.000000e+02
1.062500e+02
1.125000e+02
1.187500e+02
1.250000e+02
1.312500e+02
1.375000e+02
1.437500e+02
1.500000e+02
1.562500e+02
1.625000e+02
1.687500e+02
1.750000e+02
1.812500e+02
1.875000e+02
1.937500e+02
2.000000e+02
0.000000e+00
6.250000e+00
1.250000e+01
1.875000e+01
2.500000e+01
3.125000e+01
3.750000e+01
4.375000e+01
5.000000e+01
5.625000e+01
6.250000e+01
6.875000e+01
7.500000e+01
8.125000e+01
8.750000e+01
9.375000e+01
1.000000e+02
1.062500e+02
1.125000e+02
1.187500e+02
1.250000e+02
1.312500e+02
1.375000e+02
1.437500e+02
1.500000e+02
1.562500e+02
1.625000e+02
1.687500e+02
1.750000e+02
1.812500e+02
1.875000e+02
1.937500e+02
2.000000e+02
0.000000e+00
6.250000e+00
1.250000e+01
1.875000e+01
2.500000e+01
3.125000e+01
3.750000e+01
4.375000e+01
5.000000e+01
5.625000e+01
6.250000e+01
6.875000e+01
7.500000e+01
8.125000e+01
8.750000e+01
9.375000e+01
1.000000e+02
1.062500e+02
1.125000e+02
1.187500e+02
1.250000e+02
1.312500e+02
1.375000e+02
1.437500e+02
1.500000e+02
1.562500e+02
1.625000e+02
1.687500e+02
1.750000e+02
1.812500e+02
1.875000e+02
1.937500e+02
2.000000e+02
0.000000e+00
6.250000e+00
1.250000e+01
1.875000e+01
2.500000e+01
3.125000e+01
3.750000e+01
4.375000e+01
5.000000e+01
5.625000e+01
6.250000e+01
6.875000e+01
7.500000e+01
8.125000e+01
8.750000e+01
9.375000e+01
1.000000e+02
1.062500e+02
1.125000e+02
1.187500e+02
1.250000e+02
1.312500e+02
1.375000e+02
1.437500e+02
1.500000e+02
1.562500e+02
1.625000e+02
1.687500e+02
1.750000e+02
1.812500e+02
1.875000e+02
1.937500e+02
2.000000e+02
0.000000e+00
6.250000e+00
1.250000e+01
1.875000e+01
2.500000e+01
3.125000e+01
3.750000e+01
4.375000e+01
5.000000e+01
5.625000e+01
6.250000e+01
6.875000e+01
7.500000e+01
8.125000e+01
8.750000e+01
9.375000e+01
1.000000e+02
1.062500e+02
1.125000e+02
1.187500e+02
1.250000e+02
1.312500e+02
1.375000e+02
1.437500e+02
1.500000e+02
1.562500e+02
1.625000e+02
1.687500e+02
1.750000e+02
1.812500e+02
1.875000e+02
1.937500e+02
2.000000e+02
0.000000e+00
6.250000e+00
1.250000e+01
1.875000e+01
2.500000e+01
3.125000e+01
3.750000e+01
4.375000e+01
5.000000e+01
5.625000e+01
6.250000e+01
6.875000e+01
7.500000e+01
8.125000e+01
8.750000e+01
9.375000e+01
1.000000e+02
1.062500e+02
1.125000e+02
1.187500e+02
1.250000e+02
1.312500e+02
1.375000e+02
1.437500e+02
1.500000e+02
1.562500e+02
1.625000e+02
1.687500e+02
1.750000e+02
1.812500e+02
1.875000e+02
1.937500e+02
2.000000e+02
0.000000e+00
6.250000e+00
1.250000e+01
1.875000e+01
2.500000e+01
3.125000e+01
3.750000e+01
4.375000e+01
5.000000e+01
5.625000e+01
6.250000e+01
6.875000e+01
7.500000e+01
8.125000e+01
8.750000e+01
9.375000e+01
1.000000e+02
1.062500e+02
1.125000e+02
1.187500e+02
1.250000e+02
1.312500e+02
1.375000e+02
1.437500e+02
1.500000e+02
1.562500e+02
1.625000e+02
1.687500e+02
1.750000e+02
1.812500e+02
1.875000e+02
1.937500e+02
2.000000e+02
0.000000e+00
6.250000e+00
1.250000e+01
1.875000e+01
2.500000e+01
3.125000e+01
3.750000e+01
4.375000e+01
5.000000e+01
5.625000e+01
6.250000e+01
6.875000e+01
7.500000e+01
8.125000e+01
8.750000e+01
9.375000e+01
1.000000e+02
1.062500e+02
1.125000e+02
1.187500e+02
1.250000e+02
1.312500e+02
1.375000e+02
1.437500e+02
1.500000e+02
1.562500e+02
1.625000e+02
1.687500e+02
1.750000e+02
1.812500e+02
1.875000e+02
1.937500e+02
2.000000e+02
0.000000e+00
6.250000e+00
1.250000e+01
1.875000e+01
2.500000e+01
3.125000e+01
3.750000e+01
4.375000e+01
5.000000e+01
5.625000e+01
6.250000e+01
6.875000e+01
7.500000e+01
8.125000e+01
8.750000e+01
9.375000e+01
1.000000e+02
1.062500e+02
1.125000e+02
1.187500e+02
1.250000e+02
1.312500e+02
1.375000e+02
1.437500e+02
1.500000e+02
1.562500e+02
1.625000e+02
1.687500e+02
1.750000e+02
1.812500e+02
1.875000e+02
1.937500e+02
2.000000e+02
0.000000e+00
6.250000e+00
1.250000e+01
1.875000e+01
2.500000e+01
3.125000e+01
3.750000e+01
4.375000e+01
5.000000e+01
5.625000e+01
6.250000e+01
6.875000e+01
7.500000e+01
8.125000e+01
8.750000e+01
9.375000e+01
1.000000e+02
1.062500e+02
1.125000e+02
1.187500e+02
1.250000e+02
1.312500e+02
1.375000e+02
1.437500e+02
1.500000e+02
1.562500e+02
1.625000e+02
1.687500e+02
1.750000e+02
1.812500e+02
1.875000e+02
1.937500e+02
2.000000e+02
0.000000e+00
6.250000e+00
1.250000e+01
1.875000e+01
2.500000e+01
3.125000e+01
3.750000e+01
4.375000e+01
5.000000e+01
5.625000e+01
6.250000e+01
6.875000e+01
7.500000e+01
8.125000e+01
8.750000e+01
9.375000e+01
1.000000e+02
1.062500e+02
1.125000e+02
1.187500e+02
1.250000e+02
1.312500e+02
1.375000e+02
1.437500e+02
1.500000e+02
1.562500e+02
1.625000e+02
1.687500e+02
1.750000e+02
1.812500e+02
1.875000e+02
1.937500e+02
2.000000e+02
0.000000e+00
6.250000e+00
1.250000e+01
1.875000e+01
2.500000e+01
3.125000e+01
3.750000e+01
4.375000e+01
5.000000e+01
5.625000e+01
6.250000e+01
6.875000e+01
7.500000e+01
8.125000e+01
8.750000e+01
9.375000e+01
1.000000e+02
1.062500e+02
1.125000e+02
1.187500e+02
1.250000e+02
1.312500e+02
1.375000e+02
1.437500e+02
1.500000e+02
1.562500e+02
1.625000e+02
1.687500e+02
1.750000e+02
1.812500e+02
1.875000e+02
1.937500e+02
2.000000e+02
0.000000e+00
6.250000e+00
1.250000e+01
1.875000e+01
2.500000e+01
3.125000e+01
3.750000e+01
4.375000e+01
5.000000e+01
5.625000e+01
6.250000e+01
6.875000e+01
7.500000e+01
8.125000e+01
8.750000e+01
9.375000e+01
1.000000e+02
1.062500e+02
1.125000e+02
1.187500e+02
1.250000e+02
1.312500e+02
1.375000e+02
1.437500e+02
1.500000e+02
1.562500e+02
1.625000e+02
1.687500e+02
1.750000e+02
1.812500e+02
1.875000e+02
1.937500e+02
2.000000e+02
0.000000e+00
6.250000e+00
1.250000e+01
1.875000e+01
2.500000e+01
3.125000e+01
3.750000e+01
4.375000e+01
5.000000e+01
5.625000e+01
6.250000e+01
6.875000e+01
7.500000e+01
8.125000e+01
8.750000e+01
9.375000e+01
1.000000e+02
1.062500e+02
1.125000e+02
1.187500e+02
1.250000e+02
1.312500e+02
1.375000e+02
1.437500e+02
1.500000e+02
1.562500e+02
1.625000e+02
1.687500e+02
1.750000e+02
1.812500e+02
1.875000e+02
1.937500e+02
2.000000e+02
0.000000e+00
6.250000e+00
1.250000e+01
1.875000e+01
2.500000e+01
3.125000e+01
3.750000e+01
4.375000e+01
5.000000e+01
5.625000e+01
6.250000e+01
6.875000e+01
7.500000e+01
8.125000e+01
8.750000e+01
9.375000e+01
1.000000e+02
1.062500e+02
1.125000e+02
1.187500e+02
1.250000e+02
1.312500e+02
1.375000e+02
1.437500e+02
1.500000e+02
1.562500e+02
1.625000e+02
1.687500e+02
1.750000e+02
1.812500e+02
1.875000e+02
1.937500e+02
2.000000e+02
0.000000e+00
0.000000e+00
0.000000e+00
0.000000e+00
0.000000e+00
0.000000e+00
0.000000e+00
0.000000e+00
0.000000e+00
0.000000e+00
0.000000e+00
0.000000e+00
0.000000e+00
0.000000e+00
0.000000e+00
0.000000e+00
0.000000e+00
0.000000e+00
0.000000e+00
0.000000e+00
0.000000e+00
0.000000e+00
0.000000e+00
0.000000e+00
0.000000e+00
0.000000e+00
0.000000e+00
0.000000e+00
0.000000e+00
0.000000e+00
0.000000e+00
0.000000e+00
0.000000e+00
6.250000e+00
6.250000e+00
6.250000e+00
6.250000e+00
6.250000e+00
6.250000e+00
6.250000e+00
6.250000e+00
6.250000e+00
6.250000e+00
6.250000e+00
6.250000e+00
6.250000e+00
6.250000e+00
6.250000e+00
6.250000e+00
6.250000e+00
6.250000e+00
6.250000e+00
6.250000e+00
6.250000e+00
6.250000e+00
6.250000e+00
6.250000e+00
6.250000e+00
6.250000e+00
6.250000e+00
6.250000e+00
6.250000e+00
6.250000e+00
6.250000e+00
6.250000e+00
6.250000e+00
1.250000e+01
1.250000e+01
1.250000e+01
1.250000e+01
1.250000e+01
1.250000e+01
1.250000e+01
1.250000e+01
1.250000e+01
1.250000e+01
1.250000e+01
1.250000e+01
1.250000e+01
1.250000e+01
1.250000e+01
1.250000e+01
1.250000e+01
1.250000e+01
1.250000e+01
1.250000e+01
1.250000e+01
1.250000e+01
1.250000e+01
1.250000e+01
1.250000e+01
1.250000e+01
1.250000e+01
1.250000e+01
1.250000e+01
1.250000e+01
1.250000e+01
1.250000e+01
1.250000e+01
1.875000e+01
1.875000e+01
1.875000e+01
1.875000e+01
1.875000e+01
1.875000e+01
1.875000e+01
1.875000e+01
1.875000e+01
1.875000e+01
1.875000e+01
1.875000e+01
1.875000e+01
1.875000e+01
1.875000e+01
1.875000e+01
1.875000e+01
1.875000e+01
1.875000e+01
1.875000e+01
1.875000e+01
1.875000e+01
1.875000e+01
1.875000e+01
1.875000e+01
1.875000e+01
1.875000e+01
1.875000e+01
1.875000e+01
1.875000e+01
1.875000e+01
1.875000e+01
1.875000e+01
2.500000e+01
2.500000e+01
2.500000e+01
2.500000e+01
2.500000e+01
2.500000e+01
2.500000e+01
2.500000e+01
2.500000e+01
2.500000e+01
2.500000e+01
2.500000e+01
2.500000e+01
2.500000e+01
2.500000e+01
2.500000e+01
2.500000e+01
2.500000e+01
2.500000e+01
2.500000e+01
2.500000e+01
2.500000e+01
2.500000e+01
2.500000e+01
2.500000e+01
2.500000e+01
2.500000e+01
2.500000e+01
2.500000e+01
2.500000e+01
2.500000e+01
2.500000e+01
2.500000e+01
3.125000e+01
3.125000e+01
3.125000e+01
3.125000e+01
3.125000e+01
3.125000e+01
3.125000e+01
3.125000e+01
3.125000e+01
3.125000e+01
3.125000e+01
3.125000e+01
3.125000e+01
3.125000e+01
3.125000e+01
3.125000e+01
3.125000e+01
3.125000e+01
3.125000e+01
3.125000e+01
3.125000e+01
3.125000e+01
3.125000e+01
3.125000e+01
3.125000e+01
3.125000e+01
3.125000e+01
3.125000e+01
3.125000e+01
3.125000e+01
3.125000e+01
3.125000e+01
3.125000e+01
3.750000e+01
3.750000e+01
3.750000e+01
3.750000e+01
3.750000e+01
3.750000e+01
3.750000e+01
3.750000e+01
3.750000e+01
3.750000e+01
3.750000e+01
3.750000e+01
3.750000e+01
3.750000e+01
3.750000e+01
3.750000e+01
3.750000e+01
3.750000e+01
3.750000e+01
3.750000e+01
3.750000e+01
3.750000e+01
3.750000e+01
3.750000e+01
3.750000e+01
3.750000e+01
3.750000e+01
3.750000e+01
3.750000e+01
3.750000e+01
3.750000e+01
3.750000e+01
3.750000e+01
4.375000e+01
4.375000e+01
4.375000e+01
4.375000e+01
4.375000e+01
4.375000e+01
4.375000e+01
4.375000e+01
4.375000e+01
4.375000e+01
4.375000e+01
4.375000e+01
4.375000e+01
4.375000e+01
4.375000e+01
4.375000e+01
4.375000e+01
4.375000e+01
4.375000e+01
4.375000e+01
4.375000e+01
4.375000e+01
4.375000e+01
4.375000e+01
4.375000e+01
4.375000e+01
4.375000e+01
4.375000e+01
4.375000e+01
4.375000e+01
4.375000e+01
4.375000e+01
4.375000e+01
5.000000e+01
5.000000e+01
5.000000e+01
5.000000e+01
5.000000e+01
5.000000e+01
5.000000e+01
5.000000e+01
5.000000e+01
5.000000e+01
5.000000e+01
5.000000e+01
5.000000e+01
5.000000e+01
5.000000e+01
5.000000e+01
5.000000e+01
5.000000e+01
5.000000e+01
5.000000e+01
5.000000e+01
5.000000e+01
5.000000e+01
5.000000e+01
5.000000e+01
5.000000e+01
5.000000e+01
5.000000e+01
5.000000e+01
5.000000e+01
5.000000e+01
5.000000e+01
5.000000e+01
5.625000e+01
5.625000e+01
5.625000e+01
5.625000e+01
5.625000e+01
5.625000e+01
5.625000e+01
5.625000e+01
5.625000e+01
5.625000e+01
5.625000e+01
5.625000e+01
5.625000e+01
5.625000e+01
5.625000e+01
5.625000e+01
5.625000e+01
5.625000e+01
5.625000e+01
5.625000e+01
5.625000e+01
5.625000e+01
5.625000e+01
5.625000e+01
5.625000e+01
5.625000e+01
5.625000e+01
5.625000e+01
5.625000e+01
5.625000e+01
5.625000e+01
5.625000e+01
5.625000e+01
6.250000e+01
6.250000e+01
6.250000e+01
6.250000e+01
6.250000e+01
6.250000e+01
6.250000e+01
6.250000e+01
6.250000e+01
6.250000e+01
6.250000e+01
6.250000e+01
6.250000e+01
6.250000e+01
6.250000e+01
6.250000e+01
6.250000e+01
6.250000e+01
6.250000e+01
6.250000e+01
6.250000e+01
6.250000e+01
6.250000e+01
6.250000e+01
6.250000e+01
6.250000e+01
6.250000e+01
6.250000e+01
6.250000e+01
6.250000e+01
6.250000e+01
6.250000e+01
6.250000e+01
6.875000e+01
6.875000e+01
6.875000e+01
6.875000e+01
6.875000e+01
6.875000e+01
6.875000e+01
6.875000e+01
6.875000e+01
6.875000e+01
6.875000e+01
6.875000e+01
6.875000e+01
6.875000e+01
6.875000e+01
6.875000e+01
6.875000e+01
6.875000e+01
6.875000e+01
6.875000e+01
6.875000e+01
6.875000e+01
6.875000e+01
6.875000e+01
6.875000e+01
6.875000e+01
6.875000e+01
6.875000e+01
6.875000e+01
6.875000e+01
6.875000e+01
6.875000e+01
6.875000e+01
7.500000e+01
7.500000e+01
7.500000e+01
7.500000e+01
7.500000e+01
7.500000e+01
7.500000e+01
7.500000e+01
7.500000e+01
7.500000e+01
7.500000e+01
7.500000e+01
7.500000e+01
7.500000e+01
7.500000e+01
7.500000e+01
7.500000e+01
7.500000e+01
7.500000e+01
7.500000e+01
7.500000e+01
7.500000e+01
7.500000e+01
7.500000e+01
7.500000e+01
7.500000e+01
7.500000e+01
7.500000e+01
7.500000e+01
7.500000e+01
7.500000e+01
7.500000e+01
7.500000e+01
8.125000e+01
8.125000e+01
8.125000e+01
8.125000e+01
8.125000e+01
8.125000e+01
8.125000e+01
8.125000e+01
8.125000e+01
8.125000e+01
8.125000e+01
8.125000e+01
8.125000e+01
8.125000e+01
8.125000e+01
8.125000e+01
8.125000e+01
8.125000e+01
8.125000e+01
8.125000e+01
8.125000e+01
8.125000e+01
8.125000e+01
8.125000e+01
8.125000e+01
8.125000e+01
8.125000e+01
8.125000e+01
8.125000e+01
8.125000e+01
8.125000e+01
8.125000e+01
8.125000e+01
8.750000e+01
8.750000e+01
8.750000e+01
8.750000e+01
8.750000e+01
8.750000e+01
8.750000e+01
8.750000e+01
8.750000e+01
8.750000e+01
8.750000e+01
8.750000e+01
8.750000e+01
8.750000e+01
8.750000e+01
8.750000e+01
8.750000e+01
8.750000e+01
8.750000e+01
8.750000e+01
8.750000e+01
8.750000e+01
8.750000e+01
8.750000e+01
8.750000e+01
8.750000e+01
8.750000e+01
8.750000e+01
8.750000e+01
8.750000e+01
8.750000e+01
8.750000e+01
8.750000e+01
9.375000e+01
9.375000e+01
9.375000e+01
9.375000e+01
9.375000e+01
9.375000e+01
9.375000e+01
9.375000e+01
9.375000e+01
9.375000e+01
9.375000e+01
9.375000e+01
9.375000e+01
9.375000e+01
9.375000e+01
9.375000e+01
9.375000e+01
9.375000e+01
9.375000e+01
9.375000e+01
9.375000e+01
9.375000e+01
9.375000e+01
9.375000e+01
9.375000e+01
9.375000e+01
9.375000e+01
9.375000e+01
9.375000e+01
9.375000e+01
9.375000e+01
9.375000e+01
9.375000e+01
1.000000e+02
1.000000e+02
1.000000e+02
1.000000e+02
1.000000e+02
1.000000e+02
1.000000e+02
1.000000e+02
1.000000e+02
1.000000e+02
1.000000e+02
1.000000e+02
1.000000e+02
1.000000e+02
1.000000e+02
1.000000e+02
1.000000e+02
1.000000e+02
1.000000e+02
1.000000e+02
1.000000e+02
1.000000e+02
1.000000e+02
1.000000e+02
1.000000e+02
1.000000e+02
1.000000e+02
1.000000e+02
1.000000e+02
1.000000e+02
1.000000e+02
1.000000e+02
1.000000e+02
0.000000e+00
-4.326696e-02
-7.850215e-02
-1.111426e-01
-1.424682e-01
-1.727178e-01
-2.019522e-01
-2.301688e-01
-2.573497e-01
-2.834753e-01
-3.085291e-01
-3.324999e-01
-3.553817e-01
-3.771743e-01
-3.978825e-01
-4.175173e-01
-4.360964e-01
-4.536453e-01
-4.701992e-01
-4.858058e-01
-5.005285e-01
-5.144513e-01
-5.276851e-01
-5.403770e-01
-5.527241e-01
-5.649944e-01
-5.775600e-01
-5.909515e-01
-6.059473e-01
-6.236930e-01
-6.456747e-01
-6.718708e-01
-6.878579e-01
0.000000e+00
-2.900934e-02
-6.035704e-02
-8.991379e-02
-1.180063e-01
-1.449022e-01
-1.707434e-01
-1.955922e-01
-2.194734e-01
-2.423950e-01
-2.643585e-01
-2.853640e-01
-3.054124e-01
-3.245070e-01
-3.426541e-01
-3.598638e-01
-3.761508e-01
-3.915351e-01
-4.060435e-01
-4.197106e-01
-4.325805e-01
-4.447089e-01
-4.561648e-01
-4.670329e-01
-4.774141e-01
-4.874246e-01
-4.971871e-01
-5.068026e-01
-5.162703e-01
-5.252824e-01
-5.327919e-01
-5.371823e-01
-5.432945e-01
0.000000e+00
-2.301027e-02
-4.737219e-02
-7.217648e-02
-9.627858e-02
-1.194925e-01
-1.418033e-01
-1.632323e-01
-1.837983e-01
-2.035143e-01
-2.223887e-01
-2.404273e-01
-2.576352e-01
-2.740175e-01
-2.895802e-01
-3.043308e-01
-3.182790e-01
-3.314368e-01
-3.438189e-01
-3.554430e-01
-3.663295e-01
-3.765004e-01
-3.859773e-01
-3.947771e-01
-4.029031e-01
-4.103295e-01
-4.169712e-01
-4.226327e-01
-4.269311e-01
-4.292457e-01
-4.290428e-01
-4.277431e-01
-4.348804e-01
0.000000e+00
-1.825661e-02
-3.752150e-02
-5.731377e-02
-7.705965e-02
-9.632725e-02
-1.149516e-01
-1.328734e-01
-1.500767e-01
-1.665608e-01
-1.823300e-01
-1.973895e-01
-2.117445e-01
-2.253993e-01
-2.383581e-01
-2.506245e-01
-2.622018e-01
-2.730932e-01
-2.833006e-01
-2.928249e-01
-3.016634e-01
-3.098082e-01
-3.172412e-01
-3.239277e-01
-3.298060e-01
-3.347724e-01
-3.386625e-01
-3.412387e-01
-3.422223e-01
-3.414921e-01
-3.397187e-01
-3.396128e-01
-3.464129e-01
0.000000e+00
-1.416968e-02
-2.901467e-02
-4.433388e-02
-5.977755e-02
-7.503179e-02
-8.988615e-02
-1.042341e-01
-1.180271e-01
-1.312465e-01
-1.438876e-01
-1.559509e-01
-1.674387e-01
-1.783530e-01
-1.886944e-01
-1.984621e-01
-2.076530e-01
-2.162616e-01
-2.242789e-01
-2.316915e-01
-2.384796e-01
-2.446140e-01
-2.500529e-01
-2.547365e-01
-2.585820e-01
-2.614806e-01
-2.633047e-01
-2.639445e-01
-2.634196e-01
-2.621352e-01
-2.613019e-01
-2.632262e-01
-2.690270e-01
0.000000e+00
-1.041389e-02
-2.127395e-02
-3.248291e-02
-4.384710e-02
-5.515437e-02
-6.623633e-02
-7.698350e-02
-8.733580e-02
-9.726402e-02
-1.067558e-01
-1.158069e-01
-1.244156e-01
-1.325805e-01
-1.402985e-01
-1.475641e-01
-1.543686e-01
-1.606996e-01
-1.665400e-01
-1.718670e-01
-1.766505e-01
-1.808518e-01
-1.844217e-01
-1.873004e-01
-1.894196e-01
-1.907127e-01
-1.911416e-01
-1.907567e-01
-1.898078e-01
-1.889050e-01
-1.891248e-01
-1.915779e-01
-1.963777e-01
0.000000e+00
-6.853592e-03
-1.397828e-02
-2.132897e-02
-2.880086e-02
-3.626818e-02
-4.361831e-02
-5.076916e-02
-5.766936e-02
-6.429057e-02
-7.061847e-02
-7.664585e-02
-8.236810e-02
-8.778045e-02
-9.287638e-02
-9.764655e-02
-1.020781e-01
-1.061540e-01
-1.098524e-01
-1.131460e-01
-1.160018e-01
-1.183810e-01
-1.202404e-01
-1.215362e-01
-1.222324e-01
-1.223187e-01
-1.218427e-01
-1.209619e-01
-1.200114e-01
-1.195506e-01
-1.202695e-01
-1.226578e-01
-1.265323e-01
0.000000e+00
-3.404177e-03
-6.937052e-03
-1.058047e-02
-1.428841e-02
-1.800229e-02
-2.166650e-02
-2.523751e-02
-2.868590e-02
-3.199371e-02
-3.515029e-02
-3.814861e-02
-4.098253e-02
-4.364502e-02
-4.612700e-02
-4.841657e-02
-5.049835e-02
-5.235313e-02
-5.395759e-02
-5.528441e-02
-5.630293e-02
-5.698088e-02
-5.728799e-02
-5.720257e-02
-5.672294e-02
-5.588570e-02
-5.479218e-02
-5.363997e-02
-5.274551e-02
-5.252145e-02
-5.336484e-02
-5.544834e-02
-5.852265e-02
0.000000e+00
-5.492308e-06
-1.190889e-05
-1.889428e-05
-2.608104e-05
-3.297375e-05
-3.882578e-05
-4.250253e-05
-4.232159e-05
-3.586035e-05
-1.972375e-05
1.073197e-05
6.171900e-05
1.413742e-04
2.601348e-04
4.311009e-04
6.703287e-04
9.969636e-04
1.433070e-03
2.002938e-03
2.731541e-03
3.641673e-03
4.749122e-03
6.055089e-03
7.535110e-03
9.124353e-03
1.070114e-02
1.207489e-02
1.299193e-02
1.317790e-02
1.242910e-02
1.073330e-02
8.358246e-03
0.000000e+00
3.393832e-03
6.914576e-03
1.054473e-02
1.423897e-02
1.793961e-02
2.159242e-02
2.515598e-02
2.860403e-02
3.192312e-02
3.510899e-02
3.816329e-02
4.109157e-02
4.390214e-02
4.660561e-02
4.921482e-02
5.174485e-02
5.421288e-02
5.663772e-02
5.903875e-02
6.143390e-02
6.383639e-02
6.624961e-02
6.866018e-02
7.102891e-02
7.328106e-02
7.529873e-02
7.692155e-02
7.796425e-02
7.825945e-02
7.772482e-02
7.643660e-02
7.467385e-02
0.000000e+00
6.845141e-03
1.395978e-02
2.129937e-02
2.875959e-02
3.621536e-02
4.355515e-02
5.069854e-02
5.759667e-02
6.422482e-02
7.057380e-02
7.664348e-02
8.243877e-02
8.796747e-02
9.323929e-02
9.826546e-02
1.030586e-01
1.076322e-01
1.120007e-01
1.161775e-01
1.201735e-01
1.239937e-01
1.276329e-01
1.310701e-01
1.342622e-01
1.371383e-01
1.395983e-01
1.415198e-01
1.427774e-01
1.432802e-01
1.430217e-01
1.421303e-01
1.409000e-01
0.000000e+00
1.040850e-02
2.126194e-02
3.246336e-02
4.381933e-02
5.511812e-02
6.619198e-02
7.693245e-02
8.728101e-02
9.721072e-02
1.067125e-01
1.157866e-01
1.244377e-01
1.326724e-01
1.404986e-01
1.479244e-01
1.549588e-01
1.616106e-01
1.678883e-01
1.737992e-01
1.793474e-01
1.845316e-01
1.893419e-01
1.937554e-01
1.977333e-01
2.012176e-01
2.041334e-01
2.063963e-01
2.079309e-01
2.086998e-01
2.087431e-01
2.082202e-01
2.074427e-01
0.000000e+00
1.416834e-02
2.901132e-02
4.432789e-02
5.976828e-02
7.501873e-02
8.986895e-02
1.042127e-01
1.180020e-01
1.312188e-01
1.438594e-01
1.559258e-01
1.674225e-01
1.783543e-01
1.887257e-01
1.985410e-01
2.078039e-01
2.165174e-01
2.246836e-01
2.323030e-01
2.393731e-01
2.458876e-01
2.518338e-01
2.571913e-01
2.619299e-01
2.660098e-01
2.693844e-01
2.720071e-01
2.738452e-01
2.749012e-01
2.752437e-01
2.750474e-01
2.746378e-01
0.000000e+00
1.826000e-02
3.752840e-02
5.732402e-02
7.707298e-02
9.634327e-02
1.149697e-01
1.328928e-01
1.500958e-01
1.665774e-01
1.823404e-01
1.973885e-01
2.117245e-01
2.253500e-01
2.382652e-01
2.504692e-01
2.619595e-01
2.727325e-01
2.827828e-01
2.921032e-01
3.006845e-01
3.085146e-01
3.155786e-01
3.218588e-01
3.273351e-01
3.319869e-01
3.357969e-01
3.387565e-01
3.408746e-01
3.421909e-01
3.427964e-01
3.428686e-01
3.427327e-01
0.000000e+00
2.301856e-02
4.738986e-02
7.220416e-02
9.631679e-02
1.195417e-01
1.418636e-01
1.633029e-01
1.838773e-01
2.035976e-01
2.224691e-01
2.404934e-01
2.576692e-01
2.739933e-01
2.894605e-01
3.040639e-01
3.177945e-01
3.306410e-01
3.425899e-01
3.536253e-01
3.637289e-01
3.728813e-01
3.810625e-01
3.882541e-01
3.944426e-01
3.996232e-01
4.038053e-01
4.070183e-01
4.093178e-01
4.107906e-01
4.115615e-01
4.118126e-01
4.118426e-01
0.000000e+00
2.902176e-02
6.038419e-02
8.995746e-02
1.180687e-01
1.449853e-01
1.708491e-01
1.957216e-01
2.196259e-01
2.425676e-01
2.645440e-01
2.855492e-01
3.055752e-01
3.246128e-01
3.426513e-01
3.596777e-01
3.756766e-01
3.906292e-01
4.045129e-01
4.173016e-01
4.289658e-01
4.394741e-01
4.487955e-01
4.569032e-01
4.637803e-01
4.694274e-01
4.738710e-01
4.771737e-01
4.794425e-01
4.808327e-01
4.815430e-01
4.818005e-01
4.818636e-01
0.000000e+00
4.328057e-02
7.853390e-02
1.111970e-01
1.425496e-01
1.728307e-01
2.021011e-01
2.303581e-01
2.575830e-01
2.837538e-01
3.088506e-01
3.328558e-01
3.557539e-01
3.775305e-01
3.981703e-01
4.176560e-01
4.359669e-01
4.530776e-01
4.689567e-01
4.835667e-01
4.968635e-01
5.087982e-01
5.193195e-01
5.283794e-01
5.359403e-01
5.419869e-01
5.465408e-01
5.496781e-01
5.515480e-01
5.523905e-01
5.525436e-01
5.524168e-01
5.523454e-01
0.000000e+00
-2.673816e-02
-4.666386e-02
-6.840759e-02
-9.262054e-02
-1.199715e-01
-1.506505e-01
-1.847109e-01
-2.221187e-01
-2.627939e-01
-3.066285e-01
-3.534985e-01
-4.032703e-01
-4.558045e-01
-5.109590e-01
-5.685909e-01
-6.285578e-01
-6.907200e-01
-7.549425e-01
-8.210982e-01
-8.890719e-01
-9.587667e-01
-1.030113e+00
-1.103085e+00
-1.177717e+00
-1.254148e+00
-1.332681e+00
-1.413911e+00
-1.498970e+00
-1.590104e+00
-1.692158e+00
-1.816561e+00
-1.988427e+00
0.000000e+00
-1.661675e-02
-3.747370e-02
-5.936411e-02
-8.391454e-02
-1.115626e-01
-1.425397e-01
-1.768982e-01
-2.146072e-01
-2.555863e-01
-2.997273e-01
-3.469051e-01
-3.969848e-01
-4.498259e-01
-5.052851e-01
-5.632179e-01
-6.234803e-01
-6.859304e-01
-7.504307e-01
-8.168508e-01
-8.850715e-01
-9.549911e-01
-1.026534e+00
-1.099664e+00
-1.174409e+00
-1.250894e+00
-1.329406e+00
-1.410521e+00
-1.495348e+00
-1.586096e+00
-1.687361e+00
-1.808995e+00
-1.969562e+00
0.000000e+00
-1.220596e-02
-3.021112e-02
-5.180292e-02
-7.639624e-02
-1.042481e-01
-1.354697e-01
-1.700900e-01
-2.080675e-01
-2.493182e-01
-2.937317e-01
-3.411821e-01
-3.915339e-01
-4.446462e-01
-5.003750e-01
-5.585752e-01
-6.191023e-01
-6.818135e-01
-7.465703e-01
-8.132413e-01
-8.817064e-01
-9.518628e-01
-1.023635e+00
-1.096988e+00
-1.171952e+00
-1.248659e+00
-1.327411e+00
-1.408796e+00
-1.493911e+00
-1.584743e+00
-1.684691e+00
-1.797768e+00
-1.923203e+00
0.000000e+00
-9.774013e-03
-2.558272e-02
-4.602314e-02
-7.030040e-02
-9.814356e-02
-1.294987e-01
-1.643130e-01
-2.025116e-01
-2.439949e-01
-2.886457e-01
-3.363349e-01
-3.869259e-01
-4.402773e-01
-4.962456e-01
-5.546859e-01
-6.154541e-01
-6.784080e-01
-7.434100e-01
-8.103296e-01
-8.790483e-01
-9.494658e-01
-1.021510e+00
-1.095153e+00
-1.170430e+00
-1.247481e+00
-1.326604e+00
-1.408341e+00
-1.493590e+00
-1.583661e+00
-1.679808e+00
-1.781212e+00
-1.875610e+00
0.000000e+00
-8.270423e-03
-2.255592e-02
-4.191881e-02
-6.564265e-02
-9.330327e-02
-1.246702e-01
-1.595977e-01
-1.979594e-01
-2.396300e-01
-2.844793e-01
-3.323720e-01
-3.831692e-01
-4.367290e-01
-4.929084e-01
-5.515637e-01
-6.125520e-01
-6.757329e-01
-7.409705e-01
-8.081367e-01
-8.771154e-01
-9.478097e-01
-1.020150e+00
-1.094111e+00
-1.169725e+00
-1.247114e+00
-1.326522e+00
-1.408339e+00
-1.493081e+00
-1.581165e+00
-1.672169e+00
-1.762753e+00
-1.844963e+00
0.000000e+00
-7.313675e-03
-2.056995e-02
-3.909439e-02
-6.228420e-02
-8.968571e-02
-1.209845e-01
-1.559566e-01
-1.944258e-01
-2.362368e-01
-2.812433e-01
-3.293021e-01
-3.802708e-01
-4.340070e-01
-4.903683e-01
-5.492123e-01
-6.103982e-01
-6.737876e-01
-7.392468e-01
-8.066496e-01
-8.758818e-01
-9.468468e-01
-1.019473e+00
-1.093727e+00
-1.169620e+00
-1.247226e+00
-1.326682e+00
-1.408159e+00
-1.491752e+00
-1.577178e+00
-1.663137e+00
-1.746556e+00
-1.822801e+00
0.000000e+00
-6.719067e-03
-1.931433e-02
-3.725846e-02
-6.003428e-02
-8.719967e-02
-1.184055e-01
-1.533820e-01
-1.919147e-01
-2.338229e-01
-2.789453e-01
-3.271310e-01
-3.782343e-01
-4.321122e-01
-4.886230e-01
-5.476262e-01
-6.089826e-01
-6.725559e-01
-7.382138e-01
-8.058311e-01
-8.752924e-01
-9.464973e-01
-1.019365e+00
-1.093841e+00
-1.169900e+00
-1.247542e+00
-1.326775e+00
-1.407553e+00
-1.489644e+00
-1.572379e+00
-1.654326e+00
-1.733124e+00
-1.805877e+00
0.000000e+00
-6.392321e-03
-1.861761e-02
-3.622387e-02
-5.874415e-02
-8.575157e-02
-1.168858e-01
-1.518546e-01
-1.904216e-01
-2.323899e-01
-2.775883e-01
-3.258605e-01
-3.770589e-01
-4.310404e-01
-4.876645e-01
-5.467921e-01
-6.082858e-01
-6.720104e-01
-7.378341e-01
-8.056302e-01
-8.752795e-01
-9.466725e-01
-1.019712e+00
-1.094314e+00
-1.170404e+00
-1.247903e+00
-1.326697e+00
-1.406572e+00
-1.487100e+00
-1.567491e+00
-1.646452e+00
-1.722208e+00
-1.792781e+00
0.000000e+00
-6.287045e-03
-1.839284e-02
-3.588855e-02
-5.832368e-02
-8.527763e-02
-1.163880e-01
-1.513562e-01
-1.899395e-01
-2.319359e-01
-2.771713e-01
-3.254884e-01
-3.767399e-01
-4.307835e-01
-4.874800e-01
-5.466919e-01
-6.082828e-01
-6.721179e-01
-7.380645e-01
-8.059926e-01
-8.757757e-01
-9.472916e-01
-1.020422e+00
-1.095048e+00
-1.171044e+00
-1.248260e+00
-1.326484e+00
-1.405395e+00
-1.484483e+00
-1.562969e+00
-1.639760e+00
-1.713502e+00
-1.782745e+00
0.000000e+00
-6.389276e-03
-1.861339e-02
-3.622023e-02
-5.874305e-02
-8.575543e-02
-1.168978e-01
-1.518790e-01
-1.904640e-01
-2.324576e-01
-2.776908e-01
-3.260096e-01
-3.772694e-01
-4.313300e-01
-4.880538e-01
-5.473046e-01
-6.089465e-01
-6.728443e-01
-7.388631e-01
-8.068677e-01
-8.767227e-01
-9.482908e-01
-1.021430e+00
-1.095988e+00
-1.171793e+00
-1.248634e+00
-1.326236e+00
-1.404221e+00
-1.482064e+00
-1.559055e+00
-1.634294e+00
-1.706733e+00
-1.775265e+00
0.000000e+00
-6.713224e-03
-1.930622e-02
-3.725144e-02
-6.003208e-02
-8.720692e-02
-1.184283e-01
-1.534285e-01
-1.919956e-01
-2.339524e-01
-2.791415e-01
-3.274167e-01
-3.786377e-01
-4.326674e-01
-4.893699e-01
-5.486097e-01
-6.102513e-01
-6.741583e-01
-7.401925e-01
-8.082132e-01
-8.780750e-01
-9.496253e-01
-1.022700e+00
-1.097115e+00
-1.172662e+00
-1.249085e+00
-1.326069e+00
-1.403215e+00
-1.480018e+00
-1.555859e+00
-1.630008e+00
-1.701656e+00
-1.769955e+00
0.000000e+00
-7.305553e-03
-2.055868e-02
-3.908459e-02
-6.228103e-02
-8.969564e-02
-1.210160e-01
-1.560212e-01
-1.945385e-01
-2.364174e-01
-2.815172e-01
-3.297012e-01
-3.808347e-01
-4.347835e-01
-4.914133e-01
-5.505893e-01
-6.121756e-01
-6.760343e-01
-7.420238e-01
-8.099977e-01
-8.798010e-01
-9.512673e-01
-1.024213e+00
-1.098430e+00
-1.173678e+00
-1.249674e+00
-1.326080e+00
-1.402494e+00
-1.478448e+00
-1.553411e+00
-1.626807e+00
-1.698034e+00
-1.766475e+00
0.000000e+00
-8.260856e-03
-2.254265e-02
-4.190726e-02
-6.563898e-02
-9.331529e-02
-1.247083e-01
-1.596756e-01
-1.980955e-01
-2.398482e-01
-2.848102e-01
-3.328545e-01
-3.838511e-01
-4.376683e-01
-4.941730e-01
-5.532305e-01
-6.147043e-01
-6.784548e-01
-7.443375e-01
-8.122007e-01
-8.818818e-01
-9.532029e-01
-1.025965e+00
-1.099942e+00
-1.174873e+00
-1.250454e+00
-1.326338e+00
-1.402130e+00
-1.477399e+00
-1.551693e+00
-1.624573e+00
-1.695630e+00
-1.764483e+00
0.000000e+00
-9.764180e-03
-2.556910e-02
-4.601140e-02
-7.029724e-02
-9.815768e-02
-1.295416e-01
-1.644000e-01
-2.026629e-01
-2.442370e-01
-2.890125e-01
-3.368692e-01
-3.876805e-01
-4.413161e-01
-4.976432e-01
-5.565271e-01
-6.178305e-01
-6.814122e-01
-7.471254e-01
-8.148142e-01
-8.843105e-01
-9.554281e-01
-1.027958e+00
-1.101662e+00
-1.176265e+00
-1.251455e+00
-1.326878e+00
-1.402150e+00
-1.476869e+00
-1.550651e+00
-1.623169e+00
-1.694194e+00
-1.763615e+00
0.000000e+00
-1.219739e-02
-3.019919e-02
-5.179301e-02
-7.639530e-02
-1.042652e-01
-1.355171e-01
-1.701836e-01
-2.082284e-01
-2.495736e-01
-2.941168e-01
-3.417410e-01
-3.923210e-01
-4.457267e-01
-5.018254e-01
-5.604817e-01
-6.215575e-01
-6.849104e-01
-7.503917e-01
-8.178430e-01
-8.870922e-01
-9.579489e-01
-1.030198e+00
-1.103595e+00
-1.177860e+00
-1.252676e+00
-1.327691e+00
-1.402528e+00
-1.476810e+00
-1.550195e+00
-1.622440e+00
-1.693473e+00
-1.763463e+00
0.000000e+00
-1.661124e-02
-3.746558e-02
-5.935828e-02
-8.391815e-02
-1.115850e-01
-1.425931e-01
-1.769987e-01
-2.147756e-01
-2.558500e-01
-3.001207e-01
-3.474714e-01
-3.977771e-01
-4.509074e-01
-5.067292e-01
-5.651065e-01
-6.259001e-01
-6.889665e-01
-7.541555e-01
-8.213070e-01
-8.902470e-01
-9.607828e-01
-1.032698e+00
-1.105746e+00
-1.179647e+00
-1.254086e+00
-1.328718e+00
-1.403176e+00
-1.477099e+00
-1.550174e+00
-1.622203e+00
-1.693212e+00
-1.763592e+00
0.000000e+00
-2.673738e-02
-4.666115e-02
-6.840811e-02
-9.263146e-02
-1.200022e-01
-1.507132e-01
-1.848215e-01
-2.222979e-01
-2.630679e-01
-3.070306e-01
-3.540700e-01
-4.040610e-01
-4.568733e-01
-5.123731e-01
-5.704238e-01
-6.308850e-01
-6.936119e-01
-7.584526e-01
-8.252453e-01
-8.938145e-01
-9.639664e-01
-1.035484e+00