TITLE = "Solution"
VARIABLES = x, y, u, v, psiu, psiv, t, stress
ZONE T="structure" N=561 E=512 F=FEBLOCK ET=QUADRILATERAL VARLOCATION=([7,8]=cellcentered)
0.000000e+00
6.250000e+00
1.250000e+01
1.875000e+01
2.500000e+01
3.125000e+01
3.750000e+01
4.375000e+01
5.000000e+01
5.625000e+01
6.250000e+01
6.875000e+01
7.500000e+01
8.125000e+01
8.750000e+01
9.375000e+01
1.000000e+02
1.062500e+02
1.125000e+02
1.187500e+02
1.250000e+02
1.312500e+02
1.375000e+02
1.437500e+02
1.500000e+02
1.562500e+02
1.625000e+02
1.687500e+02
1.750000e+02
1.812500e+02
1.875000e+02
1.937500e+02
2.000000e+02
0.000000e+00
6.250000e+00
1.250000e+01
1.875000e+01
2.500000e+01
3.125000e+01
3.750000e+01
4.375000e+01
5.000000e+01
5.625000e+01
6.250000e+01
6.875000e+01
7.500000e+01
8.125000e+01
8.750000e+01
9.375000e+01
1.000000e+02
1.062500e+02
1.125000e+02
1.187500e+02
1.250000e+02
1.312500e+02
1.375000e+02
1.437500e+02
1.500000e+02
1.562500e+02
1.625000e+02
1.687500e+02
1.750000e+02
1.812500e+02
1.875000e+02
1.937500e+02
2.000000e+02
0.000000e+00
6.250000e+00
1.250000e+01
1.875000e+01
2.500000e+01
3.125000e+01
3.750000e+01
4.375000e+01
5.000000e+01
5.625000e+01
6.250000e+01
6.875000e+01
7.500000e+01
8.125000e+01
8.750000e+01
9.375000e+01
1.000000e+02
1.062500e+02
1.125000e+02
1.187500e+02
1.250000e+02
1.312500e+02
1.375000e+02
1.437500e+02
1.500000e+02
1.562500e+02
1.625000e+02
1.687500e+02
1.750000e+02
1.812500e+02
1.875000e+02
1.937500e+02
2.000000e+02
0.000000e+00
6.250000e+00
1.250000e+01
1.875000e+01
2.500000e+01
3.125000e+01
3.750000e+01
4.375000e+01
5.000000e+01
5.625000e+01
6.250000e+01
6.875000e+01
7.500000e+01
8.125000e+01
8.750000e+01
9.375000e+01
1.000000e+02
1.062500e+02
1.125000e+02
1.187500e+02
1.250000e+02
1.312500e+02
1.375000e+02
1.437500e+02
1.500000e+02
1.562500e+02
1.625000e+02
1.687500e+02
1.750000e+02
1.812500e+02
1.875000e+02
1.937500e+02
2.000000e+02
0.000000e+00
6.250000e+00
1.250000e+01
1.875000e+01
2.500000e+01
3.125000e+01
3.750000e+01
4.375000e+01
5.000000e+01
5.625000e+01
6.250000e+01
6.875000e+01
7.500000e+01
8.125000e+01
8.750000e+01
9.375000e+01
1.000000e+02
1.062500e+02
1.125000e+02
1.187500e+02
1.250000e+02
1.312500e+02
1.375000e+02
1.437500e+02
1.500000e+02
1.562500e+02
1.625000e+02
1.687500e+02
1.750000e+02
1.812500e+02
1.875000e+02
1.937500e+02
2.000000e+02
0.000000e+00
6.250000e+00
1.250000e+01
1.875000e+01
2.500000e+01
3.125000e+01
3.750000e+01
4.375000e+01
5.000000e+01
5.625000e+01
6.250000e+01
6.875000e+01
7.500000e+01
8.125000e+01
8.750000e+01
9.375000e+01
1.000000e+02
1.062500e+02
1.125000e+02
1.187500e+02
1.250000e+02
1.312500e+02
1.375000e+02
1.437500e+02
1.500000e+02
1.562500e+02
1.625000e+02
1.687500e+02
1.750000e+02
1.812500e+02
1.875000e+02
1.937500e+02
2.000000e+02
0.000000e+00
6.250000e+00
1.250000e+01
1.875000e+01
2.500000e+01
3.125000e+01
3.750000e+01
4.375000e+01
5.000000e+01
5.625000e+01
6.250000e+01
6.875000e+01
7.500000e+01
8.125000e+01
8.750000e+01
9.375000e+01
1.000000e+02
1.062500e+02
1.125000e+02
1.187500e+02
1.250000e+02
1.312500e+02
1.375000e+02
1.437500e+02
1.500000e+02
1.562500e+02
1.625000e+02
1.687500e+02
1.750000e+02
1.812500e+02
1.875000e+02
1.937500e+02
2.000000e+02
0.000000e+00
6.250000e+00
1.250000e+01
1.875000e+01
2.500000e+01
3.125000e+01
3.750000e+01
4.375000e+01
5.000000e+01
5.625000e+01
6.250000e+01
6.875000e+01
7.500000e+01
8.125000e+01
8.750000e+01
9.375000e+01
1.000000e+02
1.062500e+02
1.125000e+02
1.187500e+02
1.250000e+02
1.312500e+02
1.375000e+02
1.437500e+02
1.500000e+02
1.562500e+02
1.625000e+02
1.687500e+02
1.750000e+02
1.812500e+02
1.875000e+02
1.937500e+02
2.000000e+02
0.000000e+00
6.250000e+00
1.250000e+01
1.875000e+01
2.500000e+01
3.125000e+01
3.750000e+01
4.375000e+01
5.000000e+01
5.625000e+01
6.250000e+01
6.875000e+01
7.500000e+01
8.125000e+01
8.750000e+01
9.375000e+01
1.000000e+02
1.062500e+02
1.125000e+02
1.187500e+02
1.250000e+02
1.312500e+02
1.375000e+02
1.437500e+02
1.500000e+02
1.562500e+02
1.625000e+02
1.687500e+02
1.750000e+02
1.812500e+02
1.875000e+02
1.937500e+02
2.000000e+02
0.000000e+00
6.250000e+00
1.250000e+01
1.875000e+01
2.500000e+01
3.125000e+01
3.750000e+01
4.375000e+01
5.000000e+01
5.625000e+01
6.250000e+01
6.875000e+01
7.500000e+01
8.125000e+01
8.750000e+01
9.375000e+01
1.000000e+02
1.062500e+02
1.125000e+02
1.187500e+02
1.250000e+02
1.312500e+02
1.375000e+02
1.437500e+02
1.500000e+02
1.562500e+02
1.625000e+02
1.687500e+02
1.750000e+02
1.812500e+02
1.875000e+02
1.937500e+02
2.000000e+02
0.000000e+00
6.250000e+00
1.250000e+01
1.875000e+01
2.500000e+01
3.125000e+01
3.750000e+01
4.375000e+01
5.000000e+01
5.625000e+01
6.250000e+01
6.875000e+01
7.500000e+01
8.125000e+01
8.750000e+01
9.375000e+01
1.000000e+02
1.062500e+02
1.125000e+02
1.187500e+02
1.250000e+02
1.312500e+02
1.375000e+02
1.437500e+02
1.500000e+02
1.562500e+02
1.625000e+02
1.687500e+02
1.750000e+02
1.812500e+02
1.875000e+02
1.937500e+02
2.000000e+02
0.000000e+00
6.250000e+00
1.250000e+01
1.875000e+01
2.500000e+01
3.125000e+01
3.750000e+01
4.375000e+01
5.000000e+01
5.625000e+01
6.250000e+01
6.875000e+01
7.500000e+01
8.125000e+01
8.750000e+01
9.375000e+01
1.000000e+02
1.062500e+02
1.125000e+02
1.187500e+02
1.250000e+02
1.312500e+02
1.375000e+02
1.437500e+02
1.500000e+02
1.562500e+02
1.625000e+02
1.687500e+02
1.750000e+02
1.812500e+02
1.875000e+02
1.937500e+02
2.000000e+02
0.000000e+00
6.250000e+00
1.250000e+01
1.875000e+01
2.500000e+01
3.125000e+01
3.750000e+01
4.375000e+01
5.000000e+01
5.625000e+01
6.250000e+01
6.875000e+01
7.500000e+01
8.125000e+01
8.750000e+01
9.375000e+01
1.000000e+02
1.062500e+02
1.125000e+02
1.187500e+02
1.250000e+02
1.312500e+02
1.375000e+02
1.437500e+02
1.500000e+02
1.562500e+02
1.625000e+02
1.687500e+02
1.750000e+02
1.812500e+02
1.875000e+02
1.937500e+02
2.000000e+02
0.000000e+00
6.250000e+00
1.250000e+01
1.875000e+01
2.500000e+01
3.125000e+01
3.750000e+01
4.375000e+01
5.000000e+01
5.625000e+01
6.250000e+01
6.875000e+01
7.500000e+01
8.125000e+01
8.750000e+01
9.375000e+01
1.000000e+02
1.062500e+02
1.125000e+02
1.187500e+02
1.250000e+02
1.312500e+02
1.375000e+02
1.437500e+02
1.500000e+02
1.562500e+02
1.625000e+02
1.687500e+02
1.750000e+02
1.812500e+02
1.875000e+02
1.937500e+02
2.000000e+02
0.000000e+00
6.250000e+00
1.250000e+01
1.875000e+01
2.500000e+01
3.125000e+01
3.750000e+01
4.375000e+01
5.000000e+01
5.625000e+01
6.250000e+01
6.875000e+01
7.500000e+01
8.125000e+01
8.750000e+01
9.375000e+01
1.000000e+02
1.062500e+02
1.125000e+02
1.187500e+02
1.250000e+02
1.312500e+02
1.375000e+02
1.437500e+02
1.500000e+02
1.562500e+02
1.625000e+02
1.687500e+02
1.750000e+02
1.812500e+02
1.875000e+02
1.937500e+02
2.000000e+02
0.000000e+00
6.250000e+00
1.250000e+01
1.875000e+01
2.500000e+01
3.125000e+01
3.750000e+01
4.375000e+01
5.000000e+01
5.625000e+01
6.250000e+01
6.875000e+01
7.500000e+01
8.125000e+01
8.750000e+01
9.375000e+01
1.000000e+02
1.062500e+02
1.125000e+02
1.187500e+02
1.250000e+02
1.312500e+02
1.375000e+02
1.437500e+02
1.500000e+02
1.562500e+02
1.625000e+02
1.687500e+02
1.750000e+02
1.812500e+02
1.875000e+02
1.937500e+02
2.000000e+02
0.000000e+00
6.250000e+00
1.250000e+01
1.875000e+01
2.500000e+01
3.125000e+01
3.750000e+01
4.375000e+01
5.000000e+01
5.625000e+01
6.250000e+01
6.875000e+01
7.500000e+01
8.125000e+01
8.750000e+01
9.375000e+01
1.000000e+02
1.062500e+02
1.125000e+02
1.187500e+02
1.250000e+02
1.312500e+02
1.375000e+02
1.437500e+02
1.500000e+02
1.562500e+02
1.625000e+02
1.687500e+02
1.750000e+02
1.812500e+02
1.875000e+02
1.937500e+02
2.000000e+02
0.000000e+00
0.000000e+00
0.000000e+00
0.000000e+00
0.000000e+00
0.000000e+00
0.000000e+00
0.000000e+00
0.000000e+00
0.000000e+00
0.000000e+00
0.000000e+00
0.000000e+00
0.000000e+00
0.000000e+00
0.000000e+00
0.000000e+00
0.000000e+00
0.000000e+00
0.000000e+00
0.000000e+00
0.000000e+00
0.000000e+00
0.000000e+00
0.000000e+00
0.000000e+00
0.000000e+00
0.000000e+00
0.000000e+00
0.000000e+00
0.000000e+00
0.000000e+00
0.000000e+00
6.250000e+00
6.250000e+00
6.250000e+00
6.250000e+00
6.250000e+00
6.250000e+00
6.250000e+00
6.250000e+00
6.250000e+00
6.250000e+00
6.250000e+00
6.250000e+00
6.250000e+00
6.250000e+00
6.250000e+00
6.250000e+00
6.250000e+00
6.250000e+00
6.250000e+00
6.250000e+00
6.250000e+00
6.250000e+00
6.250000e+00
6.250000e+00
6.250000e+00
6.250000e+00
6.250000e+00
6.250000e+00
6.250000e+00
6.250000e+00
6.250000e+00
6.250000e+00
6.250000e+00
1.250000e+01
1.250000e+01
1.250000e+01
1.250000e+01
1.250000e+01
1.250000e+01
1.250000e+01
1.250000e+01
1.250000e+01
1.250000e+01
1.250000e+01
1.250000e+01
1.250000e+01
1.250000e+01
1.250000e+01
1.250000e+01
1.250000e+01
1.250000e+01
1.250000e+01
1.250000e+01
1.250000e+01
1.250000e+01
1.250000e+01
1.250000e+01
1.250000e+01
1.250000e+01
1.250000e+01
1.250000e+01
1.250000e+01
1.250000e+01
1.250000e+01
1.250000e+01
1.250000e+01
1.875000e+01
1.875000e+01
1.875000e+01
1.875000e+01
1.875000e+01
1.875000e+01
1.875000e+01
1.875000e+01
1.875000e+01
1.875000e+01
1.875000e+01
1.875000e+01
1.875000e+01
1.875000e+01
1.875000e+01
1.875000e+01
1.875000e+01
1.875000e+01
1.875000e+01
1.875000e+01
1.875000e+01
1.875000e+01
1.875000e+01
1.875000e+01
1.875000e+01
1.875000e+01
1.875000e+01
1.875000e+01
1.875000e+01
1.875000e+01
1.875000e+01
1.875000e+01
1.875000e+01
2.500000e+01
2.500000e+01
2.500000e+01
2.500000e+01
2.500000e+01
2.500000e+01
2.500000e+01
2.500000e+01
2.500000e+01
2.500000e+01
2.500000e+01
2.500000e+01
2.500000e+01
2.500000e+01
2.500000e+01
2.500000e+01
2.500000e+01
2.500000e+01
2.500000e+01
2.500000e+01
2.500000e+01
2.500000e+01
2.500000e+01
2.500000e+01
2.500000e+01
2.500000e+01
2.500000e+01
2.500000e+01
2.500000e+01
2.500000e+01
2.500000e+01
2.500000e+01
2.500000e+01
3.125000e+01
3.125000e+01
3.125000e+01
3.125000e+01
3.125000e+01
3.125000e+01
3.125000e+01
3.125000e+01
3.125000e+01
3.125000e+01
3.125000e+01
3.125000e+01
3.125000e+01
3.125000e+01
3.125000e+01
3.125000e+01
3.125000e+01
3.125000e+01
3.125000e+01
3.125000e+01
3.125000e+01
3.125000e+01
3.125000e+01
3.125000e+01
3.125000e+01
3.125000e+01
3.125000e+01
3.125000e+01
3.125000e+01
3.125000e+01
3.125000e+01
3.125000e+01
3.125000e+01
3.750000e+01
3.750000e+01
3.750000e+01
3.750000e+01
3.750000e+01
3.750000e+01
3.750000e+01
3.750000e+01
3.750000e+01
3.750000e+01
3.750000e+01
3.750000e+01
3.750000e+01
3.750000e+01
3.750000e+01
3.750000e+01
3.750000e+01
3.750000e+01
3.750000e+01
3.750000e+01
3.750000e+01
3.750000e+01
3.750000e+01
3.750000e+01
3.750000e+01
3.750000e+01
3.750000e+01
3.750000e+01
3.750000e+01
3.750000e+01
3.750000e+01
3.750000e+01
3.750000e+01
4.375000e+01
4.375000e+01
4.375000e+01
4.375000e+01
4.375000e+01
4.375000e+01
4.375000e+01
4.375000e+01
4.375000e+01
4.375000e+01
4.375000e+01
4.375000e+01
4.375000e+01
4.375000e+01
4.375000e+01
4.375000e+01
4.375000e+01
4.375000e+01
4.375000e+01
4.375000e+01
4.375000e+01
4.375000e+01
4.375000e+01
4.375000e+01
4.375000e+01
4.375000e+01
4.375000e+01
4.375000e+01
4.375000e+01
4.375000e+01
4.375000e+01
4.375000e+01
4.375000e+01
5.000000e+01
5.000000e+01
5.000000e+01
5.000000e+01
5.000000e+01
5.000000e+01
5.000000e+01
5.000000e+01
5.000000e+01
5.000000e+01
5.000000e+01
5.000000e+01
5.000000e+01
5.000000e+01
5.000000e+01
5.000000e+01
5.000000e+01
5.000000e+01
5.000000e+01
5.000000e+01
5.000000e+01
5.000000e+01
5.000000e+01
5.000000e+01
5.000000e+01
5.000000e+01
5.000000e+01
5.000000e+01
5.000000e+01
5.000000e+01
5.000000e+01
5.000000e+01
5.000000e+01
5.625000e+01
5.625000e+01
5.625000e+01
5.625000e+01
5.625000e+01
5.625000e+01
5.625000e+01
5.625000e+01
5.625000e+01
5.625000e+01
5.625000e+01
5.625000e+01
5.625000e+01
5.625000e+01
5.625000e+01
5.625000e+01
5.625000e+01
5.625000e+01
5.625000e+01
5.625000e+01
5.625000e+01
5.625000e+01
5.625000e+01
5.625000e+01
5.625000e+01
5.625000e+01
5.625000e+01
5.625000e+01
5.625000e+01
5.625000e+01
5.625000e+01
5.625000e+01
5.625000e+01
6.250000e+01
6.250000e+01
6.250000e+01
6.250000e+01
6.250000e+01
6.250000e+01
6.250000e+01
6.250000e+01
6.250000e+01
6.250000e+01
6.250000e+01
6.250000e+01
6.250000e+01
6.250000e+01
6.250000e+01
6.250000e+01
6.250000e+01
6.250000e+01
6.250000e+01
6.250000e+01
6.250000e+01
6.250000e+01
6.250000e+01
6.250000e+01
6.250000e+01
6.250000e+01
6.250000e+01
6.250000e+01
6.250000e+01
6.250000e+01
6.250000e+01
6.250000e+01
6.250000e+01
6.875000e+01
6.875000e+01
6.875000e+01
6.875000e+01
6.875000e+01
6.875000e+01
6.875000e+01
6.875000e+01
6.875000e+01
6.875000e+01
6.875000e+01
6.875000e+01
6.875000e+01
6.875000e+01
6.875000e+01
6.875000e+01
6.875000e+01
6.875000e+01
6.875000e+01
6.875000e+01
6.875000e+01
6.875000e+01
6.875000e+01
6.875000e+01
6.875000e+01
6.875000e+01
6.875000e+01
6.875000e+01
6.875000e+01
6.875000e+01
6.875000e+01
6.875000e+01
6.875000e+01
7.500000e+01
7.500000e+01
7.500000e+01
7.500000e+01
7.500000e+01
7.500000e+01
7.500000e+01
7.500000e+01
7.500000e+01
7.500000e+01
7.500000e+01
7.500000e+01
7.500000e+01
7.500000e+01
7.500000e+01
7.500000e+01
7.500000e+01
7.500000e+01
7.500000e+01
7.500000e+01
7.500000e+01
7.500000e+01
7.500000e+01
7.500000e+01
7.500000e+01
7.500000e+01
7.500000e+01
7.500000e+01
7.500000e+01
7.500000e+01
7.500000e+01
7.500000e+01
7.500000e+01
8.125000e+01
8.125000e+01
8.125000e+01
8.125000e+01
8.125000e+01
8.125000e+01
8.125000e+01
8.125000e+01
8.125000e+01
8.125000e+01
8.125000e+01
8.125000e+01
8.125000e+01
8.125000e+01
8.125000e+01
8.125000e+01
8.125000e+01
8.125000e+01
8.125000e+01
8.125000e+01
8.125000e+01
8.125000e+01
8.125000e+01
8.125000e+01
8.125000e+01
8.125000e+01
8.125000e+01
8.125000e+01
8.125000e+01
8.125000e+01
8.125000e+01
8.125000e+01
8.125000e+01
8.750000e+01
8.750000e+01
8.750000e+01
8.750000e+01
8.750000e+01
8.750000e+01
8.750000e+01
8.750000e+01
8.750000e+01
8.750000e+01
8.750000e+01
8.750000e+01
8.750000e+01
8.750000e+01
8.750000e+01
8.750000e+01
8.750000e+01
8.750000e+01
8.750000e+01
8.750000e+01
8.750000e+01
8.750000e+01
8.750000e+01
8.750000e+01
8.750000e+01
8.750000e+01
8.750000e+01
8.750000e+01
8.750000e+01
8.750000e+01
8.750000e+01
8.750000e+01
8.750000e+01
9.375000e+01
9.375000e+01
9.375000e+01
9.375000e+01
9.375000e+01
9.375000e+01
9.375000e+01
9.375000e+01
9.375000e+01
9.375000e+01
9.375000e+01
9.375000e+01
9.375000e+01
9.375000e+01
9.375000e+01
9.375000e+01
9.375000e+01
9.375000e+01
9.375000e+01
9.375000e+01
9.375000e+01
9.375000e+01
9.375000e+01
9.375000e+01
9.375000e+01
9.375000e+01
9.375000e+01
9.375000e+01
9.375000e+01
9.375000e+01
9.375000e+01
9.375000e+01
9.375000e+01
1.000000e+02
1.000000e+02
1.000000e+02
1.000000e+02
1.000000e+02
1.000000e+02
1.000000e+02
1.000000e+02
1.000000e+02
1.000000e+02
1.000000e+02
1.000000e+02
1.000000e+02
1.000000e+02
1.000000e+02
1.000000e+02
1.000000e+02
1.000000e+02
1.000000e+02
1.000000e+02
1.000000e+02
1.000000e+02
1.000000e+02
1.000000e+02
1.000000e+02
1.000000e+02
1.000000e+02
1.000000e+02
1.000000e+02
1.000000e+02
1.000000e+02
1.000000e+02
1.000000e+02
0.000000e+00
-3.986902e-02
-7.233704e-02
-1.024141e-01
-1.312795e-01
-1.591535e-01
-1.860920e-01
-2.120926e-01
-2.371389e-01
-2.612127e-01
-2.842989e-01
-3.063871e-01
-3.274720e-01
-3.475530e-01
-3.666349e-01
-3.847278e-01
-4.018478e-01
-4.180184e-01
-4.332723e-01
-4.476532e-01
-4.612197e-01
-4.740491e-01
-4.862435e-01
-4.979386e-01
-5.093161e-01
-5.206228e-01
-5.322015e-01
-5.445413e-01
-5.583594e-01
-5.747115e-01
-5.949668e-01
-6.191056e-01
-6.338372e-01
0.000000e+00
-2.673111e-02
-5.561694e-02
-8.285247e-02
-1.087388e-01
-1.335224e-01
-1.573341e-01
-1.802315e-01
-2.022372e-01
-2.233586e-01
-2.435972e-01
-2.629530e-01
-2.814269e-01
-2.990219e-01
-3.157439e-01
-3.316020e-01
-3.466099e-01
-3.607861e-01
-3.741550e-01
-3.867487e-01
-3.986079e-01
-4.097838e-01
-4.203401e-01
-4.303546e-01
-4.399205e-01
-4.491448e-01
-4.581406e-01
-4.670010e-01
-4.757252e-01
-4.840295e-01
-4.909492e-01
-4.949948e-01
-5.006270e-01
0.000000e+00
-2.120318e-02
-4.365185e-02
-6.650815e-02
-8.871741e-02
-1.101082e-01
-1.306669e-01
-1.504129e-01
-1.693638e-01
-1.875314e-01
-2.049235e-01
-2.215455e-01
-2.374020e-01
-2.524977e-01
-2.668381e-01
-2.804303e-01
-2.932831e-01
-3.054075e-01
-3.168172e-01
-3.275284e-01
-3.375600e-01
-3.469321e-01
-3.556647e-01
-3.637734e-01
-3.712613e-01
-3.781044e-01
-3.842245e-01
-3.894413e-01
-3.934022e-01
-3.955350e-01
-3.953480e-01
-3.941504e-01
-4.007272e-01
0.000000e+00
-1.682284e-02
-3.457478e-02
-5.281267e-02
-7.100783e-02
-8.876225e-02
-1.059239e-01
-1.224382e-01
-1.382905e-01
-1.534801e-01
-1.680108e-01
-1.818876e-01
-1.951152e-01
-2.076977e-01
-2.196387e-01
-2.309418e-01
-2.416099e-01
-2.516459e-01
-2.610517e-01
-2.698280e-01
-2.779724e-01
-2.854775e-01
-2.923267e-01
-2.984881e-01
-3.039048e-01
-3.084812e-01
-3.120658e-01
-3.144396e-01
-3.153459e-01
-3.146731e-01
-3.130389e-01
-3.129414e-01
-3.192075e-01
0.000000e+00
-1.305687e-02
-2.673603e-02
-4.085215e-02
-5.508296e-02
-6.913922e-02
-8.282700e-02
-9.604809e-02
-1.087579e-01
-1.209391e-01
-1.325874e-01
-1.437033e-01
-1.542890e-01
-1.643461e-01
-1.738754e-01
-1.828760e-01
-1.913451e-01
-1.992775e-01
-2.066652e-01
-2.134957e-01
-2.197507e-01
-2.254033e-01
-2.304151e-01
-2.347309e-01
-2.382744e-01
-2.409453e-01
-2.426261e-01
-2.432157e-01
-2.427320e-01
-2.415485e-01
-2.407806e-01
-2.425538e-01
-2.478990e-01
0.000000e+00
-9.596043e-03
-1.960322e-02
-2.993189e-02
-4.040359e-02
-5.082286e-02
-6.103450e-02
-7.093764e-02
-8.047693e-02
-8.962544e-02
-9.837181e-02
-1.067120e-01
-1.146447e-01
-1.221684e-01
-1.292802e-01
-1.359752e-01
-1.422453e-01
-1.480791e-01
-1.534609e-01
-1.583695e-01
-1.627773e-01
-1.666487e-01
-1.699382e-01
-1.725909e-01
-1.745436e-01
-1.757351e-01
-1.761304e-01
-1.757756e-01
-1.749013e-01
-1.740694e-01
-1.742720e-01
-1.765324e-01
-1.809552e-01
0.000000e+00
-6.315350e-03
-1.288050e-02
-1.965392e-02
-2.653901e-02
-3.341988e-02
-4.019277e-02
-4.678203e-02
-5.314033e-02
-5.924155e-02
-6.507248e-02
-7.062651e-02
-7.589936e-02
-8.088665e-02
-8.558237e-02
-8.997792e-02
-9.406145e-02
-9.781726e-02
-1.012252e-01
-1.042602e-01
-1.068917e-01
-1.090840e-01
-1.107974e-01
-1.119914e-01
-1.126329e-01
-1.127125e-01
-1.122738e-01
-1.114622e-01
-1.105863e-01
-1.101618e-01
-1.108242e-01
-1.130249e-01
-1.165951e-01
0.000000e+00
-3.136832e-03
-6.392255e-03
-9.749536e-03
-1.316628e-02
-1.658849e-02
-1.996494e-02
-2.325550e-02
-2.643307e-02
-2.948110e-02
-3.238978e-02
-3.515263e-02
-3.776398e-02
-4.021737e-02
-4.250444e-02
-4.461419e-02
-4.653248e-02
-4.824159e-02
-4.972005e-02
-5.094267e-02
-5.188120e-02
-5.250591e-02
-5.278890e-02
-5.271019e-02
-5.226823e-02
-5.149674e-02
-5.048910e-02
-4.942737e-02
-4.860316e-02
-4.839670e-02
-4.917385e-02
-5.109372e-02
-5.392659e-02
0.000000e+00
-5.060964e-06
-1.097361e-05
-1.741040e-05
-2.403274e-05
-3.038413e-05
-3.577657e-05
-3.916456e-05
-3.899783e-05
-3.304402e-05
-1.817471e-05
9.889174e-06
5.687194e-05
1.302714e-04
2.397052e-04
3.972444e-04
6.176845e-04
9.186671e-04
1.320524e-03
1.845637e-03
2.517019e-03
3.355674e-03
4.376150e-03
5.579553e-03
6.943340e-03
8.407772e-03
9.860727e-03
1.112659e-02
1.197161e-02
1.214297e-02
1.145298e-02
9.890359e-03
7.701831e-03
0.000000e+00
3.127300e-03
6.371544e-03
9.716610e-03
1.312072e-02
1.653073e-02
1.989667e-02
2.318037e-02
2.635763e-02
2.941606e-02
3.235172e-02
3.516615e-02
3.786446e-02
4.045430e-02
4.294546e-02
4.534976e-02
4.768109e-02
4.995529e-02
5.218969e-02
5.440216e-02
5.660921e-02
5.882301e-02
6.104672e-02
6.326797e-02
6.545068e-02
6.752595e-02
6.938517e-02
7.088053e-02
7.184135e-02
7.211337e-02
7.162072e-02
7.043368e-02
6.880936e-02
0.000000e+00
6.307563e-03
1.286346e-02
1.962664e-02
2.650097e-02
3.337121e-02
4.013457e-02
4.671696e-02
5.307335e-02
5.918096e-02
6.503132e-02
7.062432e-02
7.596448e-02
8.105899e-02
8.591678e-02
9.054822e-02
9.496489e-02
9.917939e-02
1.032048e-01
1.070536e-01
1.107357e-01
1.142559e-01
1.176093e-01
1.207766e-01
1.237179e-01
1.263681e-01
1.286350e-01
1.304056e-01
1.315644e-01
1.320277e-01
1.317895e-01
1.309681e-01
1.298344e-01
0.000000e+00
9.591076e-03
1.959215e-02
2.991387e-02
4.037801e-02
5.078946e-02
6.099363e-02
7.089060e-02
8.042644e-02
8.957633e-02
9.833191e-02
1.066934e-01
1.146650e-01
1.222530e-01
1.294646e-01
1.363072e-01
1.427892e-01
1.489185e-01
1.547032e-01
1.601499e-01
1.652624e-01
1.700395e-01
1.744720e-01
1.785389e-01
1.822043e-01
1.854150e-01
1.881018e-01
1.901870e-01
1.916011e-01
1.923097e-01
1.923495e-01
1.918677e-01
1.911512e-01
0.000000e+00
1.305564e-02
2.673294e-02
4.084663e-02
5.507442e-02
6.912718e-02
8.281115e-02
9.602841e-02
1.087347e-01
1.209136e-01
1.325614e-01
1.436803e-01
1.542741e-01
1.643473e-01
1.739042e-01
1.829487e-01
1.914841e-01
1.995133e-01
2.070382e-01
2.140591e-01
2.205740e-01
2.265769e-01
2.320562e-01
2.369929e-01
2.413593e-01
2.451188e-01
2.482284e-01
2.506451e-01
2.523388e-01
2.533119e-01
2.536275e-01
2.534466e-01
2.530692e-01
0.000000e+00
1.682597e-02
3.458113e-02
5.282212e-02
7.102011e-02
8.877701e-02
1.059406e-01
1.224561e-01
1.383082e-01
1.534953e-01
1.680204e-01
1.818867e-01
1.950968e-01
2.076522e-01
2.195532e-01
2.307987e-01
2.413866e-01
2.513135e-01
2.605745e-01
2.691630e-01
2.770703e-01
2.842855e-01
2.907948e-01
2.965817e-01
3.016279e-01
3.059144e-01
3.094252e-01
3.121523e-01
3.141041e-01
3.153170e-01
3.158750e-01
3.159415e-01
3.158162e-01
0.000000e+00
2.121081e-02
4.366813e-02
6.653366e-02
8.875262e-02
1.101535e-01
1.307224e-01
1.504780e-01
1.694366e-01
1.876082e-01
2.049976e-01
2.216064e-01
2.374333e-01
2.524754e-01
2.667279e-01
2.801844e-01
2.928366e-01
3.046742e-01
3.156847e-01
3.258534e-01
3.351636e-01
3.435972e-01
3.511359e-01
3.577627e-01
3.634652e-01
3.682389e-01
3.720925e-01
3.750532e-01
3.771722e-01
3.785293e-01
3.792397e-01
3.794710e-01
3.794986e-01
0.000000e+00
2.674256e-02
5.564196e-02
8.289272e-02
1.087962e-01
1.335990e-01
1.574316e-01
1.803507e-01
2.023777e-01
2.235177e-01
2.437682e-01
2.631237e-01
2.815770e-01
2.991195e-01
3.157413e-01
3.314306e-01
3.461730e-01
3.599513e-01
3.727446e-01
3.845290e-01
3.952772e-01
4.049602e-01
4.135495e-01
4.210204e-01
4.273575e-01
4.325610e-01
4.366557e-01
4.396990e-01
4.417897e-01
4.430707e-01
4.437251e-01
4.439624e-01
4.440205e-01
0.000000e+00
3.988156e-02
7.236629e-02
1.024642e-01
1.313546e-01
1.592575e-01
1.862293e-01
2.122671e-01
2.373538e-01
2.614694e-01
2.845951e-01
3.067151e-01
3.278150e-01
3.478813e-01
3.669001e-01
3.848555e-01
4.017284e-01
4.174953e-01
4.321274e-01
4.455899e-01
4.578425e-01
4.688399e-01
4.785349e-01
4.868833e-01
4.938503e-01
4.994221e-01
5.036184e-01
5.065093e-01
5.082323e-01
5.090087e-01
5.091498e-01
5.090329e-01
5.089671e-01
0.000000e+00
-2.463829e-02
-4.299914e-02
-6.303524e-02
-8.534663e-02
-1.105496e-01
-1.388192e-01
-1.702047e-01
-2.046747e-01
-2.421555e-01
-2.825476e-01
-3.257367e-01
-3.715996e-01
-4.200081e-01
-4.708311e-01
-5.239368e-01
-5.791942e-01
-6.364746e-01
-6.956534e-01
-7.566136e-01
-8.192489e-01
-8.834703e-01
-9.492139e-01
-1.016454e+00
-1.085225e+00
-1.155654e+00
-1.228020e+00
-1.302870e+00
-1.381249e+00
-1.465226e+00
-1.559265e+00
-1.673898e+00
-1.832267e+00
0.000000e+00
-1.531176e-02
-3.453073e-02
-5.470199e-02
-7.732436e-02
-1.028011e-01
-1.313454e-01
-1.630056e-01
-1.977531e-01
-2.355140e-01
-2.761884e-01
-3.196611e-01
-3.658078e-01
-4.144990e-01
-4.656028e-01
-5.189858e-01
-5.745155e-01
-6.320611e-01
-6.914959e-01
-7.526997e-01
-8.155628e-01
-8.799912e-01
-9.459154e-01
-1.013303e+00
-1.082177e+00
-1.152655e+00
-1.225002e+00
-1.299746e+00
-1.377911e+00
-1.461532e+00
-1.554844e+00
-1.666926e+00
-1.814883e+00
0.000000e+00
-1.124737e-02
-2.783850e-02
-4.773460e-02
-7.039650e-02
-9.606099e-02
-1.248306e-01
-1.567321e-01
-1.917270e-01
-2.297381e-01
-2.706636e-01
-3.143876e-01
-3.607850e-01
-4.097261e-01
-4.610782e-01
-5.147078e-01
-5.704813e-01
-6.282675e-01
-6.879387e-01
-7.493737e-01
-8.124619e-01
-8.771086e-01
-9.432440e-01
-1.010836e+00
-1.079913e+00
-1.150596e+00
-1.223163e+00
-1.298156e+00
-1.376587e+00
-1.460286e+00
-1.552384e+00
-1.656581e+00
-1.772165e+00
0.000000e+00
-9.006417e-03
-2.357360e-02
-4.240873e-02
-6.477939e-02
-9.043591e-02
-1.193286e-01
-1.514088e-01
-1.866074e-01
-2.248328e-01
-2.659770e-01
-3.099210e-01
-3.565388e-01
-4.057003e-01
-4.572732e-01
-5.111239e-01
-5.671197e-01
-6.251295e-01
-6.850266e-01
-7.466907e-01
-8.100125e-01
-8.748999e-01
-9.412863e-01
-1.009145e+00
-1.078510e+00
-1.149510e+00
-1.222419e+00
-1.297737e+00
-1.376291e+00
-1.459288e+00
-1.547884e+00
-1.641325e+00
-1.728309e+00
0.000000e+00
-7.620910e-03
-2.078450e-02
-3.862674e-02
-6.048744e-02
-8.597574e-02
-1.148793e-01
-1.470637e-01
-1.824128e-01
-2.208108e-01
-2.621379e-01
-3.062694e-01
-3.530772e-01
-4.024307e-01
-4.541981e-01
-5.082469e-01
-5.644455e-01
-6.226645e-01
-6.827787e-01
-7.446700e-01
-8.082315e-01
-8.733738e-01
-9.400333e-01
-1.008185e+00
-1.077861e+00
-1.149172e+00
-1.222344e+00
-1.297736e+00
-1.375823e+00
-1.456988e+00
-1.540846e+00
-1.624316e+00
-1.700070e+00
0.000000e+00
-6.739299e-03
-1.895450e-02
-3.602413e-02
-5.739274e-02
-8.264229e-02
-1.114830e-01
-1.437086e-01
-1.791567e-01
-2.176841e-01
-2.591560e-01
-3.034405e-01
-3.504064e-01
-3.999225e-01
-4.518574e-01
-5.060802e-01
-5.624609e-01
-6.208720e-01
-6.811903e-01
-7.432997e-01
-8.070948e-01
-8.724865e-01
-9.394095e-01
-1.007831e+00
-1.077764e+00
-1.149276e+00
-1.222491e+00
-1.297570e+00
-1.374598e+00
-1.453315e+00
-1.532523e+00
-1.609391e+00
-1.679648e+00
0.000000e+00
-6.191388e-03
-1.779749e-02
-3.433238e-02
-5.531952e-02
-8.035149e-02
-1.091066e-01
-1.413362e-01
-1.768427e-01
-2.154597e-01
-2.570385e-01
-3.014399e-01
-3.485298e-01
-3.981765e-01
-4.502492e-01
-5.046186e-01
-5.611564e-01
-6.197370e-01
-6.802385e-01
-7.425454e-01
-8.065516e-01
-8.721645e-01
-9.393098e-01
-1.007937e+00
-1.078022e+00
-1.149567e+00
-1.222577e+00
-1.297012e+00
-1.372655e+00
-1.448893e+00
-1.524404e+00
-1.597014e+00
-1.664053e+00
0.000000e+00
-5.890303e-03
-1.715549e-02
-3.337905e-02
-5.413071e-02
-7.901711e-02
-1.077062e-01
-1.399288e-01
-1.754669e-01
-2.141393e-01
-2.557880e-01
-3.002692e-01
-3.474467e-01
-3.971889e-01
-4.493660e-01
-5.038501e-01
-5.605144e-01
-6.192343e-01
-6.798886e-01
-7.423603e-01
-8.065397e-01
-8.723260e-01
-9.396295e-01
-1.008373e+00
-1.078487e+00
-1.149899e+00
-1.222505e+00
-1.296107e+00
-1.370311e+00
-1.444388e+00
-1.517149e+00
-1.586955e+00
-1.651986e+00
0.000000e+00
-5.793294e-03
-1.694836e-02
-3.307006e-02
-5.374326e-02
-7.858039e-02
-1.072475e-01
-1.394696e-01
-1.750227e-01
-2.137209e-01
-2.554038e-01
-2.999263e-01
-3.471528e-01
-3.969521e-01
-4.491960e-01
-5.037577e-01
-5.605115e-01
-6.193334e-01
-6.801009e-01
-7.426943e-01
-8.069970e-01
-8.728964e-01
-9.402834e-01
-1.009049e+00
-1.079077e+00
-1.150228e+00
-1.222309e+00
-1.295023e+00
-1.367900e+00
-1.440222e+00
-1.510982e+00
-1.578932e+00
-1.642738e+00
0.000000e+00
-5.887497e-03
-1.715159e-02
-3.337569e-02
-5.412969e-02
-7.902067e-02
-1.077173e-01
-1.399512e-01
-1.755060e-01
-2.142017e-01
-2.558824e-01
-3.004066e-01
-3.476407e-01
-3.974557e-01
-4.497247e-01
-5.043222e-01
-5.611231e-01
-6.200028e-01
-6.808367e-01
-7.435006e-01
-8.078696e-01
-8.738171e-01
-9.412125e-01
-1.009915e+00
-1.079767e+00
-1.150573e+00
-1.222081e+00
-1.293941e+00
-1.365670e+00
-1.436615e+00
-1.505946e+00
-1.572695e+00
-1.635845e+00
0.000000e+00
-6.186003e-03
-1.779002e-02
-3.432592e-02
-5.531749e-02
-8.035817e-02
-1.091276e-01
-1.413791e-01
-1.769174e-01
-2.155791e-01
-2.572193e-01
-3.017032e-01
-3.489016e-01
-3.986881e-01
-4.509374e-01
-5.055249e-01
-5.623255e-01
-6.212135e-01
-6.820618e-01
-7.447405e-01
-8.091158e-01
-8.750468e-01
-9.423823e-01
-1.010954e+00
-1.080567e+00
-1.150988e+00
-1.221927e+00
-1.293014e+00
-1.363786e+00
-1.433670e+00
-1.501995e+00
-1.568017e+00
-1.630953e+00
0.000000e+00
-6.731815e-03
-1.894411e-02
-3.601510e-02
-5.738982e-02
-8.265144e-02
-1.115121e-01
-1.437682e-01
-1.792605e-01
-2.178505e-01
-2.594083e-01
-3.038083e-01
-3.509260e-01
-4.006380e-01
-4.528204e-01
-5.073490e-01
-5.640987e-01
-6.229422e-01
-6.837493e-01
-7.463848e-01
-8.107062e-01
-8.765599e-01
-9.437767e-01
-1.012165e+00
-1.081504e+00
-1.151531e+00
-1.221937e+00
-1.292350e+00
-1.362339e+00
-1.431415e+00
-1.499046e+00
-1.564680e+00
-1.627745e+00
0.000000e+00
-7.612093e-03
-2.077227e-02
-3.861610e-02
-6.048406e-02
-8.598682e-02
-1.149144e-01
-1.471356e-01
-1.825382e-01
-2.210118e-01
-2.624428e-01
-3.067139e-01
-3.537056e-01
-4.032963e-01
-4.553633e-01
-5.097828e-01
-5.664287e-01
-6.251726e-01
-6.858813e-01
-7.484149e-01
-8.126236e-01
-8.783434e-01
-9.453912e-01
-1.013558e+00
-1.082604e+00
-1.152250e+00
-1.222175e+00
-1.292015e+00
-1.361372e+00
-1.429832e+00
-1.496988e+00
-1.562464e+00
-1.625910e+00
0.000000e+00
-8.997356e-03
-2.356105e-02
-4.239792e-02
-6.477649e-02
-9.044892e-02
-1.193681e-01
-1.514890e-01
-1.867469e-01
-2.250559e-01
-2.663150e-01
-3.104133e-01
-3.572342e-01
-4.066575e-01
-4.585610e-01
-5.128205e-01
-5.693094e-01
-6.278978e-01
-6.884502e-01
-7.508231e-01
-8.148615e-01
-8.803939e-01
-9.472278e-01
-1.015143e+00
-1.083888e+00
-1.153172e+00
-1.222672e+00
-1.292033e+00
-1.360884e+00
-1.428872e+00
-1.495694e+00
-1.561141e+00
-1.625110e+00
0.000000e+00
-1.123947e-02
-2.782751e-02
-4.772547e-02
-7.039563e-02
-9.607682e-02
-1.248743e-01
-1.568183e-01
-1.918752e-01
-2.299735e-01
-2.710185e-01
-3.149025e-01
-3.615102e-01
-4.107217e-01
-4.624147e-01
-5.164645e-01
-5.727437e-01
-6.311213e-01
-6.914600e-01
-7.536140e-01
-8.174247e-01
-8.827167e-01
-9.492919e-01
-1.016925e+00
-1.085357e+00
-1.154298e+00
-1.223421e+00
-1.292381e+00
-1.360829e+00
-1.428451e+00
-1.495023e+00
-1.560476e+00
-1.624970e+00
0.000000e+00
-1.530669e-02
-3.452325e-02
-5.469662e-02
-7.732769e-02
-1.028217e-01
-1.313946e-01
-1.630982e-01
-1.979083e-01
-2.357569e-01
-2.765509e-01
-3.201829e-01
-3.665378e-01
-4.154956e-01
-4.669335e-01
-5.207260e-01
-5.767452e-01
-6.348588e-01
-6.949282e-01
-7.568059e-01
-8.203317e-01
-8.853281e-01
-9.515952e-01
-1.018906e+00
-1.087004e+00
-1.155597e+00
-1.224368e+00
-1.292978e+00
-1.361096e+00
-1.428432e+00
-1.494804e+00
-1.560236e+00
-1.625089e+00
0.000000e+00
-2.463757e-02
-4.299665e-02
-6.303572e-02
-8.535670e-02
-1.105779e-01
-1.388770e-01
-1.703067e-01
-2.048398e-01
-2.424080e-01
-2.829181e-01
-3.262633e-01
-3.723282e-01
-4.209929e-01
-4.721341e-01
-5.256258e-01
-5.813387e-01
-6.391394e-01
-6.988878e-01
-7.604350e-01
-8.236191e-01
-8.882617e-01
-9.541627e-01