TITLE = "Solution"
VARIABLES = x, y, u, v, psiu, psiv, t, stress
ZONE T="structure" N=561 E=512 F=FEBLOCK ET=QUADRILATERAL VARLOCATION=([7,8]=cellcentered)
0.000000e+00
6.250000e+00
1.250000e+01
1.875000e+01
2.500000e+01
3.125000e+01
3.750000e+01
4.375000e+01
5.000000e+01
5.625000e+01
6.250000e+01
6.875000e+01
7.500000e+01
8.125000e+01
8.750000e+01
9.375000e+01
1.000000e+02
1.062500e+02
1.125000e+02
1.187500e+02
1.250000e+02
1.312500e+02
1.375000e+02
1.437500e+02
1.500000e+02
1.562500e+02
1.625000e+02
1.687500e+02
1.750000e+02
1.812500e+02
1.875000e+02
1.937500e+02
2.000000e+02
0.000000e+00
6.250000e+00
1.250000e+01
1.875000e+01
2.500000e+01
3.125000e+01
3.750000e+01
4.375000e+01
5.000000e+01
5.625000e+01
6.250000e+01
6.875000e+01
7.500000e+01
8.125000e+01
8.750000e+01
9.375000e+01
1.000000e+02
1.062500e+02
1.125000e+02
1.187500e+02
1.250000e+02
1.312500e+02
1.375000e+02
1.437500e+02
1.500000e+02
1.562500e+02
1.625000e+02
1.687500e+02
1.750000e+02
1.812500e+02
1.875000e+02
1.937500e+02
2.000000e+02
0.000000e+00
6.250000e+00
1.250000e+01
1.875000e+01
2.500000e+01
3.125000e+01
3.750000e+01
4.375000e+01
5.000000e+01
5.625000e+01
6.250000e+01
6.875000e+01
7.500000e+01
8.125000e+01
8.750000e+01
9.375000e+01
1.000000e+02
1.062500e+02
1.125000e+02
1.187500e+02
1.250000e+02
1.312500e+02
1.375000e+02
1.437500e+02
1.500000e+02
1.562500e+02
1.625000e+02
1.687500e+02
1.750000e+02
1.812500e+02
1.875000e+02
1.937500e+02
2.000000e+02
0.000000e+00
6.250000e+00
1.250000e+01
1.875000e+01
2.500000e+01
3.125000e+01
3.750000e+01
4.375000e+01
5.000000e+01
5.625000e+01
6.250000e+01
6.875000e+01
7.500000e+01
8.125000e+01
8.750000e+01
9.375000e+01
1.000000e+02
1.062500e+02
1.125000e+02
1.187500e+02
1.250000e+02
1.312500e+02
1.375000e+02
1.437500e+02
1.500000e+02
1.562500e+02
1.625000e+02
1.687500e+02
1.750000e+02
1.812500e+02
1.875000e+02
1.937500e+02
2.000000e+02
0.000000e+00
6.250000e+00
1.250000e+01
1.875000e+01
2.500000e+01
3.125000e+01
3.750000e+01
4.375000e+01
5.000000e+01
5.625000e+01
6.250000e+01
6.875000e+01
7.500000e+01
8.125000e+01
8.750000e+01
9.375000e+01
1.000000e+02
1.062500e+02
1.125000e+02
1.187500e+02
1.250000e+02
1.312500e+02
1.375000e+02
1.437500e+02
1.500000e+02
1.562500e+02
1.625000e+02
1.687500e+02
1.750000e+02
1.812500e+02
1.875000e+02
1.937500e+02
2.000000e+02
0.000000e+00
6.250000e+00
1.250000e+01
1.875000e+01
2.500000e+01
3.125000e+01
3.750000e+01
4.375000e+01
5.000000e+01
5.625000e+01
6.250000e+01
6.875000e+01
7.500000e+01
8.125000e+01
8.750000e+01
9.375000e+01
1.000000e+02
1.062500e+02
1.125000e+02
1.187500e+02
1.250000e+02
1.312500e+02
1.375000e+02
1.437500e+02
1.500000e+02
1.562500e+02
1.625000e+02
1.687500e+02
1.750000e+02
1.812500e+02
1.875000e+02
1.937500e+02
2.000000e+02
0.000000e+00
6.250000e+00
1.250000e+01
1.875000e+01
2.500000e+01
3.125000e+01
3.750000e+01
4.375000e+01
5.000000e+01
5.625000e+01
6.250000e+01
6.875000e+01
7.500000e+01
8.125000e+01
8.750000e+01
9.375000e+01
1.000000e+02
1.062500e+02
1.125000e+02
1.187500e+02
1.250000e+02
1.312500e+02
1.375000e+02
1.437500e+02
1.500000e+02
1.562500e+02
1.625000e+02
1.687500e+02
1.750000e+02
1.812500e+02
1.875000e+02
1.937500e+02
2.000000e+02
0.000000e+00
6.250000e+00
1.250000e+01
1.875000e+01
2.500000e+01
3.125000e+01
3.750000e+01
4.375000e+01
5.000000e+01
5.625000e+01
6.250000e+01
6.875000e+01
7.500000e+01
8.125000e+01
8.750000e+01
9.375000e+01
1.000000e+02
1.062500e+02
1.125000e+02
1.187500e+02
1.250000e+02
1.312500e+02
1.375000e+02
1.437500e+02
1.500000e+02
1.562500e+02
1.625000e+02
1.687500e+02
1.750000e+02
1.812500e+02
1.875000e+02
1.937500e+02
2.000000e+02
0.000000e+00
6.250000e+00
1.250000e+01
1.875000e+01
2.500000e+01
3.125000e+01
3.750000e+01
4.375000e+01
5.000000e+01
5.625000e+01
6.250000e+01
6.875000e+01
7.500000e+01
8.125000e+01
8.750000e+01
9.375000e+01
1.000000e+02
1.062500e+02
1.125000e+02
1.187500e+02
1.250000e+02
1.312500e+02
1.375000e+02
1.437500e+02
1.500000e+02
1.562500e+02
1.625000e+02
1.687500e+02
1.750000e+02
1.812500e+02
1.875000e+02
1.937500e+02
2.000000e+02
0.000000e+00
6.250000e+00
1.250000e+01
1.875000e+01
2.500000e+01
3.125000e+01
3.750000e+01
4.375000e+01
5.000000e+01
5.625000e+01
6.250000e+01
6.875000e+01
7.500000e+01
8.125000e+01
8.750000e+01
9.375000e+01
1.000000e+02
1.062500e+02
1.125000e+02
1.187500e+02
1.250000e+02
1.312500e+02
1.375000e+02
1.437500e+02
1.500000e+02
1.562500e+02
1.625000e+02
1.687500e+02
1.750000e+02
1.812500e+02
1.875000e+02
1.937500e+02
2.000000e+02
0.000000e+00
6.250000e+00
1.250000e+01
1.875000e+01
2.500000e+01
3.125000e+01
3.750000e+01
4.375000e+01
5.000000e+01
5.625000e+01
6.250000e+01
6.875000e+01
7.500000e+01
8.125000e+01
8.750000e+01
9.375000e+01
1.000000e+02
1.062500e+02
1.125000e+02
1.187500e+02
1.250000e+02
1.312500e+02
1.375000e+02
1.437500e+02
1.500000e+02
1.562500e+02
1.625000e+02
1.687500e+02
1.750000e+02
1.812500e+02
1.875000e+02
1.937500e+02
2.000000e+02
0.000000e+00
6.250000e+00
1.250000e+01
1.875000e+01
2.500000e+01
3.125000e+01
3.750000e+01
4.375000e+01
5.000000e+01
5.625000e+01
6.250000e+01
6.875000e+01
7.500000e+01
8.125000e+01
8.750000e+01
9.375000e+01
1.000000e+02
1.062500e+02
1.125000e+02
1.187500e+02
1.250000e+02
1.312500e+02
1.375000e+02
1.437500e+02
1.500000e+02
1.562500e+02
1.625000e+02
1.687500e+02
1.750000e+02
1.812500e+02
1.875000e+02
1.937500e+02
2.000000e+02
0.000000e+00
6.250000e+00
1.250000e+01
1.875000e+01
2.500000e+01
3.125000e+01
3.750000e+01
4.375000e+01
5.000000e+01
5.625000e+01
6.250000e+01
6.875000e+01
7.500000e+01
8.125000e+01
8.750000e+01
9.375000e+01
1.000000e+02
1.062500e+02
1.125000e+02
1.187500e+02
1.250000e+02
1.312500e+02
1.375000e+02
1.437500e+02
1.500000e+02
1.562500e+02
1.625000e+02
1.687500e+02
1.750000e+02
1.812500e+02
1.875000e+02
1.937500e+02
2.000000e+02
0.000000e+00
6.250000e+00
1.250000e+01
1.875000e+01
2.500000e+01
3.125000e+01
3.750000e+01
4.375000e+01
5.000000e+01
5.625000e+01
6.250000e+01
6.875000e+01
7.500000e+01
8.125000e+01
8.750000e+01
9.375000e+01
1.000000e+02
1.062500e+02
1.125000e+02
1.187500e+02
1.250000e+02
1.312500e+02
1.375000e+02
1.437500e+02
1.500000e+02
1.562500e+02
1.625000e+02
1.687500e+02
1.750000e+02
1.812500e+02
1.875000e+02
1.937500e+02
2.000000e+02
0.000000e+00
6.250000e+00
1.250000e+01
1.875000e+01
2.500000e+01
3.125000e+01
3.750000e+01
4.375000e+01
5.000000e+01
5.625000e+01
6.250000e+01
6.875000e+01
7.500000e+01
8.125000e+01
8.750000e+01
9.375000e+01
1.000000e+02
1.062500e+02
1.125000e+02
1.187500e+02
1.250000e+02
1.312500e+02
1.375000e+02
1.437500e+02
1.500000e+02
1.562500e+02
1.625000e+02
1.687500e+02
1.750000e+02
1.812500e+02
1.875000e+02
1.937500e+02
2.000000e+02
0.000000e+00
6.250000e+00
1.250000e+01
1.875000e+01
2.500000e+01
3.125000e+01
3.750000e+01
4.375000e+01
5.000000e+01
5.625000e+01
6.250000e+01
6.875000e+01
7.500000e+01
8.125000e+01
8.750000e+01
9.375000e+01
1.000000e+02
1.062500e+02
1.125000e+02
1.187500e+02
1.250000e+02
1.312500e+02
1.375000e+02
1.437500e+02
1.500000e+02
1.562500e+02
1.625000e+02
1.687500e+02
1.750000e+02
1.812500e+02
1.875000e+02
1.937500e+02
2.000000e+02
0.000000e+00
6.250000e+00
1.250000e+01
1.875000e+01
2.500000e+01
3.125000e+01
3.750000e+01
4.375000e+01
5.000000e+01
5.625000e+01
6.250000e+01
6.875000e+01
7.500000e+01
8.125000e+01
8.750000e+01
9.375000e+01
1.000000e+02
1.062500e+02
1.125000e+02
1.187500e+02
1.250000e+02
1.312500e+02
1.375000e+02
1.437500e+02
1.500000e+02
1.562500e+02
1.625000e+02
1.687500e+02
1.750000e+02
1.812500e+02
1.875000e+02
1.937500e+02
2.000000e+02
0.000000e+00
0.000000e+00
0.000000e+00
0.000000e+00
0.000000e+00
0.000000e+00
0.000000e+00
0.000000e+00
0.000000e+00
0.000000e+00
0.000000e+00
0.000000e+00
0.000000e+00
0.000000e+00
0.000000e+00
0.000000e+00
0.000000e+00
0.000000e+00
0.000000e+00
0.000000e+00
0.000000e+00
0.000000e+00
0.000000e+00
0.000000e+00
0.000000e+00
0.000000e+00
0.000000e+00
0.000000e+00
0.000000e+00
0.000000e+00
0.000000e+00
0.000000e+00
0.000000e+00
6.250000e+00
6.250000e+00
6.250000e+00
6.250000e+00
6.250000e+00
6.250000e+00
6.250000e+00
6.250000e+00
6.250000e+00
6.250000e+00
6.250000e+00
6.250000e+00
6.250000e+00
6.250000e+00
6.250000e+00
6.250000e+00
6.250000e+00
6.250000e+00
6.250000e+00
6.250000e+00
6.250000e+00
6.250000e+00
6.250000e+00
6.250000e+00
6.250000e+00
6.250000e+00
6.250000e+00
6.250000e+00
6.250000e+00
6.250000e+00
6.250000e+00
6.250000e+00
6.250000e+00
1.250000e+01
1.250000e+01
1.250000e+01
1.250000e+01
1.250000e+01
1.250000e+01
1.250000e+01
1.250000e+01
1.250000e+01
1.250000e+01
1.250000e+01
1.250000e+01
1.250000e+01
1.250000e+01
1.250000e+01
1.250000e+01
1.250000e+01
1.250000e+01
1.250000e+01
1.250000e+01
1.250000e+01
1.250000e+01
1.250000e+01
1.250000e+01
1.250000e+01
1.250000e+01
1.250000e+01
1.250000e+01
1.250000e+01
1.250000e+01
1.250000e+01
1.250000e+01
1.250000e+01
1.875000e+01
1.875000e+01
1.875000e+01
1.875000e+01
1.875000e+01
1.875000e+01
1.875000e+01
1.875000e+01
1.875000e+01
1.875000e+01
1.875000e+01
1.875000e+01
1.875000e+01
1.875000e+01
1.875000e+01
1.875000e+01
1.875000e+01
1.875000e+01
1.875000e+01
1.875000e+01
1.875000e+01
1.875000e+01
1.875000e+01
1.875000e+01
1.875000e+01
1.875000e+01
1.875000e+01
1.875000e+01
1.875000e+01
1.875000e+01
1.875000e+01
1.875000e+01
1.875000e+01
2.500000e+01
2.500000e+01
2.500000e+01
2.500000e+01
2.500000e+01
2.500000e+01
2.500000e+01
2.500000e+01
2.500000e+01
2.500000e+01
2.500000e+01
2.500000e+01
2.500000e+01
2.500000e+01
2.500000e+01
2.500000e+01
2.500000e+01
2.500000e+01
2.500000e+01
2.500000e+01
2.500000e+01
2.500000e+01
2.500000e+01
2.500000e+01
2.500000e+01
2.500000e+01
2.500000e+01
2.500000e+01
2.500000e+01
2.500000e+01
2.500000e+01
2.500000e+01
2.500000e+01
3.125000e+01
3.125000e+01
3.125000e+01
3.125000e+01
3.125000e+01
3.125000e+01
3.125000e+01
3.125000e+01
3.125000e+01
3.125000e+01
3.125000e+01
3.125000e+01
3.125000e+01
3.125000e+01
3.125000e+01
3.125000e+01
3.125000e+01
3.125000e+01
3.125000e+01
3.125000e+01
3.125000e+01
3.125000e+01
3.125000e+01
3.125000e+01
3.125000e+01
3.125000e+01
3.125000e+01
3.125000e+01
3.125000e+01
3.125000e+01
3.125000e+01
3.125000e+01
3.125000e+01
3.750000e+01
3.750000e+01
3.750000e+01
3.750000e+01
3.750000e+01
3.750000e+01
3.750000e+01
3.750000e+01
3.750000e+01
3.750000e+01
3.750000e+01
3.750000e+01
3.750000e+01
3.750000e+01
3.750000e+01
3.750000e+01
3.750000e+01
3.750000e+01
3.750000e+01
3.750000e+01
3.750000e+01
3.750000e+01
3.750000e+01
3.750000e+01
3.750000e+01
3.750000e+01
3.750000e+01
3.750000e+01
3.750000e+01
3.750000e+01
3.750000e+01
3.750000e+01
3.750000e+01
4.375000e+01
4.375000e+01
4.375000e+01
4.375000e+01
4.375000e+01
4.375000e+01
4.375000e+01
4.375000e+01
4.375000e+01
4.375000e+01
4.375000e+01
4.375000e+01
4.375000e+01
4.375000e+01
4.375000e+01
4.375000e+01
4.375000e+01
4.375000e+01
4.375000e+01
4.375000e+01
4.375000e+01
4.375000e+01
4.375000e+01
4.375000e+01
4.375000e+01
4.375000e+01
4.375000e+01
4.375000e+01
4.375000e+01
4.375000e+01
4.375000e+01
4.375000e+01
4.375000e+01
5.000000e+01
5.000000e+01
5.000000e+01
5.000000e+01
5.000000e+01
5.000000e+01
5.000000e+01
5.000000e+01
5.000000e+01
5.000000e+01
5.000000e+01
5.000000e+01
5.000000e+01
5.000000e+01
5.000000e+01
5.000000e+01
5.000000e+01
5.000000e+01
5.000000e+01
5.000000e+01
5.000000e+01
5.000000e+01
5.000000e+01
5.000000e+01
5.000000e+01
5.000000e+01
5.000000e+01
5.000000e+01
5.000000e+01
5.000000e+01
5.000000e+01
5.000000e+01
5.000000e+01
5.625000e+01
5.625000e+01
5.625000e+01
5.625000e+01
5.625000e+01
5.625000e+01
5.625000e+01
5.625000e+01
5.625000e+01
5.625000e+01
5.625000e+01
5.625000e+01
5.625000e+01
5.625000e+01
5.625000e+01
5.625000e+01
5.625000e+01
5.625000e+01
5.625000e+01
5.625000e+01
5.625000e+01
5.625000e+01
5.625000e+01
5.625000e+01
5.625000e+01
5.625000e+01
5.625000e+01
5.625000e+01
5.625000e+01
5.625000e+01
5.625000e+01
5.625000e+01
5.625000e+01
6.250000e+01
6.250000e+01
6.250000e+01
6.250000e+01
6.250000e+01
6.250000e+01
6.250000e+01
6.250000e+01
6.250000e+01
6.250000e+01
6.250000e+01
6.250000e+01
6.250000e+01
6.250000e+01
6.250000e+01
6.250000e+01
6.250000e+01
6.250000e+01
6.250000e+01
6.250000e+01
6.250000e+01
6.250000e+01
6.250000e+01
6.250000e+01
6.250000e+01
6.250000e+01
6.250000e+01
6.250000e+01
6.250000e+01
6.250000e+01
6.250000e+01
6.250000e+01
6.250000e+01
6.875000e+01
6.875000e+01
6.875000e+01
6.875000e+01
6.875000e+01
6.875000e+01
6.875000e+01
6.875000e+01
6.875000e+01
6.875000e+01
6.875000e+01
6.875000e+01
6.875000e+01
6.875000e+01
6.875000e+01
6.875000e+01
6.875000e+01
6.875000e+01
6.875000e+01
6.875000e+01
6.875000e+01
6.875000e+01
6.875000e+01
6.875000e+01
6.875000e+01
6.875000e+01
6.875000e+01
6.875000e+01
6.875000e+01
6.875000e+01
6.875000e+01
6.875000e+01
6.875000e+01
7.500000e+01
7.500000e+01
7.500000e+01
7.500000e+01
7.500000e+01
7.500000e+01
7.500000e+01
7.500000e+01
7.500000e+01
7.500000e+01
7.500000e+01
7.500000e+01
7.500000e+01
7.500000e+01
7.500000e+01
7.500000e+01
7.500000e+01
7.500000e+01
7.500000e+01
7.500000e+01
7.500000e+01
7.500000e+01
7.500000e+01
7.500000e+01
7.500000e+01
7.500000e+01
7.500000e+01
7.500000e+01
7.500000e+01
7.500000e+01
7.500000e+01
7.500000e+01
7.500000e+01
8.125000e+01
8.125000e+01
8.125000e+01
8.125000e+01
8.125000e+01
8.125000e+01
8.125000e+01
8.125000e+01
8.125000e+01
8.125000e+01
8.125000e+01
8.125000e+01
8.125000e+01
8.125000e+01
8.125000e+01
8.125000e+01
8.125000e+01
8.125000e+01
8.125000e+01
8.125000e+01
8.125000e+01
8.125000e+01
8.125000e+01
8.125000e+01
8.125000e+01
8.125000e+01
8.125000e+01
8.125000e+01
8.125000e+01
8.125000e+01
8.125000e+01
8.125000e+01
8.125000e+01
8.750000e+01
8.750000e+01
8.750000e+01
8.750000e+01
8.750000e+01
8.750000e+01
8.750000e+01
8.750000e+01
8.750000e+01
8.750000e+01
8.750000e+01
8.750000e+01
8.750000e+01
8.750000e+01
8.750000e+01
8.750000e+01
8.750000e+01
8.750000e+01
8.750000e+01
8.750000e+01
8.750000e+01
8.750000e+01
8.750000e+01
8.750000e+01
8.750000e+01
8.750000e+01
8.750000e+01
8.750000e+01
8.750000e+01
8.750000e+01
8.750000e+01
8.750000e+01
8.750000e+01
9.375000e+01
9.375000e+01
9.375000e+01
9.375000e+01
9.375000e+01
9.375000e+01
9.375000e+01
9.375000e+01
9.375000e+01
9.375000e+01
9.375000e+01
9.375000e+01
9.375000e+01
9.375000e+01
9.375000e+01
9.375000e+01
9.375000e+01
9.375000e+01
9.375000e+01
9.375000e+01
9.375000e+01
9.375000e+01
9.375000e+01
9.375000e+01
9.375000e+01
9.375000e+01
9.375000e+01
9.375000e+01
9.375000e+01
9.375000e+01
9.375000e+01
9.375000e+01
9.375000e+01
1.000000e+02
1.000000e+02
1.000000e+02
1.000000e+02
1.000000e+02
1.000000e+02
1.000000e+02
1.000000e+02
1.000000e+02
1.000000e+02
1.000000e+02
1.000000e+02
1.000000e+02
1.000000e+02
1.000000e+02
1.000000e+02
1.000000e+02
1.000000e+02
1.000000e+02
1.000000e+02
1.000000e+02
1.000000e+02
1.000000e+02
1.000000e+02
1.000000e+02
1.000000e+02
1.000000e+02
1.000000e+02
1.000000e+02
1.000000e+02
1.000000e+02
1.000000e+02
1.000000e+02
0.000000e+00
-3.967517e-02
-7.198531e-02
-1.019161e-01
-1.306412e-01
-1.583797e-01
-1.851872e-01
-2.110613e-01
-2.359859e-01
-2.599426e-01
-2.829166e-01
-3.048974e-01
-3.258797e-01
-3.458631e-01
-3.648522e-01
-3.828571e-01
-3.998938e-01
-4.159859e-01
-4.311656e-01
-4.454766e-01
-4.589771e-01
-4.717441e-01
-4.838792e-01
-4.955175e-01
-5.068396e-01
-5.180913e-01
-5.296138e-01
-5.418936e-01
-5.556445e-01
-5.719170e-01
-5.920739e-01
-6.160953e-01
-6.307553e-01
0.000000e+00
-2.660113e-02
-5.534652e-02
-8.244962e-02
-1.082101e-01
-1.328731e-01
-1.565691e-01
-1.793551e-01
-2.012538e-01
-2.222726e-01
-2.424128e-01
-2.616745e-01
-2.800586e-01
-2.975680e-01
-3.142086e-01
-3.299897e-01
-3.449246e-01
-3.590318e-01
-3.723358e-01
-3.848683e-01
-3.966698e-01
-4.077913e-01
-4.182962e-01
-4.282621e-01
-4.377815e-01
-4.469609e-01
-4.559130e-01
-4.647302e-01
-4.734121e-01
-4.816760e-01
-4.885621e-01
-4.925880e-01
-4.981928e-01
0.000000e+00
-2.110008e-02
-4.343960e-02
-6.618477e-02
-8.828604e-02
-1.095728e-01
-1.300315e-01
-1.496816e-01
-1.685403e-01
-1.866195e-01
-2.039271e-01
-2.204683e-01
-2.362477e-01
-2.512699e-01
-2.655407e-01
-2.790668e-01
-2.918570e-01
-3.039225e-01
-3.152767e-01
-3.259359e-01
-3.359186e-01
-3.452452e-01
-3.539353e-01
-3.620046e-01
-3.694561e-01
-3.762659e-01
-3.823563e-01
-3.875478e-01
-3.914894e-01
-3.936118e-01
-3.934257e-01
-3.922339e-01
-3.987788e-01
0.000000e+00
-1.674105e-02
-3.440666e-02
-5.255588e-02
-7.066256e-02
-8.833066e-02
-1.054089e-01
-1.218429e-01
-1.376181e-01
-1.527338e-01
-1.671939e-01
-1.810033e-01
-1.941665e-01
-2.066878e-01
-2.185708e-01
-2.298189e-01
-2.404351e-01
-2.504223e-01
-2.597824e-01
-2.685160e-01
-2.766208e-01
-2.840894e-01
-2.909053e-01
-2.970368e-01
-3.024271e-01
-3.069813e-01
-3.105484e-01
-3.129107e-01
-3.138126e-01
-3.131431e-01
-3.115169e-01
-3.114198e-01
-3.176554e-01
0.000000e+00
-1.299339e-02
-2.660603e-02
-4.065352e-02
-5.481513e-02
-6.880304e-02
-8.242427e-02
-9.558108e-02
-1.082291e-01
-1.203511e-01
-1.319428e-01
-1.430046e-01
-1.535388e-01
-1.635470e-01
-1.730300e-01
-1.819868e-01
-1.904147e-01
-1.983086e-01
-2.056603e-01
-2.124576e-01
-2.186822e-01
-2.243074e-01
-2.292947e-01
-2.335895e-01
-2.371158e-01
-2.397738e-01
-2.414464e-01
-2.420331e-01
-2.415517e-01
-2.403740e-01
-2.396099e-01
-2.413744e-01
-2.466937e-01
0.000000e+00
-9.549384e-03
-1.950790e-02
-2.978635e-02
-4.020714e-02
-5.057574e-02
-6.073773e-02
-7.059272e-02
-8.008563e-02
-8.918965e-02
-9.789350e-02
-1.061932e-01
-1.140873e-01
-1.215743e-01
-1.286516e-01
-1.353140e-01
-1.415537e-01
-1.473591e-01
-1.527147e-01
-1.575995e-01
-1.619859e-01
-1.658384e-01
-1.691119e-01
-1.717517e-01
-1.736949e-01
-1.748806e-01
-1.752740e-01
-1.749210e-01
-1.740509e-01
-1.732230e-01
-1.734246e-01
-1.756740e-01
-1.800754e-01
0.000000e+00
-6.284642e-03
-1.281787e-02
-1.955835e-02
-2.640997e-02
-3.325738e-02
-3.999734e-02
-4.655456e-02
-5.288194e-02
-5.895349e-02
-6.475608e-02
-7.028310e-02
-7.553031e-02
-8.049336e-02
-8.516624e-02
-8.954042e-02
-9.360409e-02
-9.734164e-02
-1.007330e-01
-1.037532e-01
-1.063719e-01
-1.085536e-01
-1.102587e-01
-1.114468e-01
-1.120852e-01
-1.121644e-01
-1.117279e-01
-1.109202e-01
-1.100486e-01
-1.096261e-01
-1.102853e-01
-1.124754e-01
-1.160282e-01
0.000000e+00
-3.121580e-03
-6.361174e-03
-9.702131e-03
-1.310226e-02
-1.650784e-02
-1.986786e-02
-2.314242e-02
-2.630454e-02
-2.933775e-02
-3.223229e-02
-3.498171e-02
-3.758036e-02
-4.002183e-02
-4.229777e-02
-4.439726e-02
-4.630622e-02
-4.800703e-02
-4.947830e-02
-5.069497e-02
-5.162894e-02
-5.225061e-02
-5.253222e-02
-5.245390e-02
-5.201408e-02
-5.124635e-02
-5.024360e-02
-4.918704e-02
-4.836684e-02
-4.816138e-02
-4.893475e-02
-5.084529e-02
-5.366438e-02
0.000000e+00
-5.036356e-06
-1.092026e-05
-1.732574e-05
-2.391589e-05
-3.023639e-05
-3.560261e-05
-3.897413e-05
-3.880821e-05
-3.288335e-05
-1.808634e-05
9.841090e-06
5.659541e-05
1.296380e-04
2.385397e-04
3.953129e-04
6.146811e-04
9.142003e-04
1.314103e-03
1.836663e-03
2.504781e-03
3.339358e-03
4.354871e-03
5.552423e-03
6.909580e-03
8.366891e-03
9.812781e-03
1.107249e-02
1.191340e-02
1.208393e-02
1.139729e-02
9.842269e-03
7.664382e-03
0.000000e+00
3.112094e-03
6.340564e-03
9.669365e-03
1.305692e-02
1.645036e-02
1.979993e-02
2.306766e-02
2.622947e-02
2.927303e-02
3.219441e-02
3.499516e-02
3.768036e-02
4.025760e-02
4.273664e-02
4.512925e-02
4.744925e-02
4.971239e-02
5.193593e-02
5.413764e-02
5.633396e-02
5.853700e-02
6.074989e-02
6.296034e-02
6.513244e-02
6.719762e-02
6.904779e-02
7.053589e-02
7.149204e-02
7.176273e-02
7.127248e-02
7.009121e-02
6.847478e-02
0.000000e+00
6.276893e-03
1.280092e-02
1.953121e-02
2.637211e-02
3.320895e-02
3.993942e-02
4.648981e-02
5.281529e-02
5.889320e-02
6.471512e-02
7.028093e-02
7.559512e-02
8.066485e-02
8.549903e-02
9.010795e-02
9.450314e-02
9.869715e-02
1.027030e-01
1.065331e-01
1.101973e-01
1.137003e-01
1.170374e-01
1.201893e-01
1.231164e-01
1.257537e-01
1.280096e-01
1.297715e-01
1.309247e-01
1.313858e-01
1.311487e-01
1.303313e-01
1.292031e-01
0.000000e+00
9.544441e-03
1.949689e-02
2.976842e-02
4.018168e-02
5.054250e-02
6.069706e-02
7.054591e-02
8.003538e-02
8.914078e-02
9.785379e-02
1.061746e-01
1.141075e-01
1.216586e-01
1.288351e-01
1.356445e-01
1.420949e-01
1.481945e-01
1.539510e-01
1.593712e-01
1.644588e-01
1.692127e-01
1.736236e-01
1.776708e-01
1.813184e-01
1.845135e-01
1.871872e-01
1.892623e-01
1.906695e-01
1.913746e-01
1.914143e-01
1.909348e-01
1.902218e-01
0.000000e+00
1.299216e-02
2.660296e-02
4.064802e-02
5.480663e-02
6.879106e-02
8.240850e-02
9.556149e-02
1.082060e-01
1.203257e-01
1.319169e-01
1.429816e-01
1.535239e-01
1.635482e-01
1.730586e-01
1.820591e-01
1.905531e-01
1.985432e-01
2.060315e-01
2.130183e-01
2.195015e-01
2.254752e-01
2.309278e-01
2.358405e-01
2.401857e-01
2.439270e-01
2.470215e-01
2.494264e-01
2.511119e-01
2.520802e-01
2.523943e-01
2.522143e-01
2.518387e-01
0.000000e+00
1.674415e-02
3.441299e-02
5.256529e-02
7.067479e-02
8.834535e-02
1.054255e-01
1.218607e-01
1.376357e-01
1.527490e-01
1.672034e-01
1.810023e-01
1.941482e-01
2.066426e-01
2.184856e-01
2.296765e-01
2.402129e-01
2.500916e-01
2.593075e-01
2.678542e-01
2.757231e-01
2.829032e-01
2.893808e-01
2.951397e-01
3.001613e-01
3.044270e-01
3.079207e-01
3.106345e-01
3.125768e-01
3.137839e-01
3.143391e-01
3.144053e-01
3.142806e-01
0.000000e+00
2.110768e-02
4.345580e-02
6.621015e-02
8.832108e-02
1.096179e-01
1.300868e-01
1.497463e-01
1.686127e-01
1.866959e-01
2.040009e-01
2.205289e-01
2.362788e-01
2.512477e-01
2.654310e-01
2.788221e-01
2.914128e-01
3.031928e-01
3.141498e-01
3.242690e-01
3.335339e-01
3.419265e-01
3.494285e-01
3.560231e-01
3.616979e-01
3.664484e-01
3.702833e-01
3.732296e-01
3.753382e-01
3.766888e-01
3.773957e-01
3.776259e-01
3.776534e-01
0.000000e+00
2.661253e-02
5.537142e-02
8.248967e-02
1.082672e-01
1.329494e-01
1.566661e-01
1.794738e-01
2.013937e-01
2.224308e-01
2.425829e-01
2.618443e-01
2.802079e-01
2.976651e-01
3.142061e-01
3.298191e-01
3.444898e-01
3.582011e-01
3.709322e-01
3.826593e-01
3.933552e-01
4.029911e-01
4.115387e-01
4.189733e-01
4.252795e-01
4.304578e-01
4.345325e-01
4.375611e-01
4.396415e-01
4.409163e-01
4.415676e-01
4.418037e-01
4.418616e-01
0.000000e+00
3.968764e-02
7.201443e-02
1.019660e-01
1.307159e-01
1.584832e-01
1.853237e-01
2.112350e-01
2.361997e-01
2.601980e-01
2.832114e-01
3.052237e-01
3.262210e-01
3.461898e-01
3.651162e-01
3.829843e-01
3.997751e-01
4.154653e-01
4.300262e-01
4.434233e-01
4.556163e-01
4.665602e-01
4.762082e-01
4.845159e-01
4.914491e-01
4.969938e-01
5.011697e-01
5.040464e-01
5.057611e-01
5.065337e-01
5.066741e-01
5.065578e-01
5.064924e-01
0.000000e+00
-2.451850e-02
-4.279006e-02
-6.272874e-02
-8.493165e-02
-1.100121e-01
-1.381442e-01
-1.693771e-01
-2.036796e-01
-2.409780e-01
-2.811737e-01
-3.241529e-01
-3.697928e-01
-4.179659e-01
-4.685417e-01
-5.213893e-01
-5.763780e-01
-6.333798e-01
-6.922709e-01
-7.529347e-01
-8.152655e-01
-8.791746e-01
-9.445985e-01
-1.011512e+00
-1.079948e+00
-1.150034e+00
-1.222049e+00
-1.296535e+00
-1.374533e+00
-1.458102e+00
-1.551683e+00
-1.665759e+00
-1.823358e+00
0.000000e+00
-1.523731e-02
-3.436283e-02
-5.443601e-02
-7.694839e-02
-1.023013e-01
-1.307068e-01
-1.622130e-01
-1.967916e-01
-2.343688e-01
-2.748455e-01
-3.181068e-01
-3.640291e-01
-4.124836e-01
-4.633389e-01
-5.164624e-01
-5.717220e-01
-6.289879e-01
-6.881337e-01
-7.490399e-01
-8.115973e-01
-8.757124e-01
-9.413161e-01
-1.008376e+00
-1.076916e+00
-1.147051e+00
-1.219045e+00
-1.293426e+00
-1.371212e+00
-1.454426e+00
-1.547284e+00
-1.658821e+00
-1.806058e+00
0.000000e+00
-1.119268e-02
-2.770315e-02
-4.750250e-02
-7.005421e-02
-9.559391e-02
-1.242237e-01
-1.559700e-01
-1.907948e-01
-2.286210e-01
-2.693476e-01
-3.128589e-01
-3.590308e-01
-4.077339e-01
-4.588363e-01
-5.122051e-01
-5.677075e-01
-6.252127e-01
-6.845937e-01
-7.457300e-01
-8.085114e-01
-8.728438e-01
-9.386576e-01
-1.005921e+00
-1.074662e+00
-1.145002e+00
-1.217216e+00
-1.291844e+00
-1.369893e+00
-1.453186e+00
-1.544836e+00
-1.648526e+00
-1.763548e+00
0.000000e+00
-8.962625e-03
-2.345898e-02
-4.220253e-02
-6.446442e-02
-8.999618e-02
-1.187484e-01
-1.506726e-01
-1.857001e-01
-2.237396e-01
-2.646838e-01
-3.084141e-01
-3.548052e-01
-4.037277e-01
-4.550497e-01
-5.086386e-01
-5.643621e-01
-6.220900e-01
-6.816958e-01
-7.430601e-01
-8.060740e-01
-8.706458e-01
-9.367095e-01
-1.004238e+00
-1.073266e+00
-1.143921e+00
-1.216475e+00
-1.291427e+00
-1.369599e+00
-1.452193e+00
-1.540358e+00
-1.633345e+00
-1.719906e+00
0.000000e+00
-7.583855e-03
-2.068344e-02
-3.843892e-02
-6.019333e-02
-8.555770e-02
-1.143207e-01
-1.463487e-01
-1.815258e-01
-2.197372e-01
-2.608633e-01
-3.047802e-01
-3.513604e-01
-4.004740e-01
-4.519896e-01
-5.057756e-01
-5.617010e-01
-6.196369e-01
-6.794588e-01
-7.410492e-01
-8.043016e-01
-8.691272e-01
-9.354625e-01
-1.003283e+00
-1.072620e+00
-1.143585e+00
-1.216401e+00
-1.291426e+00
-1.369133e+00
-1.449904e+00
-1.533354e+00
-1.616418e+00
-1.691803e+00
0.000000e+00
-6.706530e-03
-1.886234e-02
-3.584897e-02
-5.711368e-02
-8.224046e-02
-1.109409e-01
-1.430099e-01
-1.782856e-01
-2.166256e-01
-2.578959e-01
-3.019651e-01
-3.487026e-01
-3.979779e-01
-4.496603e-01
-5.036194e-01
-5.597260e-01
-6.178531e-01
-6.778782e-01
-7.396856e-01
-8.031704e-01
-8.682442e-01
-9.348418e-01
-1.002931e+00
-1.072524e+00
-1.143688e+00
-1.216547e+00
-1.291261e+00
-1.367914e+00
-1.446249e+00
-1.525071e+00
-1.601566e+00
-1.671481e+00
0.000000e+00
-6.161283e-03
-1.771095e-02
-3.416545e-02
-5.505054e-02
-7.996079e-02
-1.085761e-01
-1.406490e-01
-1.759829e-01
-2.144121e-01
-2.557887e-01
-2.999742e-01
-3.468352e-01
-3.962404e-01
-4.480600e-01
-5.021650e-01
-5.584279e-01
-6.167237e-01
-6.769310e-01
-7.389349e-01
-8.026299e-01
-8.679238e-01
-9.347426e-01
-1.003036e+00
-1.072781e+00
-1.143977e+00
-1.216633e+00
-1.290705e+00
-1.365981e+00
-1.441848e+00
-1.516992e+00
-1.589248e+00
-1.655961e+00
0.000000e+00
-5.861662e-03
-1.707207e-02
-3.321675e-02
-5.386751e-02
-7.863291e-02
-1.071825e-01
-1.392484e-01
-1.746137e-01
-2.130981e-01
-2.545443e-01
-2.988092e-01
-3.457573e-01
-3.952576e-01
-4.471811e-01
-5.014002e-01
-5.577890e-01
-6.162234e-01
-6.765827e-01
-7.387507e-01
-8.026181e-01
-8.680844e-01
-9.350607e-01
-1.003470e+00
-1.073243e+00
-1.144308e+00
-1.216561e+00
-1.289805e+00
-1.363648e+00
-1.437365e+00
-1.509772e+00
-1.579238e+00
-1.643953e+00
0.000000e+00
-5.765125e-03
-1.686595e-02
-3.290926e-02
-5.348194e-02
-7.819831e-02
-1.067260e-01
-1.387914e-01
-1.741717e-01
-2.126817e-01
-2.541619e-01
-2.984680e-01
-3.454648e-01
-3.950220e-01
-4.470118e-01
-5.013082e-01
-5.577862e-01
-6.163220e-01
-6.767941e-01
-7.390830e-01
-8.030731e-01
-8.686522e-01
-9.357114e-01
-1.004143e+00
-1.073830e+00
-1.144635e+00
-1.216366e+00
-1.288726e+00
-1.361248e+00
-1.433219e+00
-1.503635e+00
-1.571255e+00
-1.634750e+00
0.000000e+00
-5.858870e-03
-1.706820e-02
-3.321341e-02
-5.386650e-02
-7.863645e-02
-1.071935e-01
-1.392708e-01
-1.746526e-01
-2.131602e-01
-2.546383e-01
-2.989459e-01
-3.459504e-01
-3.955231e-01
-4.475380e-01
-5.018701e-01
-5.583948e-01
-6.169881e-01
-6.775263e-01
-7.398855e-01
-8.039415e-01
-8.695684e-01
-9.366360e-01
-1.005005e+00
-1.074517e+00
-1.144979e+00
-1.216139e+00
-1.287650e+00
-1.359030e+00
-1.429630e+00
-1.498623e+00
-1.565048e+00
-1.627891e+00
0.000000e+00
-6.155925e-03
-1.770352e-02
-3.415901e-02
-5.504852e-02
-7.996745e-02
-1.085970e-01
-1.406916e-01
-1.760571e-01
-2.145309e-01
-2.559686e-01
-3.002362e-01
-3.472051e-01
-3.967495e-01
-4.487448e-01
-5.030668e-01
-5.595913e-01
-6.181930e-01
-6.787454e-01
-7.411194e-01
-8.051816e-01
-8.707920e-01
-9.378001e-01
-1.006038e+00
-1.075313e+00
-1.145392e+00
-1.215985e+00
-1.286727e+00
-1.357154e+00
-1.426699e+00
-1.494692e+00
-1.560393e+00
-1.623022e+00
0.000000e+00
-6.699083e-03
-1.885200e-02
-3.583999e-02
-5.711077e-02
-8.224956e-02
-1.109699e-01
-1.430691e-01
-1.783889e-01
-2.167912e-01
-2.581470e-01
-3.023311e-01
-3.492197e-01
-3.986900e-01
-4.506186e-01
-5.048821e-01
-5.613558e-01
-6.199132e-01
-6.804247e-01
-7.427557e-01
-8.067643e-01
-8.722978e-01
-9.391877e-01
-1.007244e+00
-1.076245e+00
-1.145932e+00
-1.215995e+00
-1.286066e+00
-1.355715e+00
-1.424455e+00
-1.491757e+00
-1.557072e+00
-1.619830e+00
0.000000e+00
-7.575081e-03
-2.067127e-02
-3.842833e-02
-6.018996e-02
-8.556873e-02
-1.143556e-01
-1.464201e-01
-1.816506e-01
-2.199372e-01
-2.611667e-01
-3.052226e-01
-3.519857e-01
-4.013353e-01
-4.531492e-01
-5.073040e-01
-5.636746e-01
-6.221328e-01
-6.825463e-01
-7.447759e-01
-8.086724e-01
-8.740727e-01
-9.407945e-01
-1.008630e+00
-1.077340e+00
-1.146648e+00
-1.216232e+00
-1.285732e+00
-1.354752e+00
-1.422879e+00
-1.489709e+00
-1.554867e+00
-1.618004e+00
0.000000e+00
-8.953608e-03
-2.344648e-02
-4.219177e-02
-6.446153e-02
-9.000913e-02
-1.187877e-01
-1.507524e-01
-1.858389e-01
-2.239616e-01
-2.650201e-01
-3.089040e-01
-3.554972e-01
-4.046802e-01
-4.563313e-01
-5.103270e-01
-5.665412e-01
-6.248447e-01
-6.851027e-01
-7.471724e-01
-8.108994e-01
-8.761132e-01
-9.426220e-01
-1.010207e+00
-1.078617e+00
-1.147565e+00
-1.216727e+00
-1.285750e+00
-1.354267e+00
-1.421924e+00
-1.488421e+00
-1.553551e+00
-1.617208e+00
0.000000e+00
-1.118482e-02
-2.769221e-02
-4.749342e-02
-7.005335e-02
-9.560967e-02
-1.242671e-01
-1.560558e-01
-1.909423e-01
-2.288553e-01
-2.697007e-01
-3.133714e-01
-3.597524e-01
-4.087247e-01
-4.601663e-01
-5.139533e-01
-5.699589e-01
-6.280526e-01
-6.880979e-01
-7.499497e-01
-8.134502e-01
-8.784247e-01
-9.446761e-01
-1.011980e+00
-1.080080e+00
-1.148685e+00
-1.217473e+00
-1.286097e+00
-1.354212e+00
-1.421506e+00
-1.487753e+00
-1.552889e+00
-1.617069e+00
0.000000e+00
-1.523226e-02
-3.435538e-02
-5.443066e-02
-7.695169e-02
-1.023218e-01
-1.307558e-01
-1.623051e-01
-1.969460e-01
-2.346106e-01
-2.752062e-01
-3.186261e-01
-3.647556e-01
-4.134754e-01
-4.646631e-01
-5.181941e-01
-5.739409e-01
-6.317719e-01
-6.915492e-01
-7.531261e-01
-8.163430e-01
-8.810233e-01
-9.469683e-01
-1.013952e+00
-1.081718e+00
-1.149978e+00
-1.218414e+00
-1.286691e+00
-1.354477e+00
-1.421486e+00
-1.487536e+00
-1.552650e+00
-1.617187e+00
0.000000e+00
-2.451778e-02
-4.278758e-02
-6.272922e-02
-8.494167e-02
-1.100402e-01
-1.382018e-01
-1.694786e-01
-2.038438e-01
-2.412293e-01
-2.815425e-01
-3.246769e-01
-3.705179e-01
-4.189459e-01
-4.698385e-01
-5.230700e-01
-5.785121e-01
-6.360317e-01
-6.954896e-01
-7.567375e-01
-8.196144e-01
-8.839427e-01
-9.495233e-01