TITLE = "Solution"
VARIABLES = x, y, u, v, psiu, psiv, t, stress
ZONE T="structure" N=561 E=512 F=FEBLOCK ET=QUADRILATERAL VARLOCATION=([7,8]=cellcentered)
0.000000e+00
6.250000e+00
1.250000e+01
1.875000e+01
2.500000e+01
3.125000e+01
3.750000e+01
4.375000e+01
5.000000e+01
5.625000e+01
6.250000e+01
6.875000e+01
7.500000e+01
8.125000e+01
8.750000e+01
9.375000e+01
1.000000e+02
1.062500e+02
1.125000e+02
1.187500e+02
1.250000e+02
1.312500e+02
1.375000e+02
1.437500e+02
1.500000e+02
1.562500e+02
1.625000e+02
1.687500e+02
1.750000e+02
1.812500e+02
1.875000e+02
1.937500e+02
2.000000e+02
0.000000e+00
6.250000e+00
1.250000e+01
1.875000e+01
2.500000e+01
3.125000e+01
3.750000e+01
4.375000e+01
5.000000e+01
5.625000e+01
6.250000e+01
6.875000e+01
7.500000e+01
8.125000e+01
8.750000e+01
9.375000e+01
1.000000e+02
1.062500e+02
1.125000e+02
1.187500e+02
1.250000e+02
1.312500e+02
1.375000e+02
1.437500e+02
1.500000e+02
1.562500e+02
1.625000e+02
1.687500e+02
1.750000e+02
1.812500e+02
1.875000e+02
1.937500e+02
2.000000e+02
0.000000e+00
6.250000e+00
1.250000e+01
1.875000e+01
2.500000e+01
3.125000e+01
3.750000e+01
4.375000e+01
5.000000e+01
5.625000e+01
6.250000e+01
6.875000e+01
7.500000e+01
8.125000e+01
8.750000e+01
9.375000e+01
1.000000e+02
1.062500e+02
1.125000e+02
1.187500e+02
1.250000e+02
1.312500e+02
1.375000e+02
1.437500e+02
1.500000e+02
1.562500e+02
1.625000e+02
1.687500e+02
1.750000e+02
1.812500e+02
1.875000e+02
1.937500e+02
2.000000e+02
0.000000e+00
6.250000e+00
1.250000e+01
1.875000e+01
2.500000e+01
3.125000e+01
3.750000e+01
4.375000e+01
5.000000e+01
5.625000e+01
6.250000e+01
6.875000e+01
7.500000e+01
8.125000e+01
8.750000e+01
9.375000e+01
1.000000e+02
1.062500e+02
1.125000e+02
1.187500e+02
1.250000e+02
1.312500e+02
1.375000e+02
1.437500e+02
1.500000e+02
1.562500e+02
1.625000e+02
1.687500e+02
1.750000e+02
1.812500e+02
1.875000e+02
1.937500e+02
2.000000e+02
0.000000e+00
6.250000e+00
1.250000e+01
1.875000e+01
2.500000e+01
3.125000e+01
3.750000e+01
4.375000e+01
5.000000e+01
5.625000e+01
6.250000e+01
6.875000e+01
7.500000e+01
8.125000e+01
8.750000e+01
9.375000e+01
1.000000e+02
1.062500e+02
1.125000e+02
1.187500e+02
1.250000e+02
1.312500e+02
1.375000e+02
1.437500e+02
1.500000e+02
1.562500e+02
1.625000e+02
1.687500e+02
1.750000e+02
1.812500e+02
1.875000e+02
1.937500e+02
2.000000e+02
0.000000e+00
6.250000e+00
1.250000e+01
1.875000e+01
2.500000e+01
3.125000e+01
3.750000e+01
4.375000e+01
5.000000e+01
5.625000e+01
6.250000e+01
6.875000e+01
7.500000e+01
8.125000e+01
8.750000e+01
9.375000e+01
1.000000e+02
1.062500e+02
1.125000e+02
1.187500e+02
1.250000e+02
1.312500e+02
1.375000e+02
1.437500e+02
1.500000e+02
1.562500e+02
1.625000e+02
1.687500e+02
1.750000e+02
1.812500e+02
1.875000e+02
1.937500e+02
2.000000e+02
0.000000e+00
6.250000e+00
1.250000e+01
1.875000e+01
2.500000e+01
3.125000e+01
3.750000e+01
4.375000e+01
5.000000e+01
5.625000e+01
6.250000e+01
6.875000e+01
7.500000e+01
8.125000e+01
8.750000e+01
9.375000e+01
1.000000e+02
1.062500e+02
1.125000e+02
1.187500e+02
1.250000e+02
1.312500e+02
1.375000e+02
1.437500e+02
1.500000e+02
1.562500e+02
1.625000e+02
1.687500e+02
1.750000e+02
1.812500e+02
1.875000e+02
1.937500e+02
2.000000e+02
0.000000e+00
6.250000e+00
1.250000e+01
1.875000e+01
2.500000e+01
3.125000e+01
3.750000e+01
4.375000e+01
5.000000e+01
5.625000e+01
6.250000e+01
6.875000e+01
7.500000e+01
8.125000e+01
8.750000e+01
9.375000e+01
1.000000e+02
1.062500e+02
1.125000e+02
1.187500e+02
1.250000e+02
1.312500e+02
1.375000e+02
1.437500e+02
1.500000e+02
1.562500e+02
1.625000e+02
1.687500e+02
1.750000e+02
1.812500e+02
1.875000e+02
1.937500e+02
2.000000e+02
0.000000e+00
6.250000e+00
1.250000e+01
1.875000e+01
2.500000e+01
3.125000e+01
3.750000e+01
4.375000e+01
5.000000e+01
5.625000e+01
6.250000e+01
6.875000e+01
7.500000e+01
8.125000e+01
8.750000e+01
9.375000e+01
1.000000e+02
1.062500e+02
1.125000e+02
1.187500e+02
1.250000e+02
1.312500e+02
1.375000e+02
1.437500e+02
1.500000e+02
1.562500e+02
1.625000e+02
1.687500e+02
1.750000e+02
1.812500e+02
1.875000e+02
1.937500e+02
2.000000e+02
0.000000e+00
6.250000e+00
1.250000e+01
1.875000e+01
2.500000e+01
3.125000e+01
3.750000e+01
4.375000e+01
5.000000e+01
5.625000e+01
6.250000e+01
6.875000e+01
7.500000e+01
8.125000e+01
8.750000e+01
9.375000e+01
1.000000e+02
1.062500e+02
1.125000e+02
1.187500e+02
1.250000e+02
1.312500e+02
1.375000e+02
1.437500e+02
1.500000e+02
1.562500e+02
1.625000e+02
1.687500e+02
1.750000e+02
1.812500e+02
1.875000e+02
1.937500e+02
2.000000e+02
0.000000e+00
6.250000e+00
1.250000e+01
1.875000e+01
2.500000e+01
3.125000e+01
3.750000e+01
4.375000e+01
5.000000e+01
5.625000e+01
6.250000e+01
6.875000e+01
7.500000e+01
8.125000e+01
8.750000e+01
9.375000e+01
1.000000e+02
1.062500e+02
1.125000e+02
1.187500e+02
1.250000e+02
1.312500e+02
1.375000e+02
1.437500e+02
1.500000e+02
1.562500e+02
1.625000e+02
1.687500e+02
1.750000e+02
1.812500e+02
1.875000e+02
1.937500e+02
2.000000e+02
0.000000e+00
6.250000e+00
1.250000e+01
1.875000e+01
2.500000e+01
3.125000e+01
3.750000e+01
4.375000e+01
5.000000e+01
5.625000e+01
6.250000e+01
6.875000e+01
7.500000e+01
8.125000e+01
8.750000e+01
9.375000e+01
1.000000e+02
1.062500e+02
1.125000e+02
1.187500e+02
1.250000e+02
1.312500e+02
1.375000e+02
1.437500e+02
1.500000e+02
1.562500e+02
1.625000e+02
1.687500e+02
1.750000e+02
1.812500e+02
1.875000e+02
1.937500e+02
2.000000e+02
0.000000e+00
6.250000e+00
1.250000e+01
1.875000e+01
2.500000e+01
3.125000e+01
3.750000e+01
4.375000e+01
5.000000e+01
5.625000e+01
6.250000e+01
6.875000e+01
7.500000e+01
8.125000e+01
8.750000e+01
9.375000e+01
1.000000e+02
1.062500e+02
1.125000e+02
1.187500e+02
1.250000e+02
1.312500e+02
1.375000e+02
1.437500e+02
1.500000e+02
1.562500e+02
1.625000e+02
1.687500e+02
1.750000e+02
1.812500e+02
1.875000e+02
1.937500e+02
2.000000e+02
0.000000e+00
6.250000e+00
1.250000e+01
1.875000e+01
2.500000e+01
3.125000e+01
3.750000e+01
4.375000e+01
5.000000e+01
5.625000e+01
6.250000e+01
6.875000e+01
7.500000e+01
8.125000e+01
8.750000e+01
9.375000e+01
1.000000e+02
1.062500e+02
1.125000e+02
1.187500e+02
1.250000e+02
1.312500e+02
1.375000e+02
1.437500e+02
1.500000e+02
1.562500e+02
1.625000e+02
1.687500e+02
1.750000e+02
1.812500e+02
1.875000e+02
1.937500e+02
2.000000e+02
0.000000e+00
6.250000e+00
1.250000e+01
1.875000e+01
2.500000e+01
3.125000e+01
3.750000e+01
4.375000e+01
5.000000e+01
5.625000e+01
6.250000e+01
6.875000e+01
7.500000e+01
8.125000e+01
8.750000e+01
9.375000e+01
1.000000e+02
1.062500e+02
1.125000e+02
1.187500e+02
1.250000e+02
1.312500e+02
1.375000e+02
1.437500e+02
1.500000e+02
1.562500e+02
1.625000e+02
1.687500e+02
1.750000e+02
1.812500e+02
1.875000e+02
1.937500e+02
2.000000e+02
0.000000e+00
6.250000e+00
1.250000e+01
1.875000e+01
2.500000e+01
3.125000e+01
3.750000e+01
4.375000e+01
5.000000e+01
5.625000e+01
6.250000e+01
6.875000e+01
7.500000e+01
8.125000e+01
8.750000e+01
9.375000e+01
1.000000e+02
1.062500e+02
1.125000e+02
1.187500e+02
1.250000e+02
1.312500e+02
1.375000e+02
1.437500e+02
1.500000e+02
1.562500e+02
1.625000e+02
1.687500e+02
1.750000e+02
1.812500e+02
1.875000e+02
1.937500e+02
2.000000e+02
0.000000e+00
6.250000e+00
1.250000e+01
1.875000e+01
2.500000e+01
3.125000e+01
3.750000e+01
4.375000e+01
5.000000e+01
5.625000e+01
6.250000e+01
6.875000e+01
7.500000e+01
8.125000e+01
8.750000e+01
9.375000e+01
1.000000e+02
1.062500e+02
1.125000e+02
1.187500e+02
1.250000e+02
1.312500e+02
1.375000e+02
1.437500e+02
1.500000e+02
1.562500e+02
1.625000e+02
1.687500e+02
1.750000e+02
1.812500e+02
1.875000e+02
1.937500e+02
2.000000e+02
0.000000e+00
0.000000e+00
0.000000e+00
0.000000e+00
0.000000e+00
0.000000e+00
0.000000e+00
0.000000e+00
0.000000e+00
0.000000e+00
0.000000e+00
0.000000e+00
0.000000e+00
0.000000e+00
0.000000e+00
0.000000e+00
0.000000e+00
0.000000e+00
0.000000e+00
0.000000e+00
0.000000e+00
0.000000e+00
0.000000e+00
0.000000e+00
0.000000e+00
0.000000e+00
0.000000e+00
0.000000e+00
0.000000e+00
0.000000e+00
0.000000e+00
0.000000e+00
0.000000e+00
6.250000e+00
6.250000e+00
6.250000e+00
6.250000e+00
6.250000e+00
6.250000e+00
6.250000e+00
6.250000e+00
6.250000e+00
6.250000e+00
6.250000e+00
6.250000e+00
6.250000e+00
6.250000e+00
6.250000e+00
6.250000e+00
6.250000e+00
6.250000e+00
6.250000e+00
6.250000e+00
6.250000e+00
6.250000e+00
6.250000e+00
6.250000e+00
6.250000e+00
6.250000e+00
6.250000e+00
6.250000e+00
6.250000e+00
6.250000e+00
6.250000e+00
6.250000e+00
6.250000e+00
1.250000e+01
1.250000e+01
1.250000e+01
1.250000e+01
1.250000e+01
1.250000e+01
1.250000e+01
1.250000e+01
1.250000e+01
1.250000e+01
1.250000e+01
1.250000e+01
1.250000e+01
1.250000e+01
1.250000e+01
1.250000e+01
1.250000e+01
1.250000e+01
1.250000e+01
1.250000e+01
1.250000e+01
1.250000e+01
1.250000e+01
1.250000e+01
1.250000e+01
1.250000e+01
1.250000e+01
1.250000e+01
1.250000e+01
1.250000e+01
1.250000e+01
1.250000e+01
1.250000e+01
1.875000e+01
1.875000e+01
1.875000e+01
1.875000e+01
1.875000e+01
1.875000e+01
1.875000e+01
1.875000e+01
1.875000e+01
1.875000e+01
1.875000e+01
1.875000e+01
1.875000e+01
1.875000e+01
1.875000e+01
1.875000e+01
1.875000e+01
1.875000e+01
1.875000e+01
1.875000e+01
1.875000e+01
1.875000e+01
1.875000e+01
1.875000e+01
1.875000e+01
1.875000e+01
1.875000e+01
1.875000e+01
1.875000e+01
1.875000e+01
1.875000e+01
1.875000e+01
1.875000e+01
2.500000e+01
2.500000e+01
2.500000e+01
2.500000e+01
2.500000e+01
2.500000e+01
2.500000e+01
2.500000e+01
2.500000e+01
2.500000e+01
2.500000e+01
2.500000e+01
2.500000e+01
2.500000e+01
2.500000e+01
2.500000e+01
2.500000e+01
2.500000e+01
2.500000e+01
2.500000e+01
2.500000e+01
2.500000e+01
2.500000e+01
2.500000e+01
2.500000e+01
2.500000e+01
2.500000e+01
2.500000e+01
2.500000e+01
2.500000e+01
2.500000e+01
2.500000e+01
2.500000e+01
3.125000e+01
3.125000e+01
3.125000e+01
3.125000e+01
3.125000e+01
3.125000e+01
3.125000e+01
3.125000e+01
3.125000e+01
3.125000e+01
3.125000e+01
3.125000e+01
3.125000e+01
3.125000e+01
3.125000e+01
3.125000e+01
3.125000e+01
3.125000e+01
3.125000e+01
3.125000e+01
3.125000e+01
3.125000e+01
3.125000e+01
3.125000e+01
3.125000e+01
3.125000e+01
3.125000e+01
3.125000e+01
3.125000e+01
3.125000e+01
3.125000e+01
3.125000e+01
3.125000e+01
3.750000e+01
3.750000e+01
3.750000e+01
3.750000e+01
3.750000e+01
3.750000e+01
3.750000e+01
3.750000e+01
3.750000e+01
3.750000e+01
3.750000e+01
3.750000e+01
3.750000e+01
3.750000e+01
3.750000e+01
3.750000e+01
3.750000e+01
3.750000e+01
3.750000e+01
3.750000e+01
3.750000e+01
3.750000e+01
3.750000e+01
3.750000e+01
3.750000e+01
3.750000e+01
3.750000e+01
3.750000e+01
3.750000e+01
3.750000e+01
3.750000e+01
3.750000e+01
3.750000e+01
4.375000e+01
4.375000e+01
4.375000e+01
4.375000e+01
4.375000e+01
4.375000e+01
4.375000e+01
4.375000e+01
4.375000e+01
4.375000e+01
4.375000e+01
4.375000e+01
4.375000e+01
4.375000e+01
4.375000e+01
4.375000e+01
4.375000e+01
4.375000e+01
4.375000e+01
4.375000e+01
4.375000e+01
4.375000e+01
4.375000e+01
4.375000e+01
4.375000e+01
4.375000e+01
4.375000e+01
4.375000e+01
4.375000e+01
4.375000e+01
4.375000e+01
4.375000e+01
4.375000e+01
5.000000e+01
5.000000e+01
5.000000e+01
5.000000e+01
5.000000e+01
5.000000e+01
5.000000e+01
5.000000e+01
5.000000e+01
5.000000e+01
5.000000e+01
5.000000e+01
5.000000e+01
5.000000e+01
5.000000e+01
5.000000e+01
5.000000e+01
5.000000e+01
5.000000e+01
5.000000e+01
5.000000e+01
5.000000e+01
5.000000e+01
5.000000e+01
5.000000e+01
5.000000e+01
5.000000e+01
5.000000e+01
5.000000e+01
5.000000e+01
5.000000e+01
5.000000e+01
5.000000e+01
5.625000e+01
5.625000e+01
5.625000e+01
5.625000e+01
5.625000e+01
5.625000e+01
5.625000e+01
5.625000e+01
5.625000e+01
5.625000e+01
5.625000e+01
5.625000e+01
5.625000e+01
5.625000e+01
5.625000e+01
5.625000e+01
5.625000e+01
5.625000e+01
5.625000e+01
5.625000e+01
5.625000e+01
5.625000e+01
5.625000e+01
5.625000e+01
5.625000e+01
5.625000e+01
5.625000e+01
5.625000e+01
5.625000e+01
5.625000e+01
5.625000e+01
5.625000e+01
5.625000e+01
6.250000e+01
6.250000e+01
6.250000e+01
6.250000e+01
6.250000e+01
6.250000e+01
6.250000e+01
6.250000e+01
6.250000e+01
6.250000e+01
6.250000e+01
6.250000e+01
6.250000e+01
6.250000e+01
6.250000e+01
6.250000e+01
6.250000e+01
6.250000e+01
6.250000e+01
6.250000e+01
6.250000e+01
6.250000e+01
6.250000e+01
6.250000e+01
6.250000e+01
6.250000e+01
6.250000e+01
6.250000e+01
6.250000e+01
6.250000e+01
6.250000e+01
6.250000e+01
6.250000e+01
6.875000e+01
6.875000e+01
6.875000e+01
6.875000e+01
6.875000e+01
6.875000e+01
6.875000e+01
6.875000e+01
6.875000e+01
6.875000e+01
6.875000e+01
6.875000e+01
6.875000e+01
6.875000e+01
6.875000e+01
6.875000e+01
6.875000e+01
6.875000e+01
6.875000e+01
6.875000e+01
6.875000e+01
6.875000e+01
6.875000e+01
6.875000e+01
6.875000e+01
6.875000e+01
6.875000e+01
6.875000e+01
6.875000e+01
6.875000e+01
6.875000e+01
6.875000e+01
6.875000e+01
7.500000e+01
7.500000e+01
7.500000e+01
7.500000e+01
7.500000e+01
7.500000e+01
7.500000e+01
7.500000e+01
7.500000e+01
7.500000e+01
7.500000e+01
7.500000e+01
7.500000e+01
7.500000e+01
7.500000e+01
7.500000e+01
7.500000e+01
7.500000e+01
7.500000e+01
7.500000e+01
7.500000e+01
7.500000e+01
7.500000e+01
7.500000e+01
7.500000e+01
7.500000e+01
7.500000e+01
7.500000e+01
7.500000e+01
7.500000e+01
7.500000e+01
7.500000e+01
7.500000e+01
8.125000e+01
8.125000e+01
8.125000e+01
8.125000e+01
8.125000e+01
8.125000e+01
8.125000e+01
8.125000e+01
8.125000e+01
8.125000e+01
8.125000e+01
8.125000e+01
8.125000e+01
8.125000e+01
8.125000e+01
8.125000e+01
8.125000e+01
8.125000e+01
8.125000e+01
8.125000e+01
8.125000e+01
8.125000e+01
8.125000e+01
8.125000e+01
8.125000e+01
8.125000e+01
8.125000e+01
8.125000e+01
8.125000e+01
8.125000e+01
8.125000e+01
8.125000e+01
8.125000e+01
8.750000e+01
8.750000e+01
8.750000e+01
8.750000e+01
8.750000e+01
8.750000e+01
8.750000e+01
8.750000e+01
8.750000e+01
8.750000e+01
8.750000e+01
8.750000e+01
8.750000e+01
8.750000e+01
8.750000e+01
8.750000e+01
8.750000e+01
8.750000e+01
8.750000e+01
8.750000e+01
8.750000e+01
8.750000e+01
8.750000e+01
8.750000e+01
8.750000e+01
8.750000e+01
8.750000e+01
8.750000e+01
8.750000e+01
8.750000e+01
8.750000e+01
8.750000e+01
8.750000e+01
9.375000e+01
9.375000e+01
9.375000e+01
9.375000e+01
9.375000e+01
9.375000e+01
9.375000e+01
9.375000e+01
9.375000e+01
9.375000e+01
9.375000e+01
9.375000e+01
9.375000e+01
9.375000e+01
9.375000e+01
9.375000e+01
9.375000e+01
9.375000e+01
9.375000e+01
9.375000e+01
9.375000e+01
9.375000e+01
9.375000e+01
9.375000e+01
9.375000e+01
9.375000e+01
9.375000e+01
9.375000e+01
9.375000e+01
9.375000e+01
9.375000e+01
9.375000e+01
9.375000e+01
1.000000e+02
1.000000e+02
1.000000e+02
1.000000e+02
1.000000e+02
1.000000e+02
1.000000e+02
1.000000e+02
1.000000e+02
1.000000e+02
1.000000e+02
1.000000e+02
1.000000e+02
1.000000e+02
1.000000e+02
1.000000e+02
1.000000e+02
1.000000e+02
1.000000e+02
1.000000e+02
1.000000e+02
1.000000e+02
1.000000e+02
1.000000e+02
1.000000e+02
1.000000e+02
1.000000e+02
1.000000e+02
1.000000e+02
1.000000e+02
1.000000e+02
1.000000e+02
1.000000e+02
0.000000e+00
-4.723423e-01
-7.827483e-01
-1.122773e+00
-1.424402e+00
-1.716299e+00
-2.028289e+00
-2.315553e+00
-2.615224e+00
-2.908815e+00
-3.205842e+00
-3.505050e+00
-3.804459e+00
-4.103984e+00
-4.404169e+00
-4.705062e+00
-5.007833e+00
-5.311249e+00
-5.613835e+00
-5.916377e+00
-6.218472e+00
-6.520361e+00
-6.822656e+00
-7.119985e+00
-7.413295e+00
-7.718219e+00
-8.017399e+00
-8.348533e+00
-8.667428e+00
-9.020685e+00
-9.509925e+00
-9.926370e+00
-1.013047e+01
0.000000e+00
-2.335506e-01
-4.702212e-01
-7.357595e-01
-1.001736e+00
-1.254459e+00
-1.524363e+00
-1.784636e+00
-2.047170e+00
-2.312145e+00
-2.572674e+00
-2.837759e+00
-3.098176e+00
-3.362076e+00
-3.623416e+00
-3.885705e+00
-4.148234e+00
-4.408733e+00
-4.671824e+00
-4.931685e+00
-5.194191e+00
-5.454346e+00
-5.715910e+00
-5.976168e+00
-6.237296e+00
-6.498439e+00
-6.757833e+00
-7.022085e+00
-7.276351e+00
-7.533183e+00
-7.787710e+00
-7.888880e+00
-7.994698e+00
0.000000e+00
-1.027864e-01
-2.376876e-01
-4.342252e-01
-6.529709e-01
-8.602456e-01
-1.086018e+00
-1.313641e+00
-1.540996e+00
-1.772653e+00
-1.996699e+00
-2.223737e+00
-2.445988e+00
-2.671200e+00
-2.894873e+00
-3.117519e+00
-3.339901e+00
-3.560114e+00
-3.783762e+00
-4.005780e+00
-4.230825e+00
-4.454063e+00
-4.678475e+00
-4.907791e+00
-5.137783e+00
-5.360810e+00
-5.573051e+00
-5.770412e+00
-5.949942e+00
-6.098906e+00
-6.186598e+00
-6.192231e+00
-6.285116e+00
0.000000e+00
-1.024735e-01
-1.858848e-01
-3.413616e-01
-4.643761e-01
-6.188840e-01
-7.959751e-01
-9.655868e-01
-1.159077e+00
-1.336688e+00
-1.521704e+00
-1.704333e+00
-1.886038e+00
-2.071948e+00
-2.255920e+00
-2.441485e+00
-2.626287e+00
-2.812964e+00
-3.002751e+00
-3.194124e+00
-3.388243e+00
-3.581803e+00
-3.776401e+00
-3.971691e+00
-4.157713e+00
-4.331676e+00
-4.481003e+00
-4.613281e+00
-4.714123e+00
-4.777618e+00
-4.792756e+00
-4.810123e+00
-4.890567e+00
0.000000e+00
-9.306317e-02
-1.846578e-01
-2.756515e-01
-3.892276e-01
-5.049404e-01
-6.371663e-01
-7.715757e-01
-9.166277e-01
-1.057613e+00
-1.203844e+00
-1.349210e+00
-1.492550e+00
-1.642233e+00
-1.785003e+00
-1.935404e+00
-2.080793e+00
-2.230214e+00
-2.379925e+00
-2.528378e+00
-2.679192e+00
-2.825298e+00
-2.970109e+00
-3.107499e+00
-3.235944e+00
-3.350008e+00
-3.446957e+00
-3.520941e+00
-3.569492e+00
-3.593959e+00
-3.597391e+00
-3.627143e+00
-3.698508e+00
0.000000e+00
-7.446120e-02
-1.459594e-01
-2.209892e-01
-3.024747e-01
-3.920612e-01
-4.868602e-01
-5.881344e-01
-6.918958e-01
-7.997672e-01
-9.072145e-01
-1.016030e+00
-1.124793e+00
-1.232792e+00
-1.342256e+00
-1.450203e+00
-1.559571e+00
-1.667565e+00
-1.775390e+00
-1.881998e+00
-1.985971e+00
-2.087016e+00
-2.181894e+00
-2.269578e+00
-2.347202e+00
-2.412873e+00
-2.464223e+00
-2.499079e+00
-2.521695e+00
-2.522118e+00
-2.517363e+00
-2.543784e+00
-2.609613e+00
0.000000e+00
-5.129775e-02
-1.020436e-01
-1.539140e-01
-2.093995e-01
-2.687784e-01
-3.322092e-01
-3.986332e-01
-4.678694e-01
-5.385633e-01
-6.102609e-01
-6.820334e-01
-7.535884e-01
-8.249429e-01
-8.957598e-01
-9.664154e-01
-1.036225e+00
-1.105188e+00
-1.172589e+00
-1.237870e+00
-1.300180e+00
-1.358106e+00
-1.410292e+00
-1.454851e+00
-1.490830e+00
-1.515972e+00
-1.529997e+00
-1.535548e+00
-1.519173e+00
-1.489168e+00
-1.477856e+00
-1.501108e+00
-1.565343e+00
0.000000e+00
-2.704329e-02
-5.393380e-02
-8.140228e-02
-1.101605e-01
-1.406573e-01
-1.727699e-01
-2.063539e-01
-2.409898e-01
-2.763496e-01
-3.118780e-01
-3.472159e-01
-3.820723e-01
-4.162800e-01
-4.498250e-01
-4.825211e-01
-5.141801e-01
-5.443557e-01
-5.727107e-01
-5.987197e-01
-6.217077e-01
-6.408602e-01
-6.549096e-01
-6.629019e-01
-6.632224e-01
-6.566650e-01
-6.408502e-01
-6.022984e-01
-5.525411e-01
-5.009545e-01
-4.738953e-01
-4.969994e-01
-5.639785e-01
0.000000e+00
-1.999864e-03
-4.047927e-03
-6.057859e-03
-7.915383e-03
-9.493718e-03
-1.073067e-02
-1.163569e-02
-1.226353e-02
-1.259254e-02
-1.251313e-02
-1.186553e-02
-1.049942e-02
-8.252387e-03
-4.887935e-03
-3.101645e-04
5.730597e-03
1.367869e-02
2.359218e-02
3.535115e-02
4.959765e-02
6.656124e-02
8.584794e-02
1.103010e-01
1.407883e-01
1.821968e-01
2.427288e-01
3.151462e-01
3.886061e-01
4.395805e-01
4.552989e-01
4.228738e-01
3.427702e-01
0.000000e+00
2.319500e-02
4.616120e-02
6.977504e-02
9.499939e-02
1.225455e-01
1.524537e-01
1.844596e-01
2.180062e-01
2.526531e-01
2.880412e-01
3.240463e-01
3.606415e-01
3.983023e-01
4.375725e-01
4.788015e-01
5.225022e-01
5.683435e-01
6.162624e-01
6.656740e-01
7.154080e-01
7.666267e-01
8.221970e-01
8.816535e-01
9.491777e-01
1.032409e+00
1.122354e+00
1.214054e+00
1.288538e+00
1.332377e+00
1.329246e+00
1.283139e+00
1.220255e+00
0.000000e+00
4.785693e-02
9.517725e-02
1.437223e-01
1.962065e-01
2.533667e-01
3.153487e-01
3.810325e-01
4.496461e-01
5.198420e-01
5.907844e-01
6.615742e-01
7.323337e-01
8.038250e-01
8.772520e-01
9.544550e-01
1.035700e+00
1.119650e+00
1.205267e+00
1.291992e+00
1.381792e+00
1.471227e+00
1.563380e+00
1.666384e+00
1.775089e+00
1.885885e+00
1.995414e+00
2.084191e+00
2.148141e+00
2.174606e+00
2.166979e+00
2.137067e+00
2.092950e+00
0.000000e+00
7.147056e-02
1.402524e-01
2.129661e-01
2.925893e-01
3.811900e-01
4.763816e-01
5.776557e-01
6.820959e-01
7.899686e-01
8.981389e-01
1.006835e+00
1.114885e+00
1.223502e+00
1.333027e+00
1.443235e+00
1.557154e+00
1.674502e+00
1.794277e+00
1.917357e+00
2.045954e+00
2.182386e+00
2.324520e+00
2.466804e+00
2.605041e+00
2.734295e+00
2.846563e+00
2.935485e+00
2.990954e+00
3.018905e+00
3.022396e+00
3.004370e+00
2.976834e+00
0.000000e+00
9.025575e-02
1.792843e-01
2.693674e-01
3.836557e-01
5.028008e-01
6.353816e-01
7.729011e-01
9.167961e-01
1.059848e+00
1.206782e+00
1.353113e+00
1.500347e+00
1.651588e+00
1.802337e+00
1.957431e+00
2.112499e+00
2.272576e+00
2.438366e+00
2.604912e+00
2.774058e+00
2.946147e+00
3.116258e+00
3.280909e+00
3.433926e+00
3.575083e+00
3.696056e+00
3.786832e+00
3.853326e+00
3.892482e+00
3.905397e+00
3.898872e+00
3.884362e+00
0.000000e+00
9.866487e-02
1.795203e-01
3.322992e-01
4.600484e-01
6.232234e-01
8.053541e-01
9.747406e-01
1.168485e+00
1.345474e+00
1.528144e+00
1.708110e+00
1.890874e+00
2.080598e+00
2.274713e+00
2.476462e+00
2.680530e+00
2.886049e+00
3.096295e+00
3.309592e+00
3.519981e+00
3.724820e+00
3.921012e+00
4.105659e+00
4.280382e+00
4.437762e+00
4.572997e+00
4.679911e+00
4.756462e+00
4.804232e+00
4.826428e+00
4.829236e+00
4.824498e+00
0.000000e+00
1.004391e-01
2.311092e-01
4.196348e-01
6.369226e-01
8.474601e-01
1.078767e+00
1.310017e+00
1.539986e+00
1.774616e+00
1.998164e+00
2.223956e+00
2.445634e+00
2.672277e+00
2.900097e+00
3.131627e+00
3.365871e+00
3.597098e+00
3.828536e+00
4.061046e+00
4.295360e+00
4.524253e+00
4.744677e+00
4.965915e+00
5.177011e+00
5.363576e+00
5.513149e+00
5.627831e+00
5.710307e+00
5.763180e+00
5.790871e+00
5.799923e+00
5.801034e+00
0.000000e+00
2.337972e-01
4.714947e-01
7.363594e-01
1.001667e+00
1.253886e+00
1.523044e+00
1.783738e+00
2.045624e+00
2.310317e+00
2.570212e+00
2.834438e+00
3.093778e+00
3.355822e+00
3.615600e+00
3.875247e+00
4.135303e+00
4.392671e+00
4.650519e+00
4.904399e+00
5.159792e+00
5.413115e+00
5.666393e+00
5.924934e+00
6.169053e+00
6.369922e+00
6.527411e+00
6.644210e+00
6.724399e+00
6.773598e+00
6.798737e+00
6.807842e+00
6.810080e+00
0.000000e+00
4.735239e-01
7.901008e-01
1.135492e+00
1.440043e+00
1.729646e+00
2.037762e+00
2.322437e+00
2.619015e+00
2.910032e+00
3.205732e+00
3.505337e+00
3.802881e+00
4.100266e+00
4.393866e+00
4.684942e+00
4.972239e+00
5.261342e+00
5.551885e+00
5.839776e+00
6.127511e+00
6.415416e+00
6.707360e+00
7.000094e+00
7.265743e+00
7.476561e+00
7.634708e+00
7.743572e+00
7.808429e+00
7.837544e+00
7.842636e+00
7.838018e+00
7.835464e+00
0.000000e+00
-2.792539e-01
-5.897143e-01
-9.867629e-01
-1.419197e+00
-1.889004e+00
-2.399453e+00
-2.940533e+00
-3.517118e+00
-4.125113e+00
-4.766987e+00
-5.444892e+00
-6.159288e+00
-6.911817e+00
-7.701141e+00
-8.529011e+00
-9.395259e+00
-1.030178e+01
-1.124830e+01
-1.223446e+01
-1.326072e+01
-1.432667e+01
-1.543404e+01
-1.658116e+01
-1.776578e+01
-1.898949e+01
-2.025661e+01
-2.157777e+01
-2.295946e+01
-2.442220e+01
-2.598297e+01
-2.779097e+01
-3.032825e+01
0.000000e+00
-1.802240e-01
-5.092712e-01
-8.990042e-01
-1.338280e+00
-1.804566e+00
-2.314893e+00
-2.858119e+00
-3.432910e+00
-4.041999e+00
-4.682822e+00
-5.361048e+00
-6.075185e+00
-6.827936e+00
-7.617259e+00
-8.444839e+00
-9.311202e+00
-1.021739e+01
-1.116433e+01
-1.215026e+01
-1.317670e+01
-1.424230e+01
-1.534978e+01
-1.649772e+01
-1.768205e+01
-1.890531e+01
-2.017089e+01
-2.149040e+01
-2.287367e+01
-2.432728e+01
-2.590738e+01
-2.770260e+01
-2.995344e+01
0.000000e+00
-1.593347e-01
-4.501462e-01
-8.425304e-01
-1.271725e+00
-1.735666e+00
-2.243995e+00
-2.784998e+00
-3.361198e+00
-3.969035e+00
-4.611029e+00
-5.289351e+00
-6.003648e+00
-6.756500e+00
-7.546424e+00
-8.374098e+00
-9.241033e+00
-1.014686e+01
-1.109373e+01
-1.207951e+01
-1.310575e+01
-1.417108e+01
-1.527691e+01
-1.642427e+01
-1.760959e+01
-1.883568e+01
-2.010313e+01
-2.142777e+01
-2.281481e+01
-2.428889e+01
-2.591193e+01
-2.759655e+01
-2.934483e+01
0.000000e+00
-2.047691e-01
-4.501882e-01
-8.391661e-01
-1.237109e+00
-1.689957e+00
-2.196800e+00
-2.724666e+00
-3.307458e+00
-3.909390e+00
-4.554510e+00
-5.233160e+00
-5.945629e+00
-6.701384e+00
-7.488786e+00
-8.319624e+00
-9.184994e+00
-1.009124e+01
-1.103777e+01
-1.202221e+01
-1.304948e+01
-1.411341e+01
-1.521845e+01
-1.636548e+01
-1.755326e+01
-1.878556e+01
-2.005915e+01
-2.139096e+01
-2.278673e+01
-2.428047e+01
-2.589608e+01
-2.744581e+01
-2.884497e+01
0.000000e+00
-2.208460e-01
-4.890533e-01
-8.343381e-01
-1.234906e+00
-1.670438e+00
-2.167604e+00
-2.689775e+00
-3.267499e+00
-3.869411e+00
-4.513508e+00
-5.194072e+00
-5.904882e+00
-6.663446e+00
-7.448678e+00
-8.281904e+00
-9.146261e+00
-1.005268e+01
-1.099919e+01
-1.198255e+01
-1.301044e+01
-1.407405e+01
-1.518053e+01
-1.632829e+01
-1.751976e+01
-1.875539e+01
-2.003719e+01
-2.137251e+01
-2.277086e+01
-2.426052e+01
-2.579569e+01
-2.724485e+01
-2.851196e+01
0.000000e+00
-2.277546e-01
-5.055027e-01
-8.403151e-01
-1.228294e+00
-1.663606e+00
-2.145971e+00
-2.670638e+00
-3.237774e+00
-3.842640e+00
-4.484766e+00
-5.164468e+00
-5.879720e+00
-6.633819e+00
-7.424506e+00
-8.253860e+00
-9.121374e+00
-1.002753e+01
-1.097395e+01
-1.195981e+01
-1.298668e+01
-1.405373e+01
-1.516187e+01
-1.631240e+01
-1.750599e+01
-1.874354e+01
-2.002792e+01
-2.136261e+01
-2.275013e+01
-2.419950e+01
-2.564075e+01
-2.700886e+01
-2.821408e+01
0.000000e+00
-2.314450e-01
-5.117200e-01
-8.435160e-01
-1.226209e+00
-1.657495e+00
-2.135230e+00
-2.657140e+00
-3.221164e+00
-3.824994e+00
-4.467228e+00
-5.146870e+00
-5.863705e+00
-6.617819e+00
-7.409495e+00
-8.239208e+00
-9.107413e+00
-1.001487e+01
-1.096216e+01
-1.194988e+01
-1.297838e+01
-1.404792e+01
-1.515892e+01
-1.631158e+01
-1.750650e+01
-1.874430e+01
-2.002477e+01
-2.135614e+01
-2.271121e+01
-2.410933e+01
-2.548603e+01
-2.678645e+01
-2.792835e+01
0.000000e+00
-2.328448e-01
-5.140426e-01
-8.449511e-01
-1.225593e+00
-1.654729e+00
-2.130537e+00
-2.650956e+00
-3.213924e+00
-3.817497e+00
-4.460073e+00
-5.140555e+00
-5.858313e+00
-6.613255e+00
-7.405602e+00
-8.235951e+00
-9.105075e+00
-1.001368e+01
-1.096240e+01
-1.195180e+01
-1.298230e+01
-1.405415e+01
-1.516736e+01
-1.632197e+01
-1.751582e+01
-1.875351e+01
-2.002624e+01
-2.133851e+01
-2.265892e+01
-2.400347e+01
-2.533464e+01
-2.657828e+01
-2.766449e+01
0.000000e+00
-2.331345e-01
-5.146367e-01
-8.455732e-01
-1.226070e+00
-1.655141e+00
-2.131042e+00
-2.651726e+00
-3.215165e+00
-3.819511e+00
-4.463168e+00
-5.144844e+00
-5.863736e+00
-6.619627e+00
-7.412710e+00
-8.243660e+00
-9.113725e+00
-1.002357e+01
-1.097350e+01
-1.196430e+01
-1.299652e+01
-1.406964e+01
-1.518415e+01
-1.633951e+01
-1.753234e+01
-1.876457e+01
-2.002306e+01
-2.130605e+01
-2.260257e+01
-2.389594e+01
-2.516722e+01
-2.633562e+01
-2.732683e+01
0.000000e+00
-2.326811e-01
-5.140988e-01
-8.457070e-01
-1.227658e+00
-1.658675e+00
-2.136671e+00
-2.659352e+00
-3.224629e+00
-3.830737e+00
-4.476141e+00
-5.159375e+00
-5.879483e+00
-6.636480e+00
-7.430511e+00
-8.261819e+00
-9.133101e+00
-1.004424e+01
-1.099519e+01
-1.198606e+01
-1.301997e+01
-1.409284e+01
-1.520569e+01
-1.636293e+01
-1.754854e+01
-1.876868e+01
-2.001010e+01
-2.127004e+01
-2.253733e+01
-2.379396e+01
-2.499900e+01
-2.610021e+01
-2.705918e+01
0.000000e+00
-2.312094e-01
-5.118991e-01
-8.450122e-01
-1.230379e+00
-1.665610e+00
-2.147854e+00
-2.674234e+00
-3.242630e+00
-3.851247e+00
-4.498833e+00
-5.183618e+00
-5.904612e+00
-6.663010e+00
-7.457997e+00
-8.290466e+00
-9.163271e+00
-1.007553e+01
-1.102772e+01
-1.201738e+01
-1.305070e+01
-1.412148e+01
-1.523205e+01
-1.638285e+01
-1.755982e+01
-1.876447e+01
-1.999476e+01
-2.123232e+01
-2.247400e+01
-2.368965e+01
-2.484918e+01
-2.591837e+01
-2.686690e+01
0.000000e+00
-2.275734e-01
-5.059755e-01
-8.425859e-01
-1.234520e+00
-1.676617e+00
-2.165768e+00
-2.697105e+00
-3.270218e+00
-3.881775e+00
-4.531352e+00
-5.217374e+00
-5.938438e+00
-6.697967e+00
-7.494057e+00
-8.329264e+00
-9.203594e+00
-1.011702e+01
-1.106907e+01
-1.205797e+01
-1.308626e+01
-1.415340e+01
-1.525814e+01
-1.639857e+01
-1.756635e+01
-1.876148e+01
-1.997987e+01
-2.120464e+01
-2.241942e+01
-2.360589e+01
-2.473598e+01
-2.578918e+01
-2.674168e+01
0.000000e+00
-2.205784e-01
-4.899414e-01
-8.378096e-01
-1.243092e+00
-1.690511e+00
-2.194742e+00
-2.727275e+00
-3.310119e+00
-3.921744e+00
-4.574103e+00
-5.260545e+00
-5.980913e+00
-6.743393e+00
-7.539749e+00
-8.378774e+00
-9.254006e+00
-1.016648e+01
-1.111705e+01
-1.210261e+01
-1.312566e+01
-1.418729e+01
-1.528391e+01
-1.641469e+01
-1.757529e+01
-1.876686e+01
-1.997952e+01
-2.118961e+01
-2.238456e+01
-2.354573e+01
-2.465722e+01
-2.570343e+01
-2.667067e+01
0.000000e+00
-2.034978e-01
-4.510438e-01
-8.434635e-01
-1.250354e+00
-1.716555e+00
-2.234293e+00
-2.770336e+00
-3.360758e+00
-3.971887e+00
-4.624809e+00
-5.310731e+00
-6.033704e+00
-6.798153e+00
-7.598096e+00
-8.438393e+00
-9.313857e+00
-1.022454e+01
-1.117156e+01
-1.215311e+01
-1.317105e+01
-1.422538e+01
-1.531317e+01
-1.643660e+01
-1.759869e+01
-1.879039e+01
-1.999578e+01
-2.119086e+01
-2.236685e+01
-2.350964e+01
-2.460761e+01
-2.565244e+01
-2.663993e+01
0.000000e+00
-1.565045e-01
-4.489214e-01
-8.464526e-01
-1.287895e+00
-1.765748e+00
-2.286043e+00
-2.835470e+00
-3.419803e+00
-4.035148e+00
-4.683887e+00
-5.370786e+00
-6.095641e+00
-6.861066e+00
-7.664194e+00
-8.504296e+00
-9.379637e+00
-1.028841e+01
-1.123300e+01
-1.221190e+01
-1.322553e+01
-1.427321e+01
-1.535389e+01
-1.647832e+01
-1.764331e+01
-1.883217e+01
-2.002319e+01
-2.120488e+01
-2.236544e+01
-2.349401e+01
-2.458201e+01
-2.562688e+01
-2.663472e+01
0.000000e+00
-1.768550e-01
-5.070113e-01
-9.032816e-01
-1.355365e+00
-1.836029e+00
-2.358006e+00
-2.910455e+00
-3.492979e+00
-4.108963e+00
-4.756208e+00
-5.443086e+00
-6.168198e+00
-6.934076e+00
-7.737581e+00
-8.577857e+00
-9.452222e+00
-1.035934e+01
-1.130272e+01
-1.228018e+01
-1.329210e+01
-1.433656e+01
-1.541784e+01
-1.654363e+01
-1.770520e+01
-1.888153e+01
-2.005927e+01
-2.122791e+01
-2.237604e+01
-2.349349e+01
-2.457371e+01
-2.561768e+01
-2.663939e+01
0.000000e+00
-2.767126e-01
-5.885956e-01
-9.918840e-01
-1.436440e+00
-1.919866e+00
-2.442156e+00
-2.992653e+00
-3.576901e+00
-4.191770e+00
-4.840378e+00
-5.526913e+00
-6.251971e+00
-7.017420e+00
-7.820245e+00
-8.660041e+00
-9.533433e+00
-1.044065e+01
-1.138309e+01
-1.236003e+01
-1.337154e+01
-1.441614e+01