TITLE = "Solution"
VARIABLES = x, y, u, v, psiu, psiv, t, stress
ZONE T="structure" N=561 E=512 F=FEBLOCK ET=QUADRILATERAL VARLOCATION=([7,8]=cellcentered)
0.000000e+00
6.250000e+00
1.250000e+01
1.875000e+01
2.500000e+01
3.125000e+01
3.750000e+01
4.375000e+01
5.000000e+01
5.625000e+01
6.250000e+01
6.875000e+01
7.500000e+01
8.125000e+01
8.750000e+01
9.375000e+01
1.000000e+02
1.062500e+02
1.125000e+02
1.187500e+02
1.250000e+02
1.312500e+02
1.375000e+02
1.437500e+02
1.500000e+02
1.562500e+02
1.625000e+02
1.687500e+02
1.750000e+02
1.812500e+02
1.875000e+02
1.937500e+02
2.000000e+02
0.000000e+00
6.250000e+00
1.250000e+01
1.875000e+01
2.500000e+01
3.125000e+01
3.750000e+01
4.375000e+01
5.000000e+01
5.625000e+01
6.250000e+01
6.875000e+01
7.500000e+01
8.125000e+01
8.750000e+01
9.375000e+01
1.000000e+02
1.062500e+02
1.125000e+02
1.187500e+02
1.250000e+02
1.312500e+02
1.375000e+02
1.437500e+02
1.500000e+02
1.562500e+02
1.625000e+02
1.687500e+02
1.750000e+02
1.812500e+02
1.875000e+02
1.937500e+02
2.000000e+02
0.000000e+00
6.250000e+00
1.250000e+01
1.875000e+01
2.500000e+01
3.125000e+01
3.750000e+01
4.375000e+01
5.000000e+01
5.625000e+01
6.250000e+01
6.875000e+01
7.500000e+01
8.125000e+01
8.750000e+01
9.375000e+01
1.000000e+02
1.062500e+02
1.125000e+02
1.187500e+02
1.250000e+02
1.312500e+02
1.375000e+02
1.437500e+02
1.500000e+02
1.562500e+02
1.625000e+02
1.687500e+02
1.750000e+02
1.812500e+02
1.875000e+02
1.937500e+02
2.000000e+02
0.000000e+00
6.250000e+00
1.250000e+01
1.875000e+01
2.500000e+01
3.125000e+01
3.750000e+01
4.375000e+01
5.000000e+01
5.625000e+01
6.250000e+01
6.875000e+01
7.500000e+01
8.125000e+01
8.750000e+01
9.375000e+01
1.000000e+02
1.062500e+02
1.125000e+02
1.187500e+02
1.250000e+02
1.312500e+02
1.375000e+02
1.437500e+02
1.500000e+02
1.562500e+02
1.625000e+02
1.687500e+02
1.750000e+02
1.812500e+02
1.875000e+02
1.937500e+02
2.000000e+02
0.000000e+00
6.250000e+00
1.250000e+01
1.875000e+01
2.500000e+01
3.125000e+01
3.750000e+01
4.375000e+01
5.000000e+01
5.625000e+01
6.250000e+01
6.875000e+01
7.500000e+01
8.125000e+01
8.750000e+01
9.375000e+01
1.000000e+02
1.062500e+02
1.125000e+02
1.187500e+02
1.250000e+02
1.312500e+02
1.375000e+02
1.437500e+02
1.500000e+02
1.562500e+02
1.625000e+02
1.687500e+02
1.750000e+02
1.812500e+02
1.875000e+02
1.937500e+02
2.000000e+02
0.000000e+00
6.250000e+00
1.250000e+01
1.875000e+01
2.500000e+01
3.125000e+01
3.750000e+01
4.375000e+01
5.000000e+01
5.625000e+01
6.250000e+01
6.875000e+01
7.500000e+01
8.125000e+01
8.750000e+01
9.375000e+01
1.000000e+02
1.062500e+02
1.125000e+02
1.187500e+02
1.250000e+02
1.312500e+02
1.375000e+02
1.437500e+02
1.500000e+02
1.562500e+02
1.625000e+02
1.687500e+02
1.750000e+02
1.812500e+02
1.875000e+02
1.937500e+02
2.000000e+02
0.000000e+00
6.250000e+00
1.250000e+01
1.875000e+01
2.500000e+01
3.125000e+01
3.750000e+01
4.375000e+01
5.000000e+01
5.625000e+01
6.250000e+01
6.875000e+01
7.500000e+01
8.125000e+01
8.750000e+01
9.375000e+01
1.000000e+02
1.062500e+02
1.125000e+02
1.187500e+02
1.250000e+02
1.312500e+02
1.375000e+02
1.437500e+02
1.500000e+02
1.562500e+02
1.625000e+02
1.687500e+02
1.750000e+02
1.812500e+02
1.875000e+02
1.937500e+02
2.000000e+02
0.000000e+00
6.250000e+00
1.250000e+01
1.875000e+01
2.500000e+01
3.125000e+01
3.750000e+01
4.375000e+01
5.000000e+01
5.625000e+01
6.250000e+01
6.875000e+01
7.500000e+01
8.125000e+01
8.750000e+01
9.375000e+01
1.000000e+02
1.062500e+02
1.125000e+02
1.187500e+02
1.250000e+02
1.312500e+02
1.375000e+02
1.437500e+02
1.500000e+02
1.562500e+02
1.625000e+02
1.687500e+02
1.750000e+02
1.812500e+02
1.875000e+02
1.937500e+02
2.000000e+02
0.000000e+00
6.250000e+00
1.250000e+01
1.875000e+01
2.500000e+01
3.125000e+01
3.750000e+01
4.375000e+01
5.000000e+01
5.625000e+01
6.250000e+01
6.875000e+01
7.500000e+01
8.125000e+01
8.750000e+01
9.375000e+01
1.000000e+02
1.062500e+02
1.125000e+02
1.187500e+02
1.250000e+02
1.312500e+02
1.375000e+02
1.437500e+02
1.500000e+02
1.562500e+02
1.625000e+02
1.687500e+02
1.750000e+02
1.812500e+02
1.875000e+02
1.937500e+02
2.000000e+02
0.000000e+00
6.250000e+00
1.250000e+01
1.875000e+01
2.500000e+01
3.125000e+01
3.750000e+01
4.375000e+01
5.000000e+01
5.625000e+01
6.250000e+01
6.875000e+01
7.500000e+01
8.125000e+01
8.750000e+01
9.375000e+01
1.000000e+02
1.062500e+02
1.125000e+02
1.187500e+02
1.250000e+02
1.312500e+02
1.375000e+02
1.437500e+02
1.500000e+02
1.562500e+02
1.625000e+02
1.687500e+02
1.750000e+02
1.812500e+02
1.875000e+02
1.937500e+02
2.000000e+02
0.000000e+00
6.250000e+00
1.250000e+01
1.875000e+01
2.500000e+01
3.125000e+01
3.750000e+01
4.375000e+01
5.000000e+01
5.625000e+01
6.250000e+01
6.875000e+01
7.500000e+01
8.125000e+01
8.750000e+01
9.375000e+01
1.000000e+02
1.062500e+02
1.125000e+02
1.187500e+02
1.250000e+02
1.312500e+02
1.375000e+02
1.437500e+02
1.500000e+02
1.562500e+02
1.625000e+02
1.687500e+02
1.750000e+02
1.812500e+02
1.875000e+02
1.937500e+02
2.000000e+02
0.000000e+00
6.250000e+00
1.250000e+01
1.875000e+01
2.500000e+01
3.125000e+01
3.750000e+01
4.375000e+01
5.000000e+01
5.625000e+01
6.250000e+01
6.875000e+01
7.500000e+01
8.125000e+01
8.750000e+01
9.375000e+01
1.000000e+02
1.062500e+02
1.125000e+02
1.187500e+02
1.250000e+02
1.312500e+02
1.375000e+02
1.437500e+02
1.500000e+02
1.562500e+02
1.625000e+02
1.687500e+02
1.750000e+02
1.812500e+02
1.875000e+02
1.937500e+02
2.000000e+02
0.000000e+00
6.250000e+00
1.250000e+01
1.875000e+01
2.500000e+01
3.125000e+01
3.750000e+01
4.375000e+01
5.000000e+01
5.625000e+01
6.250000e+01
6.875000e+01
7.500000e+01
8.125000e+01
8.750000e+01
9.375000e+01
1.000000e+02
1.062500e+02
1.125000e+02
1.187500e+02
1.250000e+02
1.312500e+02
1.375000e+02
1.437500e+02
1.500000e+02
1.562500e+02
1.625000e+02
1.687500e+02
1.750000e+02
1.812500e+02
1.875000e+02
1.937500e+02
2.000000e+02
0.000000e+00
6.250000e+00
1.250000e+01
1.875000e+01
2.500000e+01
3.125000e+01
3.750000e+01
4.375000e+01
5.000000e+01
5.625000e+01
6.250000e+01
6.875000e+01
7.500000e+01
8.125000e+01
8.750000e+01
9.375000e+01
1.000000e+02
1.062500e+02
1.125000e+02
1.187500e+02
1.250000e+02
1.312500e+02
1.375000e+02
1.437500e+02
1.500000e+02
1.562500e+02
1.625000e+02
1.687500e+02
1.750000e+02
1.812500e+02
1.875000e+02
1.937500e+02
2.000000e+02
0.000000e+00
6.250000e+00
1.250000e+01
1.875000e+01
2.500000e+01
3.125000e+01
3.750000e+01
4.375000e+01
5.000000e+01
5.625000e+01
6.250000e+01
6.875000e+01
7.500000e+01
8.125000e+01
8.750000e+01
9.375000e+01
1.000000e+02
1.062500e+02
1.125000e+02
1.187500e+02
1.250000e+02
1.312500e+02
1.375000e+02
1.437500e+02
1.500000e+02
1.562500e+02
1.625000e+02
1.687500e+02
1.750000e+02
1.812500e+02
1.875000e+02
1.937500e+02
2.000000e+02
0.000000e+00
6.250000e+00
1.250000e+01
1.875000e+01
2.500000e+01
3.125000e+01
3.750000e+01
4.375000e+01
5.000000e+01
5.625000e+01
6.250000e+01
6.875000e+01
7.500000e+01
8.125000e+01
8.750000e+01
9.375000e+01
1.000000e+02
1.062500e+02
1.125000e+02
1.187500e+02
1.250000e+02
1.312500e+02
1.375000e+02
1.437500e+02
1.500000e+02
1.562500e+02
1.625000e+02
1.687500e+02
1.750000e+02
1.812500e+02
1.875000e+02
1.937500e+02
2.000000e+02
0.000000e+00
6.250000e+00
1.250000e+01
1.875000e+01
2.500000e+01
3.125000e+01
3.750000e+01
4.375000e+01
5.000000e+01
5.625000e+01
6.250000e+01
6.875000e+01
7.500000e+01
8.125000e+01
8.750000e+01
9.375000e+01
1.000000e+02
1.062500e+02
1.125000e+02
1.187500e+02
1.250000e+02
1.312500e+02
1.375000e+02
1.437500e+02
1.500000e+02
1.562500e+02
1.625000e+02
1.687500e+02
1.750000e+02
1.812500e+02
1.875000e+02
1.937500e+02
2.000000e+02
0.000000e+00
0.000000e+00
0.000000e+00
0.000000e+00
0.000000e+00
0.000000e+00
0.000000e+00
0.000000e+00
0.000000e+00
0.000000e+00
0.000000e+00
0.000000e+00
0.000000e+00
0.000000e+00
0.000000e+00
0.000000e+00
0.000000e+00
0.000000e+00
0.000000e+00
0.000000e+00
0.000000e+00
0.000000e+00
0.000000e+00
0.000000e+00
0.000000e+00
0.000000e+00
0.000000e+00
0.000000e+00
0.000000e+00
0.000000e+00
0.000000e+00
0.000000e+00
0.000000e+00
6.250000e+00
6.250000e+00
6.250000e+00
6.250000e+00
6.250000e+00
6.250000e+00
6.250000e+00
6.250000e+00
6.250000e+00
6.250000e+00
6.250000e+00
6.250000e+00
6.250000e+00
6.250000e+00
6.250000e+00
6.250000e+00
6.250000e+00
6.250000e+00
6.250000e+00
6.250000e+00
6.250000e+00
6.250000e+00
6.250000e+00
6.250000e+00
6.250000e+00
6.250000e+00
6.250000e+00
6.250000e+00
6.250000e+00
6.250000e+00
6.250000e+00
6.250000e+00
6.250000e+00
1.250000e+01
1.250000e+01
1.250000e+01
1.250000e+01
1.250000e+01
1.250000e+01
1.250000e+01
1.250000e+01
1.250000e+01
1.250000e+01
1.250000e+01
1.250000e+01
1.250000e+01
1.250000e+01
1.250000e+01
1.250000e+01
1.250000e+01
1.250000e+01
1.250000e+01
1.250000e+01
1.250000e+01
1.250000e+01
1.250000e+01
1.250000e+01
1.250000e+01
1.250000e+01
1.250000e+01
1.250000e+01
1.250000e+01
1.250000e+01
1.250000e+01
1.250000e+01
1.250000e+01
1.875000e+01
1.875000e+01
1.875000e+01
1.875000e+01
1.875000e+01
1.875000e+01
1.875000e+01
1.875000e+01
1.875000e+01
1.875000e+01
1.875000e+01
1.875000e+01
1.875000e+01
1.875000e+01
1.875000e+01
1.875000e+01
1.875000e+01
1.875000e+01
1.875000e+01
1.875000e+01
1.875000e+01
1.875000e+01
1.875000e+01
1.875000e+01
1.875000e+01
1.875000e+01
1.875000e+01
1.875000e+01
1.875000e+01
1.875000e+01
1.875000e+01
1.875000e+01
1.875000e+01
2.500000e+01
2.500000e+01
2.500000e+01
2.500000e+01
2.500000e+01
2.500000e+01
2.500000e+01
2.500000e+01
2.500000e+01
2.500000e+01
2.500000e+01
2.500000e+01
2.500000e+01
2.500000e+01
2.500000e+01
2.500000e+01
2.500000e+01
2.500000e+01
2.500000e+01
2.500000e+01
2.500000e+01
2.500000e+01
2.500000e+01
2.500000e+01
2.500000e+01
2.500000e+01
2.500000e+01
2.500000e+01
2.500000e+01
2.500000e+01
2.500000e+01
2.500000e+01
2.500000e+01
3.125000e+01
3.125000e+01
3.125000e+01
3.125000e+01
3.125000e+01
3.125000e+01
3.125000e+01
3.125000e+01
3.125000e+01
3.125000e+01
3.125000e+01
3.125000e+01
3.125000e+01
3.125000e+01
3.125000e+01
3.125000e+01
3.125000e+01
3.125000e+01
3.125000e+01
3.125000e+01
3.125000e+01
3.125000e+01
3.125000e+01
3.125000e+01
3.125000e+01
3.125000e+01
3.125000e+01
3.125000e+01
3.125000e+01
3.125000e+01
3.125000e+01
3.125000e+01
3.125000e+01
3.750000e+01
3.750000e+01
3.750000e+01
3.750000e+01
3.750000e+01
3.750000e+01
3.750000e+01
3.750000e+01
3.750000e+01
3.750000e+01
3.750000e+01
3.750000e+01
3.750000e+01
3.750000e+01
3.750000e+01
3.750000e+01
3.750000e+01
3.750000e+01
3.750000e+01
3.750000e+01
3.750000e+01
3.750000e+01
3.750000e+01
3.750000e+01
3.750000e+01
3.750000e+01
3.750000e+01
3.750000e+01
3.750000e+01
3.750000e+01
3.750000e+01
3.750000e+01
3.750000e+01
4.375000e+01
4.375000e+01
4.375000e+01
4.375000e+01
4.375000e+01
4.375000e+01
4.375000e+01
4.375000e+01
4.375000e+01
4.375000e+01
4.375000e+01
4.375000e+01
4.375000e+01
4.375000e+01
4.375000e+01
4.375000e+01
4.375000e+01
4.375000e+01
4.375000e+01
4.375000e+01
4.375000e+01
4.375000e+01
4.375000e+01
4.375000e+01
4.375000e+01
4.375000e+01
4.375000e+01
4.375000e+01
4.375000e+01
4.375000e+01
4.375000e+01
4.375000e+01
4.375000e+01
5.000000e+01
5.000000e+01
5.000000e+01
5.000000e+01
5.000000e+01
5.000000e+01
5.000000e+01
5.000000e+01
5.000000e+01
5.000000e+01
5.000000e+01
5.000000e+01
5.000000e+01
5.000000e+01
5.000000e+01
5.000000e+01
5.000000e+01
5.000000e+01
5.000000e+01
5.000000e+01
5.000000e+01
5.000000e+01
5.000000e+01
5.000000e+01
5.000000e+01
5.000000e+01
5.000000e+01
5.000000e+01
5.000000e+01
5.000000e+01
5.000000e+01
5.000000e+01
5.000000e+01
5.625000e+01
5.625000e+01
5.625000e+01
5.625000e+01
5.625000e+01
5.625000e+01
5.625000e+01
5.625000e+01
5.625000e+01
5.625000e+01
5.625000e+01
5.625000e+01
5.625000e+01
5.625000e+01
5.625000e+01
5.625000e+01
5.625000e+01
5.625000e+01
5.625000e+01
5.625000e+01
5.625000e+01
5.625000e+01
5.625000e+01
5.625000e+01
5.625000e+01
5.625000e+01
5.625000e+01
5.625000e+01
5.625000e+01
5.625000e+01
5.625000e+01
5.625000e+01
5.625000e+01
6.250000e+01
6.250000e+01
6.250000e+01
6.250000e+01
6.250000e+01
6.250000e+01
6.250000e+01
6.250000e+01
6.250000e+01
6.250000e+01
6.250000e+01
6.250000e+01
6.250000e+01
6.250000e+01
6.250000e+01
6.250000e+01
6.250000e+01
6.250000e+01
6.250000e+01
6.250000e+01
6.250000e+01
6.250000e+01
6.250000e+01
6.250000e+01
6.250000e+01
6.250000e+01
6.250000e+01
6.250000e+01
6.250000e+01
6.250000e+01
6.250000e+01
6.250000e+01
6.250000e+01
6.875000e+01
6.875000e+01
6.875000e+01
6.875000e+01
6.875000e+01
6.875000e+01
6.875000e+01
6.875000e+01
6.875000e+01
6.875000e+01
6.875000e+01
6.875000e+01
6.875000e+01
6.875000e+01
6.875000e+01
6.875000e+01
6.875000e+01
6.875000e+01
6.875000e+01
6.875000e+01
6.875000e+01
6.875000e+01
6.875000e+01
6.875000e+01
6.875000e+01
6.875000e+01
6.875000e+01
6.875000e+01
6.875000e+01
6.875000e+01
6.875000e+01
6.875000e+01
6.875000e+01
7.500000e+01
7.500000e+01
7.500000e+01
7.500000e+01
7.500000e+01
7.500000e+01
7.500000e+01
7.500000e+01
7.500000e+01
7.500000e+01
7.500000e+01
7.500000e+01
7.500000e+01
7.500000e+01
7.500000e+01
7.500000e+01
7.500000e+01
7.500000e+01
7.500000e+01
7.500000e+01
7.500000e+01
7.500000e+01
7.500000e+01
7.500000e+01
7.500000e+01
7.500000e+01
7.500000e+01
7.500000e+01
7.500000e+01
7.500000e+01
7.500000e+01
7.500000e+01
7.500000e+01
8.125000e+01
8.125000e+01
8.125000e+01
8.125000e+01
8.125000e+01
8.125000e+01
8.125000e+01
8.125000e+01
8.125000e+01
8.125000e+01
8.125000e+01
8.125000e+01
8.125000e+01
8.125000e+01
8.125000e+01
8.125000e+01
8.125000e+01
8.125000e+01
8.125000e+01
8.125000e+01
8.125000e+01
8.125000e+01
8.125000e+01
8.125000e+01
8.125000e+01
8.125000e+01
8.125000e+01
8.125000e+01
8.125000e+01
8.125000e+01
8.125000e+01
8.125000e+01
8.125000e+01
8.750000e+01
8.750000e+01
8.750000e+01
8.750000e+01
8.750000e+01
8.750000e+01
8.750000e+01
8.750000e+01
8.750000e+01
8.750000e+01
8.750000e+01
8.750000e+01
8.750000e+01
8.750000e+01
8.750000e+01
8.750000e+01
8.750000e+01
8.750000e+01
8.750000e+01
8.750000e+01
8.750000e+01
8.750000e+01
8.750000e+01
8.750000e+01
8.750000e+01
8.750000e+01
8.750000e+01
8.750000e+01
8.750000e+01
8.750000e+01
8.750000e+01
8.750000e+01
8.750000e+01
9.375000e+01
9.375000e+01
9.375000e+01
9.375000e+01
9.375000e+01
9.375000e+01
9.375000e+01
9.375000e+01
9.375000e+01
9.375000e+01
9.375000e+01
9.375000e+01
9.375000e+01
9.375000e+01
9.375000e+01
9.375000e+01
9.375000e+01
9.375000e+01
9.375000e+01
9.375000e+01
9.375000e+01
9.375000e+01
9.375000e+01
9.375000e+01
9.375000e+01
9.375000e+01
9.375000e+01
9.375000e+01
9.375000e+01
9.375000e+01
9.375000e+01
9.375000e+01
9.375000e+01
1.000000e+02
1.000000e+02
1.000000e+02
1.000000e+02
1.000000e+02
1.000000e+02
1.000000e+02
1.000000e+02
1.000000e+02
1.000000e+02
1.000000e+02
1.000000e+02
1.000000e+02
1.000000e+02
1.000000e+02
1.000000e+02
1.000000e+02
1.000000e+02
1.000000e+02
1.000000e+02
1.000000e+02
1.000000e+02
1.000000e+02
1.000000e+02
1.000000e+02
1.000000e+02
1.000000e+02
1.000000e+02
1.000000e+02
1.000000e+02
1.000000e+02
1.000000e+02
1.000000e+02
0.000000e+00
-4.187333e-01
-7.288753e-01
-1.047347e+00
-1.357807e+00
-1.655371e+00
-1.962406e+00
-2.262562e+00
-2.560489e+00
-2.861827e+00
-3.160305e+00
-3.458698e+00
-3.757830e+00
-4.055768e+00
-4.353809e+00
-4.651883e+00
-4.949512e+00
-5.247190e+00
-5.544888e+00
-5.842568e+00
-6.140435e+00
-6.438813e+00
-6.738046e+00
-7.038557e+00
-7.342059e+00
-7.650390e+00
-7.963888e+00
-8.285741e+00
-8.625245e+00
-8.995463e+00
-9.407491e+00
-9.801193e+00
-1.000796e+01
0.000000e+00
-2.369199e-01
-4.862190e-01
-7.488581e-01
-1.015953e+00
-1.270526e+00
-1.536528e+00
-1.798197e+00
-2.057992e+00
-2.321356e+00
-2.582258e+00
-2.843184e+00
-3.104823e+00
-3.365414e+00
-3.626052e+00
-3.886642e+00
-4.146721e+00
-4.406651e+00
-4.666363e+00
-4.925751e+00
-5.184879e+00
-5.443871e+00
-5.702691e+00
-5.961103e+00
-6.219600e+00
-6.478234e+00
-6.735130e+00
-6.989830e+00
-7.244395e+00
-7.492370e+00
-7.690841e+00
-7.775823e+00
-7.878199e+00
0.000000e+00
-1.466208e-01
-3.129512e-01
-5.141235e-01
-7.268578e-01
-9.352573e-01
-1.157398e+00
-1.378498e+00
-1.599833e+00
-1.824762e+00
-2.048431e+00
-2.272699e+00
-2.497832e+00
-2.722409e+00
-2.947175e+00
-3.171939e+00
-3.396264e+00
-3.620287e+00
-3.843804e+00
-4.066553e+00
-4.288305e+00
-4.508735e+00
-4.727200e+00
-4.942607e+00
-5.153792e+00
-5.358782e+00
-5.553985e+00
-5.735341e+00
-5.896921e+00
-6.022776e+00
-6.076313e+00
-6.076412e+00
-6.167348e+00
0.000000e+00
-1.052532e-01
-2.152340e-01
-3.596456e-01
-5.104727e-01
-6.741457e-01
-8.509483e-01
-1.030168e+00
-1.212958e+00
-1.399366e+00
-1.586182e+00
-1.774381e+00
-1.963617e+00
-2.152834e+00
-2.342362e+00
-2.531820e+00
-2.720763e+00
-2.909043e+00
-3.096224e+00
-3.281790e+00
-3.465105e+00
-3.645261e+00
-3.820979e+00
-3.990404e+00
-4.151179e+00
-4.300165e+00
-4.433003e+00
-4.544093e+00
-4.625558e+00
-4.665993e+00
-4.663315e+00
-4.670726e+00
-4.750776e+00
0.000000e+00
-9.090278e-02
-1.812482e-01
-2.837551e-01
-3.969508e-01
-5.219228e-01
-6.558187e-01
-7.944003e-01
-9.381357e-01
-1.084441e+00
-1.232370e+00
-1.381866e+00
-1.531895e+00
-1.682243e+00
-1.832635e+00
-1.982581e+00
-2.131784e+00
-2.279786e+00
-2.426008e+00
-2.569751e+00
-2.710050e+00
-2.845635e+00
-2.974853e+00
-3.095534e+00
-3.204983e+00
-3.299913e+00
-3.376311e+00
-3.429609e+00
-3.455736e+00
-3.454358e+00
-3.441146e+00
-3.467186e+00
-3.545493e+00
0.000000e+00
-7.165958e-02
-1.430208e-01
-2.181292e-01
-3.012597e-01
-3.913151e-01
-4.876428e-01
-5.892585e-01
-6.942558e-01
-8.018921e-01
-9.112403e-01
-1.021531e+00
-1.132391e+00
-1.243351e+00
-1.354028e+00
-1.464066e+00
-1.573014e+00
-1.680352e+00
-1.785417e+00
-1.887343e+00
-1.985013e+00
-2.076999e+00
-2.161528e+00
-2.236467e+00
-2.299359e+00
-2.347521e+00
-2.378193e+00
-2.389287e+00
-2.381501e+00
-2.361649e+00
-2.354413e+00
-2.387489e+00
-2.462654e+00
0.000000e+00
-4.901034e-02
-9.786903e-02
-1.486160e-01
-2.029906e-01
-2.616944e-01
-3.243900e-01
-3.904293e-01
-4.590195e-01
-5.293400e-01
-6.007795e-01
-6.728017e-01
-7.449698e-01
-8.169282e-01
-8.883183e-01
-9.587693e-01
-1.027854e+00
-1.095038e+00
-1.159640e+00
-1.220785e+00
-1.277353e+00
-1.327957e+00
-1.370943e+00
-1.404451e+00
-1.426550e+00
-1.435488e+00
-1.430102e+00
-1.410809e+00
-1.381515e+00
-1.353020e+00
-1.347507e+00
-1.383525e+00
-1.456904e+00
0.000000e+00
-2.499663e-02
-4.996274e-02
-7.559765e-02
-1.026925e-01
-1.316210e-01
-1.623584e-01
-1.946041e-01
-2.279425e-01
-2.619565e-01
-2.962564e-01
-3.305069e-01
-3.644107e-01
-3.976885e-01
-4.300582e-01
-4.612063e-01
-4.907600e-01
-5.182544e-01
-5.430945e-01
-5.645162e-01
-5.815540e-01
-5.930280e-01
-5.975709e-01
-5.937304e-01
-5.801900e-01
-5.561553e-01
-5.220075e-01
-4.804752e-01
-4.380591e-01
-4.063248e-01
-4.033733e-01
-4.406534e-01
-5.124743e-01
0.000000e+00
-5.074097e-04
-9.102158e-04
-1.180265e-03
-1.276973e-03
-1.147776e-03
-7.293853e-04
5.172595e-05
1.279359e-03
3.048424e-03
5.466161e-03
8.653926e-03
1.274989e-02
1.791307e-02
2.432965e-02
3.222222e-02
4.186277e-02
5.359059e-02
6.783553e-02
8.514433e-02
1.062036e-01
1.318472e-01
1.630193e-01
2.006372e-01
2.452866e-01
2.967130e-01
3.530119e-01
4.095128e-01
4.582403e-01
4.882159e-01
4.873186e-01
4.499934e-01
3.835300e-01
0.000000e+00
2.398943e-02
4.814996e-02
7.323718e-02
1.001243e-01
1.292893e-01
1.608323e-01
1.945972e-01
2.303332e-01
2.678104e-01
3.068512e-01
3.473602e-01
3.893124e-01
4.327397e-01
4.777213e-01
5.243714e-01
5.728358e-01
6.232918e-01
6.759524e-01
7.310735e-01
7.889590e-01
8.499654e-01
9.144685e-01
9.826824e-01
1.054264e+00
1.127759e+00
1.199938e+00
1.265179e+00
1.315656e+00
1.342716e+00
1.339661e+00
1.306058e+00
1.251107e+00
0.000000e+00
4.802205e-02
9.606914e-02
1.462411e-01
2.003606e-01
2.592315e-01
3.226346e-01
3.900599e-01
4.608705e-01
5.344261e-01
6.103221e-01
6.882546e-01
7.680485e-01
8.496404e-01
9.329994e-01
1.018129e+00
1.105036e+00
1.193712e+00
1.284120e+00
1.376174e+00
1.469702e+00
1.564467e+00
1.660174e+00
1.756253e+00
1.851377e+00
1.942998e+00
2.027071e+00
2.098099e+00
2.149821e+00
2.176674e+00
2.175883e+00
2.150236e+00
2.109907e+00
0.000000e+00
7.068925e-02
1.412090e-01
2.156768e-01
2.984643e-01
3.885473e-01
4.853959e-01
5.881454e-01
6.950272e-01
8.054769e-01
9.187622e-01
1.034340e+00
1.152086e+00
1.271801e+00
1.393379e+00
1.516750e+00
1.641762e+00
1.768207e+00
1.895776e+00
2.024004e+00
2.152187e+00
2.279463e+00
2.404921e+00
2.527285e+00
2.644348e+00
2.752738e+00
2.848178e+00
2.925979e+00
2.981762e+00
3.012462e+00
3.017775e+00
3.002081e+00
2.975989e+00
0.000000e+00
8.992034e-02
1.793536e-01
2.811181e-01
3.937945e-01
5.185824e-01
6.526708e-01
7.919333e-01
9.369707e-01
1.085336e+00
1.236287e+00
1.389976e+00
1.545612e+00
1.703236e+00
1.862803e+00
2.024033e+00
2.186763e+00
2.350588e+00
2.514935e+00
2.678979e+00
2.841534e+00
3.001314e+00
3.156918e+00
3.306273e+00
3.446147e+00
3.572432e+00
3.680950e+00
3.768056e+00
3.831021e+00
3.868565e+00
3.881854e+00
3.876058e+00
3.862127e+00
0.000000e+00
1.042191e-01
2.133171e-01
3.568621e-01
5.070243e-01
6.702101e-01
8.467571e-01
1.025996e+00
1.209168e+00
1.396456e+00
1.584784e+00
1.775328e+00
1.967973e+00
2.161886e+00
2.357625e+00
2.554997e+00
2.753592e+00
2.953177e+00
3.153072e+00
3.352140e+00
3.549043e+00
3.742559e+00
3.930824e+00
4.110131e+00
4.275336e+00
4.421391e+00
4.544447e+00
4.642104e+00
4.713285e+00
4.758310e+00
4.779455e+00
4.782226e+00
4.777520e+00
0.000000e+00
1.459557e-01
3.116957e-01
5.123028e-01
7.244796e-01
9.324033e-01
1.154123e+00
1.374865e+00
1.595942e+00
1.820763e+00
2.044519e+00
2.269158e+00
2.495075e+00
2.720951e+00
2.947663e+00
3.175172e+00
3.403020e+00
3.631295e+00
3.859636e+00
4.087020e+00
4.312526e+00
4.535885e+00
4.755288e+00
4.964693e+00
5.155603e+00
5.321139e+00
5.457613e+00
5.563964e+00
5.640946e+00
5.690747e+00
5.717048e+00
5.725667e+00
5.726616e+00
0.000000e+00
2.367709e-01
4.859915e-01
7.485377e-01
1.015498e+00
1.269938e+00
1.535783e+00
1.797233e+00
2.056764e+00
2.319799e+00
2.580262e+00
2.840621e+00
3.101552e+00
3.361208e+00
3.620628e+00
3.879693e+00
4.137743e+00
4.395025e+00
4.651428e+00
4.906214e+00
5.159052e+00
5.410696e+00
5.659519e+00
5.897113e+00
6.111337e+00
6.293183e+00
6.438836e+00
6.548329e+00
6.624241e+00
6.671158e+00
6.695331e+00
6.704165e+00
6.706310e+00
0.000000e+00
4.192690e-01
7.299121e-01
1.048834e+00
1.359722e+00
1.657677e+00
1.965084e+00
2.265524e+00
2.563661e+00
2.865098e+00
3.163452e+00
3.461440e+00
3.759767e+00
4.056293e+00
4.352134e+00
4.647048e+00
4.940216e+00
5.231965e+00
5.522271e+00
5.810686e+00
6.097356e+00
6.382992e+00
6.664426e+00
6.930092e+00
7.164956e+00
7.358696e+00
7.507231e+00
7.610949e+00
7.673631e+00
7.702430e+00
7.708072e+00
7.704037e+00
7.701674e+00
0.000000e+00
-2.526293e-01
-5.031942e-01
-8.163691e-01
-1.166887e+00
-1.557499e+00
-1.990416e+00
-2.458699e+00
-2.965592e+00
-3.510359e+00
-4.091846e+00
-4.711537e+00
-5.368916e+00
-6.063928e+00
-6.797102e+00
-7.568309e+00
-8.377710e+00
-9.225599e+00
-1.011210e+01
-1.103747e+01
-1.200201e+01
-1.300611e+01
-1.405021e+01
-1.513521e+01
-1.626282e+01
-1.743543e+01
-1.865710e+01
-1.993554e+01
-2.128153e+01
-2.270816e+01
-2.424706e+01
-2.605610e+01
-2.858211e+01
0.000000e+00
-1.582324e-01
-4.226190e-01
-7.300803e-01
-1.083637e+00
-1.473722e+00
-1.905777e+00
-2.375292e+00
-2.881675e+00
-3.426309e+00
-4.008196e+00
-4.627693e+00
-5.285146e+00
-5.980305e+00
-6.713449e+00
-7.484748e+00
-8.294238e+00
-9.142165e+00
-1.002874e+01
-1.095417e+01
-1.191875e+01
-1.292284e+01
-1.396694e+01
-1.505179e+01
-1.617894e+01
-1.735113e+01
-1.857240e+01
-1.984948e+01
-2.119373e+01
-2.262269e+01
-2.417808e+01
-2.596369e+01
-2.822479e+01
0.000000e+00
-1.264595e-01
-3.637083e-01
-6.674124e-01
-1.017237e+00
-1.405207e+00
-1.835788e+00
-2.304655e+00
-2.810287e+00
-3.354611e+00
-3.936321e+00
-4.555602e+00
-5.213035e+00
-5.908188e+00
-6.641364e+00
-7.412784e+00
-8.222434e+00
-9.070575e+00
-9.957441e+00
-1.088325e+01
-1.184829e+01
-1.285299e+01
-1.389795e+01
-1.498392e+01
-1.611253e+01
-1.728679e+01
-1.851080e+01
-1.979156e+01
-2.114319e+01
-2.259322e+01
-2.417184e+01
-2.585365e+01
-2.761776e+01
0.000000e+00
-1.337351e-01
-3.448387e-01
-6.360204e-01
-9.743894e-01
-1.356513e+00
-1.783421e+00
-2.249073e+00
-2.753060e+00
-3.296246e+00
-3.877037e+00
-4.495869e+00
-5.153008e+00
-5.848042e+00
-6.581300e+00
-7.352928e+00
-8.162958e+00
-9.011658e+00
-9.899273e+00
-1.082608e+01
-1.179242e+01
-1.279882e+01
-1.384597e+01
-1.493478e+01
-1.606700e+01
-1.724562e+01
-1.847485e+01
-1.976229e+01
-2.112349e+01
-2.258584e+01
-2.414927e+01
-2.569816e+01
-2.711816e+01
0.000000e+00
-1.511158e-01
-3.568172e-01
-6.318151e-01
-9.576926e-01
-1.330752e+00
-1.750506e+00
-2.210777e+00
-2.711714e+00
-3.252439e+00
-3.831667e+00
-4.449692e+00
-5.106253e+00
-5.801172e+00
-6.534627e+00
-7.306670e+00
-8.117441e+00
-8.967178e+00
-9.856156e+00
-1.078473e+01
-1.175332e+01
-1.276250e+01
-1.381303e+01
-1.490593e+01
-1.604287e+01
-1.722655e+01
-1.846087e+01
-1.975247e+01
-2.111412e+01
-2.256235e+01
-2.407043e+01
-2.549414e+01
-2.674710e+01
0.000000e+00
-1.589198e-01
-3.681372e-01
-6.333071e-01
-9.509291e-01
-1.316875e+00
-1.729386e+00
-2.185213e+00
-2.682682e+00
-3.220926e+00
-3.798797e+00
-4.415948e+00
-5.072140e+00
-5.767140e+00
-6.500991e+00
-7.273770e+00
-8.085625e+00
-8.936821e+00
-9.827687e+00
-1.075863e+01
-1.173016e+01
-1.274284e+01
-1.379740e+01
-1.489474e+01
-1.603621e+01
-1.722385e+01
-1.846044e+01
-1.974955e+01
-2.109727e+01
-2.250910e+01
-2.393630e+01
-2.526599e+01
-2.641931e+01
0.000000e+00
-1.625734e-01
-3.735744e-01
-6.354809e-01
-9.479573e-01
-1.309124e+00
-1.716846e+00
-2.169053e+00
-2.663993e+00
-3.200361e+00
-3.777200e+00
-4.393859e+00
-5.049952e+00
-5.745271e+00
-6.479759e+00
-7.253496e+00
-8.066667e+00
-8.919564e+00
-9.812576e+00
-1.074617e+01
-1.172086e+01
-1.273720e+01
-1.379574e+01
-1.489704e+01
-1.604180e+01
-1.723099e+01
-1.846550e+01
-1.974477e+01
-2.106757e+01
-2.242901e+01
-2.377989e+01
-2.503391e+01
-2.611714e+01
0.000000e+00
-1.642406e-01
-3.760484e-01
-6.369061e-01
-9.470433e-01
-1.305500e+00
-1.710688e+00
-2.160835e+00
-2.654311e+00
-3.189763e+00
-3.766161e+00
-4.382782e+00
-5.039163e+00
-5.735053e+00
-6.470381e+00
-7.245224e+00
-8.059793e+00
-8.914419e+00
-9.809536e+00
-1.074565e+01
-1.172326e+01
-1.274285e+01
-1.380468e+01
-1.490882e+01
-1.605502e+01
-1.724278e+01
-1.847072e+01
-1.973448e+01
-2.102639e+01
-2.233445e+01
-2.361488e+01
-2.480172e+01
-2.582651e+01
0.000000e+00
-1.648001e-01
-3.769590e-01
-6.376948e-01
-9.473223e-01
-1.305144e+00
-1.709767e+00
-2.159544e+00
-2.652885e+00
-3.188438e+00
-3.765155e+00
-4.382286e+00
-5.039348e+00
-5.736079e+00
-6.472405e+00
-7.248409e+00
-8.064321e+00
-8.920494e+00
-9.817391e+00
-1.075553e+01
-1.173539e+01
-1.275730e+01
-1.382126e+01
-1.492669e+01
-1.607228e+01
-1.725581e+01
-1.847352e+01
-1.971796e+01
-2.097715e+01
-2.223376e+01
-2.345099e+01
-2.457633e+01
-2.555222e+01
0.000000e+00
-1.645114e-01
-3.766509e-01
-6.379287e-01
-9.485980e-01
-1.307715e+00
-1.713703e+00
-2.164796e+00
-2.659370e+00
-3.196077e+00
-3.773890e+00
-4.392089e+00
-5.050213e+00
-5.748019e+00
-6.485444e+00
-7.262579e+00
-8.079653e+00
-8.937022e+00
-9.835145e+00
-1.077452e+01
-1.175559e+01
-1.277854e+01
-1.384310e+01
-1.494814e+01
-1.609122e+01
-1.726833e+01
-1.847338e+01
-1.969655e+01
-2.092347e+01
-2.213444e+01
-2.329882e+01
-2.437519e+01
-2.531860e+01
0.000000e+00
-1.630926e-01
-3.747314e-01
-6.374548e-01
-9.509717e-01
-1.313433e+00
-1.722724e+00
-2.176787e+00
-2.673881e+00
-3.212709e+00
-3.792319e+00
-4.412067e+00
-5.071570e+00
-5.770623e+00
-6.509180e+00
-7.287335e+00
-8.105296e+00
-8.963388e+00
-9.862034e+00
-1.080168e+01
-1.178267e+01
-1.280514e+01
-1.386870e+01
-1.497182e+01
-1.611098e+01
-1.728038e+01
-1.847177e+01
-1.967371e+01
-2.087102e+01
-2.204452e+01
-2.316888e+01
-2.421275e+01
-2.514222e+01
0.000000e+00
-1.596367e-01
-3.697391e-01
-6.360849e-01
-9.552067e-01
-1.323025e+00
-1.737815e+00
-2.196329e+00
-2.696917e+00
-3.238728e+00
-3.820614e+00
-4.442237e+00
-5.103354e+00
-5.803723e+00
-6.543380e+00
-7.322396e+00
-8.140913e+00
-8.999205e+00
-9.897627e+00
-1.083651e+01
-1.181607e+01
-1.283653e+01
-1.389774e+01
-1.499793e+01
-1.613250e+01
-1.729386e+01
-1.847198e+01
-1.965446e+01
-2.082651e+01
-2.197085e+01
-2.306727e+01
-2.409288e+01
-2.502343e+01
0.000000e+00
-1.519396e-01
-3.586659e-01
-6.351692e-01
-9.629181e-01
-1.338337e+00
-1.760992e+00
-2.224648e+00
-2.729523e+00
-3.274767e+00
-3.859074e+00
-4.482758e+00
-5.145549e+00
-5.847220e+00
-6.587904e+00
-7.367610e+00
-8.186393e+00
-9.044425e+00
-9.941991e+00
-1.087925e+01
-1.185625e+01
-1.287355e+01
-1.393158e+01
-1.502846e+01
-1.615836e+01
-1.731198e+01
-1.847795e+01
-1.964358e+01
-2.079494e+01
-2.191715e+01
-2.299467e+01
-2.401208e+01
-2.495444e+01
0.000000e+00
-1.344931e-01
-3.467081e-01
-6.395876e-01
-9.801205e-01
-1.364937e+00
-1.795183e+00
-2.264719e+00
-2.773225e+00
-3.321628e+00
-3.908284e+00
-4.533669e+00
-5.198042e+00
-5.900885e+00
-6.642448e+00
-7.422770e+00
-8.241670e+00
-9.099244e+00
-9.995686e+00
-1.093095e+01
-1.190497e+01
-1.291874e+01
-1.397341e+01
-1.506684e+01
-1.619190e+01
-1.733791e+01
-1.849281e+01
-1.964403e+01
-2.077866e+01
-2.188397e+01
-2.294847e+01
-2.396347e+01
-2.492385e+01
0.000000e+00
-1.270653e-01
-3.654544e-01
-6.708971e-01
-1.023002e+00
-1.413796e+00
-1.847870e+00
-2.320831e+00
-2.831223e+00
-3.381076e+00
-3.969027e+00
-4.595314e+00
-5.260523e+00
-5.964089e+00
-6.706213e+00
-7.486950e+00
-8.305963e+00
-9.163224e+00
-1.005877e+01
-1.099241e+01
-1.196414e+01
-1.297516e+01
-1.402674e+01
-1.511624e+01
-1.623553e+01
-1.737332e+01
-1.851759e+01
-1.965624e+01
-2.077725e+01
-2.186946e+01
-2.292440e+01
-2.393893e+01
-2.491800e+01
0.000000e+00
-1.587259e-01
-4.242739e-01
-7.334722e-01
-1.089333e+00
-1.482290e+00
-1.917860e+00
-2.391519e+00
-2.902728e+00
-3.452955e+00
-4.041182e+00
-4.667806e+00
-5.333173e+00
-6.036910e+00
-6.779178e+00
-7.559935e+00
-8.378864e+00
-9.235852e+00
-1.013077e+01
-1.106339e+01
-1.203396e+01
-1.304358e+01
-1.409265e+01
-1.517740e+01
-1.628923e+01
-1.741736e+01
-1.855061e+01
-1.967764e+01
-2.078718e+01
-2.186909e+01
-2.291659e+01
-2.393002e+01
-2.492208e+01
0.000000e+00
-2.531950e-01
-5.049032e-01
-8.198076e-01
-1.172625e+00
-1.566115e+00
-2.002534e+00
-2.474951e+00
-2.986662e+00
-3.536992e+00
-4.124782e+00
-4.751551e+00
-5.416762e+00
-6.120235e+00
-6.862384e+00
-7.642837e+00
-8.461388e+00
-9.318008e+00
-1.021239e+01
-1.114433e+01
-1.211438e+01
-1.312339e+01
-1.417004e+01