TITLE = "Solution"
VARIABLES = x, y, u, v, psiu, psiv, t, stress
ZONE T="structure" N=561 E=512 F=FEBLOCK ET=QUADRILATERAL VARLOCATION=([7,8]=cellcentered)
0.000000e+00
6.250000e+00
1.250000e+01
1.875000e+01
2.500000e+01
3.125000e+01
3.750000e+01
4.375000e+01
5.000000e+01
5.625000e+01
6.250000e+01
6.875000e+01
7.500000e+01
8.125000e+01
8.750000e+01
9.375000e+01
1.000000e+02
1.062500e+02
1.125000e+02
1.187500e+02
1.250000e+02
1.312500e+02
1.375000e+02
1.437500e+02
1.500000e+02
1.562500e+02
1.625000e+02
1.687500e+02
1.750000e+02
1.812500e+02
1.875000e+02
1.937500e+02
2.000000e+02
0.000000e+00
6.250000e+00
1.250000e+01
1.875000e+01
2.500000e+01
3.125000e+01
3.750000e+01
4.375000e+01
5.000000e+01
5.625000e+01
6.250000e+01
6.875000e+01
7.500000e+01
8.125000e+01
8.750000e+01
9.375000e+01
1.000000e+02
1.062500e+02
1.125000e+02
1.187500e+02
1.250000e+02
1.312500e+02
1.375000e+02
1.437500e+02
1.500000e+02
1.562500e+02
1.625000e+02
1.687500e+02
1.750000e+02
1.812500e+02
1.875000e+02
1.937500e+02
2.000000e+02
0.000000e+00
6.250000e+00
1.250000e+01
1.875000e+01
2.500000e+01
3.125000e+01
3.750000e+01
4.375000e+01
5.000000e+01
5.625000e+01
6.250000e+01
6.875000e+01
7.500000e+01
8.125000e+01
8.750000e+01
9.375000e+01
1.000000e+02
1.062500e+02
1.125000e+02
1.187500e+02
1.250000e+02
1.312500e+02
1.375000e+02
1.437500e+02
1.500000e+02
1.562500e+02
1.625000e+02
1.687500e+02
1.750000e+02
1.812500e+02
1.875000e+02
1.937500e+02
2.000000e+02
0.000000e+00
6.250000e+00
1.250000e+01
1.875000e+01
2.500000e+01
3.125000e+01
3.750000e+01
4.375000e+01
5.000000e+01
5.625000e+01
6.250000e+01
6.875000e+01
7.500000e+01
8.125000e+01
8.750000e+01
9.375000e+01
1.000000e+02
1.062500e+02
1.125000e+02
1.187500e+02
1.250000e+02
1.312500e+02
1.375000e+02
1.437500e+02
1.500000e+02
1.562500e+02
1.625000e+02
1.687500e+02
1.750000e+02
1.812500e+02
1.875000e+02
1.937500e+02
2.000000e+02
0.000000e+00
6.250000e+00
1.250000e+01
1.875000e+01
2.500000e+01
3.125000e+01
3.750000e+01
4.375000e+01
5.000000e+01
5.625000e+01
6.250000e+01
6.875000e+01
7.500000e+01
8.125000e+01
8.750000e+01
9.375000e+01
1.000000e+02
1.062500e+02
1.125000e+02
1.187500e+02
1.250000e+02
1.312500e+02
1.375000e+02
1.437500e+02
1.500000e+02
1.562500e+02
1.625000e+02
1.687500e+02
1.750000e+02
1.812500e+02
1.875000e+02
1.937500e+02
2.000000e+02
0.000000e+00
6.250000e+00
1.250000e+01
1.875000e+01
2.500000e+01
3.125000e+01
3.750000e+01
4.375000e+01
5.000000e+01
5.625000e+01
6.250000e+01
6.875000e+01
7.500000e+01
8.125000e+01
8.750000e+01
9.375000e+01
1.000000e+02
1.062500e+02
1.125000e+02
1.187500e+02
1.250000e+02
1.312500e+02
1.375000e+02
1.437500e+02
1.500000e+02
1.562500e+02
1.625000e+02
1.687500e+02
1.750000e+02
1.812500e+02
1.875000e+02
1.937500e+02
2.000000e+02
0.000000e+00
6.250000e+00
1.250000e+01
1.875000e+01
2.500000e+01
3.125000e+01
3.750000e+01
4.375000e+01
5.000000e+01
5.625000e+01
6.250000e+01
6.875000e+01
7.500000e+01
8.125000e+01
8.750000e+01
9.375000e+01
1.000000e+02
1.062500e+02
1.125000e+02
1.187500e+02
1.250000e+02
1.312500e+02
1.375000e+02
1.437500e+02
1.500000e+02
1.562500e+02
1.625000e+02
1.687500e+02
1.750000e+02
1.812500e+02
1.875000e+02
1.937500e+02
2.000000e+02
0.000000e+00
6.250000e+00
1.250000e+01
1.875000e+01
2.500000e+01
3.125000e+01
3.750000e+01
4.375000e+01
5.000000e+01
5.625000e+01
6.250000e+01
6.875000e+01
7.500000e+01
8.125000e+01
8.750000e+01
9.375000e+01
1.000000e+02
1.062500e+02
1.125000e+02
1.187500e+02
1.250000e+02
1.312500e+02
1.375000e+02
1.437500e+02
1.500000e+02
1.562500e+02
1.625000e+02
1.687500e+02
1.750000e+02
1.812500e+02
1.875000e+02
1.937500e+02
2.000000e+02
0.000000e+00
6.250000e+00
1.250000e+01
1.875000e+01
2.500000e+01
3.125000e+01
3.750000e+01
4.375000e+01
5.000000e+01
5.625000e+01
6.250000e+01
6.875000e+01
7.500000e+01
8.125000e+01
8.750000e+01
9.375000e+01
1.000000e+02
1.062500e+02
1.125000e+02
1.187500e+02
1.250000e+02
1.312500e+02
1.375000e+02
1.437500e+02
1.500000e+02
1.562500e+02
1.625000e+02
1.687500e+02
1.750000e+02
1.812500e+02
1.875000e+02
1.937500e+02
2.000000e+02
0.000000e+00
6.250000e+00
1.250000e+01
1.875000e+01
2.500000e+01
3.125000e+01
3.750000e+01
4.375000e+01
5.000000e+01
5.625000e+01
6.250000e+01
6.875000e+01
7.500000e+01
8.125000e+01
8.750000e+01
9.375000e+01
1.000000e+02
1.062500e+02
1.125000e+02
1.187500e+02
1.250000e+02
1.312500e+02
1.375000e+02
1.437500e+02
1.500000e+02
1.562500e+02
1.625000e+02
1.687500e+02
1.750000e+02
1.812500e+02
1.875000e+02
1.937500e+02
2.000000e+02
0.000000e+00
6.250000e+00
1.250000e+01
1.875000e+01
2.500000e+01
3.125000e+01
3.750000e+01
4.375000e+01
5.000000e+01
5.625000e+01
6.250000e+01
6.875000e+01
7.500000e+01
8.125000e+01
8.750000e+01
9.375000e+01
1.000000e+02
1.062500e+02
1.125000e+02
1.187500e+02
1.250000e+02
1.312500e+02
1.375000e+02
1.437500e+02
1.500000e+02
1.562500e+02
1.625000e+02
1.687500e+02
1.750000e+02
1.812500e+02
1.875000e+02
1.937500e+02
2.000000e+02
0.000000e+00
6.250000e+00
1.250000e+01
1.875000e+01
2.500000e+01
3.125000e+01
3.750000e+01
4.375000e+01
5.000000e+01
5.625000e+01
6.250000e+01
6.875000e+01
7.500000e+01
8.125000e+01
8.750000e+01
9.375000e+01
1.000000e+02
1.062500e+02
1.125000e+02
1.187500e+02
1.250000e+02
1.312500e+02
1.375000e+02
1.437500e+02
1.500000e+02
1.562500e+02
1.625000e+02
1.687500e+02
1.750000e+02
1.812500e+02
1.875000e+02
1.937500e+02
2.000000e+02
0.000000e+00
6.250000e+00
1.250000e+01
1.875000e+01
2.500000e+01
3.125000e+01
3.750000e+01
4.375000e+01
5.000000e+01
5.625000e+01
6.250000e+01
6.875000e+01
7.500000e+01
8.125000e+01
8.750000e+01
9.375000e+01
1.000000e+02
1.062500e+02
1.125000e+02
1.187500e+02
1.250000e+02
1.312500e+02
1.375000e+02
1.437500e+02
1.500000e+02
1.562500e+02
1.625000e+02
1.687500e+02
1.750000e+02
1.812500e+02
1.875000e+02
1.937500e+02
2.000000e+02
0.000000e+00
6.250000e+00
1.250000e+01
1.875000e+01
2.500000e+01
3.125000e+01
3.750000e+01
4.375000e+01
5.000000e+01
5.625000e+01
6.250000e+01
6.875000e+01
7.500000e+01
8.125000e+01
8.750000e+01
9.375000e+01
1.000000e+02
1.062500e+02
1.125000e+02
1.187500e+02
1.250000e+02
1.312500e+02
1.375000e+02
1.437500e+02
1.500000e+02
1.562500e+02
1.625000e+02
1.687500e+02
1.750000e+02
1.812500e+02
1.875000e+02
1.937500e+02
2.000000e+02
0.000000e+00
6.250000e+00
1.250000e+01
1.875000e+01
2.500000e+01
3.125000e+01
3.750000e+01
4.375000e+01
5.000000e+01
5.625000e+01
6.250000e+01
6.875000e+01
7.500000e+01
8.125000e+01
8.750000e+01
9.375000e+01
1.000000e+02
1.062500e+02
1.125000e+02
1.187500e+02
1.250000e+02
1.312500e+02
1.375000e+02
1.437500e+02
1.500000e+02
1.562500e+02
1.625000e+02
1.687500e+02
1.750000e+02
1.812500e+02
1.875000e+02
1.937500e+02
2.000000e+02
0.000000e+00
6.250000e+00
1.250000e+01
1.875000e+01
2.500000e+01
3.125000e+01
3.750000e+01
4.375000e+01
5.000000e+01
5.625000e+01
6.250000e+01
6.875000e+01
7.500000e+01
8.125000e+01
8.750000e+01
9.375000e+01
1.000000e+02
1.062500e+02
1.125000e+02
1.187500e+02
1.250000e+02
1.312500e+02
1.375000e+02
1.437500e+02
1.500000e+02
1.562500e+02
1.625000e+02
1.687500e+02
1.750000e+02
1.812500e+02
1.875000e+02
1.937500e+02
2.000000e+02
0.000000e+00
6.250000e+00
1.250000e+01
1.875000e+01
2.500000e+01
3.125000e+01
3.750000e+01
4.375000e+01
5.000000e+01
5.625000e+01
6.250000e+01
6.875000e+01
7.500000e+01
8.125000e+01
8.750000e+01
9.375000e+01
1.000000e+02
1.062500e+02
1.125000e+02
1.187500e+02
1.250000e+02
1.312500e+02
1.375000e+02
1.437500e+02
1.500000e+02
1.562500e+02
1.625000e+02
1.687500e+02
1.750000e+02
1.812500e+02
1.875000e+02
1.937500e+02
2.000000e+02
0.000000e+00
0.000000e+00
0.000000e+00
0.000000e+00
0.000000e+00
0.000000e+00
0.000000e+00
0.000000e+00
0.000000e+00
0.000000e+00
0.000000e+00
0.000000e+00
0.000000e+00
0.000000e+00
0.000000e+00
0.000000e+00
0.000000e+00
0.000000e+00
0.000000e+00
0.000000e+00
0.000000e+00
0.000000e+00
0.000000e+00
0.000000e+00
0.000000e+00
0.000000e+00
0.000000e+00
0.000000e+00
0.000000e+00
0.000000e+00
0.000000e+00
0.000000e+00
0.000000e+00
6.250000e+00
6.250000e+00
6.250000e+00
6.250000e+00
6.250000e+00
6.250000e+00
6.250000e+00
6.250000e+00
6.250000e+00
6.250000e+00
6.250000e+00
6.250000e+00
6.250000e+00
6.250000e+00
6.250000e+00
6.250000e+00
6.250000e+00
6.250000e+00
6.250000e+00
6.250000e+00
6.250000e+00
6.250000e+00
6.250000e+00
6.250000e+00
6.250000e+00
6.250000e+00
6.250000e+00
6.250000e+00
6.250000e+00
6.250000e+00
6.250000e+00
6.250000e+00
6.250000e+00
1.250000e+01
1.250000e+01
1.250000e+01
1.250000e+01
1.250000e+01
1.250000e+01
1.250000e+01
1.250000e+01
1.250000e+01
1.250000e+01
1.250000e+01
1.250000e+01
1.250000e+01
1.250000e+01
1.250000e+01
1.250000e+01
1.250000e+01
1.250000e+01
1.250000e+01
1.250000e+01
1.250000e+01
1.250000e+01
1.250000e+01
1.250000e+01
1.250000e+01
1.250000e+01
1.250000e+01
1.250000e+01
1.250000e+01
1.250000e+01
1.250000e+01
1.250000e+01
1.250000e+01
1.875000e+01
1.875000e+01
1.875000e+01
1.875000e+01
1.875000e+01
1.875000e+01
1.875000e+01
1.875000e+01
1.875000e+01
1.875000e+01
1.875000e+01
1.875000e+01
1.875000e+01
1.875000e+01
1.875000e+01
1.875000e+01
1.875000e+01
1.875000e+01
1.875000e+01
1.875000e+01
1.875000e+01
1.875000e+01
1.875000e+01
1.875000e+01
1.875000e+01
1.875000e+01
1.875000e+01
1.875000e+01
1.875000e+01
1.875000e+01
1.875000e+01
1.875000e+01
1.875000e+01
2.500000e+01
2.500000e+01
2.500000e+01
2.500000e+01
2.500000e+01
2.500000e+01
2.500000e+01
2.500000e+01
2.500000e+01
2.500000e+01
2.500000e+01
2.500000e+01
2.500000e+01
2.500000e+01
2.500000e+01
2.500000e+01
2.500000e+01
2.500000e+01
2.500000e+01
2.500000e+01
2.500000e+01
2.500000e+01
2.500000e+01
2.500000e+01
2.500000e+01
2.500000e+01
2.500000e+01
2.500000e+01
2.500000e+01
2.500000e+01
2.500000e+01
2.500000e+01
2.500000e+01
3.125000e+01
3.125000e+01
3.125000e+01
3.125000e+01
3.125000e+01
3.125000e+01
3.125000e+01
3.125000e+01
3.125000e+01
3.125000e+01
3.125000e+01
3.125000e+01
3.125000e+01
3.125000e+01
3.125000e+01
3.125000e+01
3.125000e+01
3.125000e+01
3.125000e+01
3.125000e+01
3.125000e+01
3.125000e+01
3.125000e+01
3.125000e+01
3.125000e+01
3.125000e+01
3.125000e+01
3.125000e+01
3.125000e+01
3.125000e+01
3.125000e+01
3.125000e+01
3.125000e+01
3.750000e+01
3.750000e+01
3.750000e+01
3.750000e+01
3.750000e+01
3.750000e+01
3.750000e+01
3.750000e+01
3.750000e+01
3.750000e+01
3.750000e+01
3.750000e+01
3.750000e+01
3.750000e+01
3.750000e+01
3.750000e+01
3.750000e+01
3.750000e+01
3.750000e+01
3.750000e+01
3.750000e+01
3.750000e+01
3.750000e+01
3.750000e+01
3.750000e+01
3.750000e+01
3.750000e+01
3.750000e+01
3.750000e+01
3.750000e+01
3.750000e+01
3.750000e+01
3.750000e+01
4.375000e+01
4.375000e+01
4.375000e+01
4.375000e+01
4.375000e+01
4.375000e+01
4.375000e+01
4.375000e+01
4.375000e+01
4.375000e+01
4.375000e+01
4.375000e+01
4.375000e+01
4.375000e+01
4.375000e+01
4.375000e+01
4.375000e+01
4.375000e+01
4.375000e+01
4.375000e+01
4.375000e+01
4.375000e+01
4.375000e+01
4.375000e+01
4.375000e+01
4.375000e+01
4.375000e+01
4.375000e+01
4.375000e+01
4.375000e+01
4.375000e+01
4.375000e+01
4.375000e+01
5.000000e+01
5.000000e+01
5.000000e+01
5.000000e+01
5.000000e+01
5.000000e+01
5.000000e+01
5.000000e+01
5.000000e+01
5.000000e+01
5.000000e+01
5.000000e+01
5.000000e+01
5.000000e+01
5.000000e+01
5.000000e+01
5.000000e+01
5.000000e+01
5.000000e+01
5.000000e+01
5.000000e+01
5.000000e+01
5.000000e+01
5.000000e+01
5.000000e+01
5.000000e+01
5.000000e+01
5.000000e+01
5.000000e+01
5.000000e+01
5.000000e+01
5.000000e+01
5.000000e+01
5.625000e+01
5.625000e+01
5.625000e+01
5.625000e+01
5.625000e+01
5.625000e+01
5.625000e+01
5.625000e+01
5.625000e+01
5.625000e+01
5.625000e+01
5.625000e+01
5.625000e+01
5.625000e+01
5.625000e+01
5.625000e+01
5.625000e+01
5.625000e+01
5.625000e+01
5.625000e+01
5.625000e+01
5.625000e+01
5.625000e+01
5.625000e+01
5.625000e+01
5.625000e+01
5.625000e+01
5.625000e+01
5.625000e+01
5.625000e+01
5.625000e+01
5.625000e+01
5.625000e+01
6.250000e+01
6.250000e+01
6.250000e+01
6.250000e+01
6.250000e+01
6.250000e+01
6.250000e+01
6.250000e+01
6.250000e+01
6.250000e+01
6.250000e+01
6.250000e+01
6.250000e+01
6.250000e+01
6.250000e+01
6.250000e+01
6.250000e+01
6.250000e+01
6.250000e+01
6.250000e+01
6.250000e+01
6.250000e+01
6.250000e+01
6.250000e+01
6.250000e+01
6.250000e+01
6.250000e+01
6.250000e+01
6.250000e+01
6.250000e+01
6.250000e+01
6.250000e+01
6.250000e+01
6.875000e+01
6.875000e+01
6.875000e+01
6.875000e+01
6.875000e+01
6.875000e+01
6.875000e+01
6.875000e+01
6.875000e+01
6.875000e+01
6.875000e+01
6.875000e+01
6.875000e+01
6.875000e+01
6.875000e+01
6.875000e+01
6.875000e+01
6.875000e+01
6.875000e+01
6.875000e+01
6.875000e+01
6.875000e+01
6.875000e+01
6.875000e+01
6.875000e+01
6.875000e+01
6.875000e+01
6.875000e+01
6.875000e+01
6.875000e+01
6.875000e+01
6.875000e+01
6.875000e+01
7.500000e+01
7.500000e+01
7.500000e+01
7.500000e+01
7.500000e+01
7.500000e+01
7.500000e+01
7.500000e+01
7.500000e+01
7.500000e+01
7.500000e+01
7.500000e+01
7.500000e+01
7.500000e+01
7.500000e+01
7.500000e+01
7.500000e+01
7.500000e+01
7.500000e+01
7.500000e+01
7.500000e+01
7.500000e+01
7.500000e+01
7.500000e+01
7.500000e+01
7.500000e+01
7.500000e+01
7.500000e+01
7.500000e+01
7.500000e+01
7.500000e+01
7.500000e+01
7.500000e+01
8.125000e+01
8.125000e+01
8.125000e+01
8.125000e+01
8.125000e+01
8.125000e+01
8.125000e+01
8.125000e+01
8.125000e+01
8.125000e+01
8.125000e+01
8.125000e+01
8.125000e+01
8.125000e+01
8.125000e+01
8.125000e+01
8.125000e+01
8.125000e+01
8.125000e+01
8.125000e+01
8.125000e+01
8.125000e+01
8.125000e+01
8.125000e+01
8.125000e+01
8.125000e+01
8.125000e+01
8.125000e+01
8.125000e+01
8.125000e+01
8.125000e+01
8.125000e+01
8.125000e+01
8.750000e+01
8.750000e+01
8.750000e+01
8.750000e+01
8.750000e+01
8.750000e+01
8.750000e+01
8.750000e+01
8.750000e+01
8.750000e+01
8.750000e+01
8.750000e+01
8.750000e+01
8.750000e+01
8.750000e+01
8.750000e+01
8.750000e+01
8.750000e+01
8.750000e+01
8.750000e+01
8.750000e+01
8.750000e+01
8.750000e+01
8.750000e+01
8.750000e+01
8.750000e+01
8.750000e+01
8.750000e+01
8.750000e+01
8.750000e+01
8.750000e+01
8.750000e+01
8.750000e+01
9.375000e+01
9.375000e+01
9.375000e+01
9.375000e+01
9.375000e+01
9.375000e+01
9.375000e+01
9.375000e+01
9.375000e+01
9.375000e+01
9.375000e+01
9.375000e+01
9.375000e+01
9.375000e+01
9.375000e+01
9.375000e+01
9.375000e+01
9.375000e+01
9.375000e+01
9.375000e+01
9.375000e+01
9.375000e+01
9.375000e+01
9.375000e+01
9.375000e+01
9.375000e+01
9.375000e+01
9.375000e+01
9.375000e+01
9.375000e+01
9.375000e+01
9.375000e+01
9.375000e+01
1.000000e+02
1.000000e+02
1.000000e+02
1.000000e+02
1.000000e+02
1.000000e+02
1.000000e+02
1.000000e+02
1.000000e+02
1.000000e+02
1.000000e+02
1.000000e+02
1.000000e+02
1.000000e+02
1.000000e+02
1.000000e+02
1.000000e+02
1.000000e+02
1.000000e+02
1.000000e+02
1.000000e+02
1.000000e+02
1.000000e+02
1.000000e+02
1.000000e+02
1.000000e+02
1.000000e+02
1.000000e+02
1.000000e+02
1.000000e+02
1.000000e+02
1.000000e+02
1.000000e+02
0.000000e+00
-4.424264e-01
-7.514141e-01
-1.079504e+00
-1.386770e+00
-1.684992e+00
-1.994013e+00
-2.290996e+00
-2.591142e+00
-2.892075e+00
-3.190265e+00
-3.490733e+00
-3.790205e+00
-4.089166e+00
-4.389076e+00
-4.688104e+00
-4.987280e+00
-5.286686e+00
-5.585635e+00
-5.884904e+00
-6.184339e+00
-6.483596e+00
-6.783360e+00
-7.084574e+00
-7.386600e+00
-7.693050e+00
-8.008677e+00
-8.328473e+00
-8.661661e+00
-9.042611e+00
-9.499583e+00
-9.912037e+00
-1.011961e+01
0.000000e+00
-2.342519e-01
-4.788869e-01
-7.427124e-01
-1.009839e+00
-1.263816e+00
-1.532049e+00
-1.792610e+00
-2.054042e+00
-2.318404e+00
-2.578784e+00
-2.841824e+00
-3.103718e+00
-3.365002e+00
-3.627243e+00
-3.888429e+00
-4.149783e+00
-4.411158e+00
-4.671959e+00
-4.932810e+00
-5.193604e+00
-5.453908e+00
-5.714291e+00
-5.975133e+00
-6.234876e+00
-6.495155e+00
-6.757252e+00
-7.014657e+00
-7.270862e+00
-7.535653e+00
-7.766869e+00
-7.859770e+00
-7.964858e+00
0.000000e+00
-1.274306e-01
-2.834023e-01
-4.821082e-01
-6.945268e-01
-9.001945e-01
-1.124224e+00
-1.344829e+00
-1.567094e+00
-1.792766e+00
-2.015393e+00
-2.240632e+00
-2.465248e+00
-2.689609e+00
-2.914946e+00
-3.139646e+00
-3.364645e+00
-3.589783e+00
-3.814494e+00
-4.039153e+00
-4.263558e+00
-4.487174e+00
-4.709938e+00
-4.931264e+00
-5.148860e+00
-5.361135e+00
-5.565632e+00
-5.756170e+00
-5.928189e+00
-6.070645e+00
-6.140233e+00
-6.142028e+00
-6.234391e+00
0.000000e+00
-1.022185e-01
-1.989609e-01
-3.426373e-01
-4.770343e-01
-6.358822e-01
-8.099435e-01
-9.846855e-01
-1.166799e+00
-1.350498e+00
-1.535236e+00
-1.722360e+00
-1.910057e+00
-2.098424e+00
-2.287976e+00
-2.477692e+00
-2.667962e+00
-2.858557e+00
-3.048869e+00
-3.238807e+00
-3.427729e+00
-3.614666e+00
-3.798360e+00
-3.977083e+00
-4.147826e+00
-4.307092e+00
-4.450985e+00
-4.573481e+00
-4.666497e+00
-4.718456e+00
-4.723656e+00
-4.734539e+00
-4.815937e+00
0.000000e+00
-8.992429e-02
-1.787932e-01
-2.736761e-01
-3.826924e-01
-5.021460e-01
-6.327831e-01
-7.682788e-01
-9.104373e-01
-1.054879e+00
-1.201266e+00
-1.349947e+00
-1.498745e+00
-1.648764e+00
-1.799074e+00
-1.949415e+00
-2.099884e+00
-2.249759e+00
-2.398803e+00
-2.546276e+00
-2.691283e+00
-2.832554e+00
-2.968368e+00
-3.096615e+00
-3.214545e+00
-3.318900e+00
-3.405735e+00
-3.470206e+00
-3.507410e+00
-3.516457e+00
-3.508089e+00
-3.536097e+00
-3.612779e+00
0.000000e+00
-7.167304e-02
-1.416513e-01
-2.152540e-01
-2.959698e-01
-3.837975e-01
-4.781269e-01
-5.784845e-01
-6.823275e-01
-7.893357e-01
-8.980614e-01
-1.007764e+00
-1.118315e+00
-1.228968e+00
-1.339665e+00
-1.450067e+00
-1.559790e+00
-1.668523e+00
-1.775646e+00
-1.880406e+00
-1.981732e+00
-2.078214e+00
-2.168065e+00
-2.249197e+00
-2.319298e+00
-2.375854e+00
-2.416242e+00
-2.437997e+00
-2.440704e+00
-2.427318e+00
-2.421168e+00
-2.452341e+00
-2.523633e+00
0.000000e+00
-4.935497e-02
-9.832290e-02
-1.487913e-01
-2.027242e-01
-2.607814e-01
-3.229683e-01
-3.886487e-01
-4.571039e-01
-5.273949e-01
-5.988697e-01
-6.709422e-01
-7.431697e-01
-8.152532e-01
-8.868642e-01
-9.577332e-01
-1.027530e+00
-1.095837e+00
-1.162116e+00
-1.225596e+00
-1.285244e+00
-1.339704e+00
-1.387323e+00
-1.426252e+00
-1.454597e+00
-1.470640e+00
-1.473034e+00
-1.460957e+00
-1.435939e+00
-1.407323e+00
-1.398629e+00
-1.430348e+00
-1.501043e+00
0.000000e+00
-2.570846e-02
-5.132072e-02
-7.753902e-02
-1.051214e-01
-1.345027e-01
-1.656940e-01
-1.984626e-01
-2.323818e-01
-2.670192e-01
-3.019407e-01
-3.367898e-01
-3.712672e-01
-4.051038e-01
-4.380555e-01
-4.698606e-01
-5.002308e-01
-5.288166e-01
-5.551618e-01
-5.786470e-01
-5.984196e-01
-6.133547e-01
-6.220767e-01
-6.230634e-01
-6.147951e-01
-5.959249e-01
-5.654166e-01
-5.238767e-01
-4.778623e-01
-4.389950e-01
-4.293838e-01
-4.624338e-01
-5.335093e-01
0.000000e+00
-1.391244e-03
-2.783373e-03
-4.125177e-03
-5.359570e-03
-6.417816e-03
-7.218898e-03
-7.669119e-03
-7.665692e-03
-7.098546e-03
-5.850801e-03
-3.797436e-03
-8.010093e-04
3.293342e-03
8.663098e-03
1.551030e-02
2.406274e-02
3.458071e-02
4.737917e-02
6.287184e-02
8.162974e-02
1.044317e-01
1.322736e-01
1.662905e-01
2.076823e-01
2.576898e-01
3.165054e-01
3.800897e-01
4.383831e-01
4.777061e-01
4.838532e-01
4.488916e-01
3.798410e-01
0.000000e+00
2.297712e-02
4.585517e-02
6.943653e-02
9.459680e-02
1.219052e-01
1.515404e-01
1.834567e-01
2.174311e-01
2.532449e-01
2.906848e-01
3.296271e-01
3.700224e-01
4.118843e-01
4.552971e-01
5.003855e-01
5.473142e-01
5.962720e-01
6.474698e-01
7.011623e-01
7.576696e-01
8.173979e-01
8.808633e-01
9.487409e-01
1.021717e+00
1.099510e+00
1.179459e+00
1.255267e+00
1.316204e+00
1.350872e+00
1.351122e+00
1.316576e+00
1.258227e+00
0.000000e+00
4.677311e-02
9.314158e-02
1.411111e-01
1.927439e-01
2.488528e-01
3.096119e-01
3.745909e-01
4.432739e-01
5.149248e-01
5.890976e-01
6.653924e-01
7.435537e-01
8.234743e-01
9.050486e-01
9.882876e-01
1.073242e+00
1.160028e+00
1.248850e+00
1.339972e+00
1.433657e+00
1.530006e+00
1.628894e+00
1.729872e+00
1.831756e+00
1.932129e+00
2.026346e+00
2.106999e+00
2.166013e+00
2.196527e+00
2.195955e+00
2.168435e+00
2.125397e+00
0.000000e+00
6.931639e-02
1.369086e-01
2.081723e-01
2.867868e-01
3.727775e-01
4.658497e-01
5.657163e-01
6.700329e-01
7.787548e-01
8.906116e-01
1.005066e+00
1.122125e+00
1.241139e+00
1.362105e+00
1.484728e+00
1.608725e+00
1.734069e+00
1.860736e+00
1.988991e+00
2.119078e+00
2.250678e+00
2.382653e+00
2.512994e+00
2.639014e+00
2.756985e+00
2.861521e+00
2.946458e+00
3.006495e+00
3.038965e+00
3.044237e+00
3.027255e+00
2.999343e+00
0.000000e+00
8.789895e-02
1.745311e-01
2.674055e-01
3.742061e-01
4.920017e-01
6.214278e-01
7.563999e-01
8.991494e-01
1.045393e+00
1.195191e+00
1.349083e+00
1.505148e+00
1.664580e+00
1.826425e+00
1.990219e+00
2.155780e+00
2.322141e+00
2.489001e+00
2.656011e+00
2.822399e+00
2.986887e+00
3.147968e+00
3.303637e+00
3.450797e+00
3.585073e+00
3.701229e+00
3.794421e+00
3.861561e+00
3.901430e+00
3.915426e+00
3.909156e+00
3.894266e+00
0.000000e+00
1.005831e-01
1.960472e-01
3.374610e-01
4.700567e-01
6.269296e-01
7.995157e-01
9.733406e-01
1.155189e+00
1.339797e+00
1.526736e+00
1.717804e+00
1.911491e+00
2.108234e+00
2.308555e+00
2.511192e+00
2.716148e+00
2.922477e+00
3.129038e+00
3.335093e+00
3.538440e+00
3.736936e+00
3.929367e+00
4.113606e+00
4.285521e+00
4.439673e+00
4.570854e+00
4.675367e+00
4.751565e+00
4.799723e+00
4.822329e+00
4.825306e+00
4.820295e+00
0.000000e+00
1.273468e-01
2.830696e-01
4.808799e-01
6.916114e-01
8.958005e-01
1.118327e+00
1.337607e+00
1.558903e+00
1.784037e+00
2.006726e+00
2.232887e+00
2.459479e+00
2.687168e+00
2.917292e+00
3.148074e+00
3.380355e+00
3.613361e+00
3.846196e+00
4.078708e+00
4.308657e+00
4.534694e+00
4.757057e+00
4.972487e+00
5.172559e+00
5.348363e+00
5.494218e+00
5.608108e+00
5.690570e+00
5.743901e+00
5.772063e+00
5.781303e+00
5.782335e+00
0.000000e+00
2.343053e-01
4.790513e-01
7.428367e-01
1.009778e+00
1.263620e+00
1.531587e+00
1.791810e+00
2.052940e+00
2.316824e+00
2.576626e+00
2.839011e+00
3.100005e+00
3.360220e+00
3.621142e+00
3.880568e+00
4.139826e+00
4.398397e+00
4.655541e+00
4.911996e+00
5.166472e+00
5.418993e+00
5.670943e+00
5.916701e+00
6.142401e+00
6.335783e+00
6.491259e+00
6.608278e+00
6.689418e+00
6.739550e+00
6.765369e+00
6.774802e+00
6.777095e+00
0.000000e+00
4.422525e-01
7.517727e-01
1.080485e+00
1.389089e+00
1.688740e+00
1.999038e+00
2.297254e+00
2.598429e+00
2.899957e+00
3.198203e+00
3.498078e+00
3.795765e+00
4.091685e+00
4.386944e+00
4.679535e+00
4.970739e+00
5.260445e+00
5.548151e+00
5.835206e+00
6.121360e+00
6.407492e+00
6.693690e+00
6.970102e+00
7.218060e+00
7.423788e+00
7.581862e+00
7.692297e+00
7.758992e+00
7.789567e+00
7.795481e+00
7.791124e+00
7.788592e+00
0.000000e+00
-2.651203e-01
-5.430947e-01
-8.932227e-01
-1.280117e+00
-1.707861e+00
-2.178219e+00
-2.682974e+00
-3.226751e+00
-3.807169e+00
-4.424391e+00
-5.080008e+00
-5.772600e+00
-6.503245e+00
-7.271813e+00
-8.078062e+00
-8.922555e+00
-9.805088e+00
-1.072585e+01
-1.168523e+01
-1.268329e+01
-1.372037e+01
-1.479707e+01
-1.591376e+01
-1.707150e+01
-1.827347e+01
-1.952323e+01
-2.082676e+01
-2.219712e+01
-2.364992e+01
-2.520450e+01
-2.702426e+01
-2.958287e+01
0.000000e+00
-1.682665e-01
-4.629847e-01
-8.061119e-01
-1.197439e+00
-1.623458e+00
-2.093654e+00
-2.599651e+00
-3.142403e+00
-3.723284e+00
-4.340480e+00
-4.995896e+00
-5.688782e+00
-6.419304e+00
-7.187916e+00
-7.994284e+00
-8.838724e+00
-9.721340e+00
-1.064214e+01
-1.160148e+01
-1.259961e+01
-1.363670e+01
-1.471322e+01
-1.582991e+01
-1.698748e+01
-1.818830e+01
-1.943754e+01
-2.074080e+01
-2.210749e+01
-2.355621e+01
-2.513161e+01
-2.693356e+01
-2.920803e+01
0.000000e+00
-1.406298e-01
-4.049798e-01
-7.461071e-01
-1.131057e+00
-1.555039e+00
-2.023726e+00
-2.528831e+00
-3.071050e+00
-3.651699e+00
-4.268744e+00
-4.924007e+00
-5.616986e+00
-6.347387e+00
-7.116084e+00
-7.922493e+00
-8.766948e+00
-9.649708e+00
-1.057061e+01
-1.153008e+01
-1.252844e+01
-1.356579e+01
-1.464266e+01
-1.576016e+01
-1.691893e+01
-1.812137e+01
-1.937326e+01
-2.067990e+01
-2.205212e+01
-2.352203e+01
-2.513115e+01
-2.682786e+01
-2.859687e+01
0.000000e+00
-1.641502e-01
-3.949981e-01
-7.257127e-01
-1.091450e+00
-1.508928e+00
-1.973501e+00
-2.473966e+00
-3.015252e+00
-3.594403e+00
-4.210571e+00
-4.865630e+00
-5.558111e+00
-6.288431e+00
-7.057090e+00
-7.863456e+00
-8.708065e+00
-9.591020e+00
-1.051229e+01
-1.147228e+01
-1.247138e+01
-1.350984e+01
-1.458828e+01
-1.570800e+01
-1.687000e+01
-1.807688e+01
-1.933385e+01
-2.064679e+01
-2.202915e+01
-2.351390e+01
-2.511466e+01
-2.667439e+01
-2.809301e+01
0.000000e+00
-1.832981e-01
-4.184909e-01
-7.256586e-01
-1.083138e+00
-1.488249e+00
-1.944452e+00
-2.438959e+00
-2.976657e+00
-3.553316e+00
-4.167861e+00
-4.822217e+00
-5.513947e+00
-6.244224e+00
-7.012805e+00
-7.819314e+00
-8.664343e+00
-9.547764e+00
-1.046990e+01
-1.143106e+01
-1.243172e+01
-1.347236e+01
-1.455363e+01
-1.567672e+01
-1.684293e+01
-1.805485e+01
-1.931679e+01
-2.063441e+01
-2.201856e+01
-2.349057e+01
-2.503121e+01
-2.647055e+01
-2.772798e+01
0.000000e+00
-1.915049e-01
-4.328300e-01
-7.301297e-01
-1.079758e+00
-1.478731e+00
-1.925649e+00
-2.416490e+00
-2.949685e+00
-3.523898e+00
-4.137536e+00
-4.790607e+00
-5.482403e+00
-6.212692e+00
-6.981537e+00
-7.788733e+00
-8.634479e+00
-9.518971e+00
-1.044249e+01
-1.140550e+01
-1.240854e+01
-1.345219e+01
-1.453708e+01
-1.566404e+01
-1.683423e+01
-1.804973e+01
-1.931391e+01
-2.063013e+01
-2.200116e+01
-2.343637e+01
-2.488698e+01
-2.624275e+01
-2.741648e+01
0.000000e+00
-1.954800e-01
-4.390206e-01
-7.333757e-01
-1.078495e+00
-1.472932e+00
-1.914834e+00
-2.402013e+00
-2.932543e+00
-3.504834e+00
-4.117722e+00
-4.770392e+00
-5.462303e+00
-6.193103e+00
-6.962601e+00
-7.770750e+00
-8.617631e+00
-9.503488e+00
-1.042872e+01
-1.139387e+01
-1.239959e+01
-1.344648e+01
-1.453504e+01
-1.566564e+01
-1.683869e+01
-1.805521e+01
-1.931719e+01
-2.062449e+01
-2.197044e+01
-2.335512e+01
-2.472732e+01
-2.601134e+01
-2.712385e+01
0.000000e+00
-1.971023e-01
-4.415625e-01
-7.350722e-01
-1.078130e+00
-1.470075e+00
-1.909508e+00
-2.394668e+00
-2.923785e+00
-3.495303e+00
-4.107969e+00
-4.760868e+00
-5.453344e+00
-6.184971e+00
-6.955501e+00
-7.764838e+00
-8.613054e+00
-9.500400e+00
-1.042733e+01
-1.139451e+01
-1.240267e+01
-1.345244e+01
-1.454410e+01
-1.567740e+01
-1.685164e+01
-1.806618e+01
-1.932093e+01
-2.061229e+01
-2.192702e+01
-2.325987e+01
-2.456493e+01
-2.578124e+01
-2.683558e+01
0.000000e+00
-1.975053e-01
-4.422635e-01
-7.356726e-01
-1.078301e+00
-1.469710e+00
-1.908684e+00
-2.393599e+00
-2.922755e+00
-3.494607e+00
-4.107887e+00
-4.761628e+00
-5.455141e+00
-6.187956e+00
-6.959786e+00
-7.770498e+00
-8.620119e+00
-9.508876e+00
-1.043725e+01
-1.140596e+01
-1.241587e+01
-1.346764e+01
-1.456128e+01
-1.569574e+01
-1.686891e+01
-1.807816e+01
-1.932107e+01
-2.059168e+01
-2.187513e+01
-2.315700e+01
-2.440214e+01
-2.555302e+01
-2.654978e+01
0.000000e+00
-1.970177e-01
-4.415816e-01
-7.353897e-01
-1.078955e+00
-1.471640e+00
-1.912070e+00
-2.398497e+00
-2.929159e+00
-3.502493e+00
-4.117232e+00
-4.772436e+00
-5.467424e+00
-6.201735e+00
-6.975067e+00
-7.787245e+00
-8.638232e+00
-9.528182e+00
-1.045754e+01
-1.142706e+01
-1.243771e+01
-1.349017e+01
-1.458412e+01
-1.571745e+01
-1.688657e+01
-1.808769e+01
-1.931649e+01
-2.056504e+01
-2.181770e+01
-2.305463e+01
-2.424543e+01
-2.534273e+01
-2.630028e+01
0.000000e+00
-1.953034e-01
-4.390439e-01
-7.339831e-01
-1.080094e+00
-1.475989e+00
-1.919869e+00
-2.409570e+00
-2.943170e+00
-3.519065e+00
-4.136051e+00
-4.793258e+00
-5.490083e+00
-6.226100e+00
-7.001014e+00
-7.814621e+00
-8.666795e+00
-9.557584e+00
-1.048734e+01
-1.145685e+01
-1.246705e+01
-1.351848e+01
-1.461033e+01
-1.573974e+01
-1.690260e+01
-1.809449e+01
-1.930936e+01
-2.053666e+01
-2.176052e+01
-2.295982e+01
-2.410802e+01
-2.517057e+01
-2.611209e+01
0.000000e+00
-1.912159e-01
-4.328055e-01
-7.309690e-01
-1.082006e+00
-1.483096e+00
-1.932971e+00
-2.427545e+00
-2.965311e+00
-3.544884e+00
-4.164584e+00
-4.824330e+00
-5.523279e+00
-6.261069e+00
-7.037593e+00
-7.852391e+00
-8.705370e+00
-9.596440e+00
-1.052583e+01
-1.149435e+01
-1.250273e+01
-1.355099e+01
-1.463820e+01
-1.576192e+01
-1.691817e+01
-1.810159e+01
-1.930385e+01
-2.051245e+01
-2.171107e+01
-2.288069e+01
-2.399945e+01
-2.504286e+01
-2.598522e+01
0.000000e+00
-1.828377e-01
-4.183003e-01
-7.266450e-01
-1.085721e+00
-1.493599e+00
-1.953695e+00
-2.453036e+00
-2.996796e+00
-3.580509e+00
-4.203025e+00
-4.866115e+00
-5.567110e+00
-6.306934e+00
-7.085081e+00
-7.900734e+00
-8.754120e+00
-9.644738e+00
-1.057280e+01
-1.153920e+01
-1.254414e+01
-1.358722e+01
-1.466838e+01
-1.578645e+01
-1.693743e+01
-1.811413e+01
-1.930573e+01
-2.049821e+01
-2.167598e+01
-2.282272e+01
-2.392173e+01
-2.495661e+01
-2.591149e+01
0.000000e+00
-1.634153e-01
-3.948362e-01
-7.263651e-01
-1.094114e+00
-1.514673e+00
-1.983837e+00
-2.490121e+00
-3.038643e+00
-3.626338e+00
-4.252117e+00
-4.917772e+00
-5.621395e+00
-6.363080e+00
-7.142847e+00
-7.959378e+00
-8.812803e+00
-9.702662e+00
-1.062880e+01
-1.159217e+01
-1.259253e+01
-1.362965e+01
-1.470505e+01
-1.581888e+01
-1.696627e+01
-1.813737e+01
-1.931922e+01
-2.049750e+01
-2.165800e+01
-2.278701e+01
-2.387232e+01
-2.490473e+01
-2.587882e+01
0.000000e+00
-1.403565e-01
-4.049681e-01
-7.467523e-01
-1.133442e+00
-1.560639e+00
-2.034097e+00
-2.545423e+00
-3.095402e+00
-3.685295e+00
-4.312780e+00
-4.979637e+00
-5.684887e+00
-6.427752e+00
-7.208551e+00
-8.025778e+00
-8.879268e+00
-9.768633e+00
-1.069336e+01
-1.165411e+01
-1.265057e+01
-1.368313e+01
-1.475457e+01
-1.586539e+01
-1.700898e+01
-1.817333e+01
-1.934487e+01
-2.051019e+01
-2.165634e+01
-2.277146e+01
-2.384661e+01
-2.487855e+01
-2.587261e+01
0.000000e+00
-1.681543e-01
-4.628948e-01
-8.066063e-01
-1.199569e+00
-1.628843e+00
-2.103826e+00
-2.616158e+00
-3.166842e+00
-3.757139e+00
-4.385053e+00
-5.052372e+00
-5.757895e+00
-6.501251e+00
-7.282246e+00
-8.099598e+00
-8.953010e+00
-9.841918e+00
-1.076586e+01
-1.172505e+01
-1.271941e+01
-1.375009e+01
-1.481977e+01
-1.592746e+01
-1.706490e+01
-1.821988e+01
-1.937998e+01
-2.053300e+01
-2.166694e+01
-2.277108e+01
-2.383829e+01
-2.486906e+01
-2.587700e+01
0.000000e+00
-2.650511e-01
-5.431021e-01
-8.938249e-01
-1.282448e+00
-1.713420e+00
-2.188530e+00
-2.699631e+00
-3.251304e+00
-3.841064e+00
-4.468957e+00
-5.136356e+00
-5.841417e+00
-6.584700e+00
-7.365352e+00
-8.182284e+00
-9.035383e+00
-9.923755e+00
-1.084718e+01
-1.180576e+01
-1.279943e+01
-1.382995e+01
-1.489875e+01