TITLE = "Solution"
VARIABLES = x, y, u, v, psiu, psiv, t, stress
ZONE T="structure" N=153 E=128 F=FEBLOCK ET=QUADRILATERAL VARLOCATION=([7,8]=cellcentered)
0.000000e+00
1.250000e+01
2.500000e+01
3.750000e+01
5.000000e+01
6.250000e+01
7.500000e+01
8.750000e+01
1.000000e+02
1.125000e+02
1.250000e+02
1.375000e+02
1.500000e+02
1.625000e+02
1.750000e+02
1.875000e+02
2.000000e+02
0.000000e+00
1.250000e+01
2.500000e+01
3.750000e+01
5.000000e+01
6.250000e+01
7.500000e+01
8.750000e+01
1.000000e+02
1.125000e+02
1.250000e+02
1.375000e+02
1.500000e+02
1.625000e+02
1.750000e+02
1.875000e+02
2.000000e+02
0.000000e+00
1.250000e+01
2.500000e+01
3.750000e+01
5.000000e+01
6.250000e+01
7.500000e+01
8.750000e+01
1.000000e+02
1.125000e+02
1.250000e+02
1.375000e+02
1.500000e+02
1.625000e+02
1.750000e+02
1.875000e+02
2.000000e+02
0.000000e+00
1.250000e+01
2.500000e+01
3.750000e+01
5.000000e+01
6.250000e+01
7.500000e+01
8.750000e+01
1.000000e+02
1.125000e+02
1.250000e+02
1.375000e+02
1.500000e+02
1.625000e+02
1.750000e+02
1.875000e+02
2.000000e+02
0.000000e+00
1.250000e+01
2.500000e+01
3.750000e+01
5.000000e+01
6.250000e+01
7.500000e+01
8.750000e+01
1.000000e+02
1.125000e+02
1.250000e+02
1.375000e+02
1.500000e+02
1.625000e+02
1.750000e+02
1.875000e+02
2.000000e+02
0.000000e+00
1.250000e+01
2.500000e+01
3.750000e+01
5.000000e+01
6.250000e+01
7.500000e+01
8.750000e+01
1.000000e+02
1.125000e+02
1.250000e+02
1.375000e+02
1.500000e+02
1.625000e+02
1.750000e+02
1.875000e+02
2.000000e+02
0.000000e+00
1.250000e+01
2.500000e+01
3.750000e+01
5.000000e+01
6.250000e+01
7.500000e+01
8.750000e+01
1.000000e+02
1.125000e+02
1.250000e+02
1.375000e+02
1.500000e+02
1.625000e+02
1.750000e+02
1.875000e+02
2.000000e+02
0.000000e+00
1.250000e+01
2.500000e+01
3.750000e+01
5.000000e+01
6.250000e+01
7.500000e+01
8.750000e+01
1.000000e+02
1.125000e+02
1.250000e+02
1.375000e+02
1.500000e+02
1.625000e+02
1.750000e+02
1.875000e+02
2.000000e+02
0.000000e+00
1.250000e+01
2.500000e+01
3.750000e+01
5.000000e+01
6.250000e+01
7.500000e+01
8.750000e+01
1.000000e+02
1.125000e+02
1.250000e+02
1.375000e+02
1.500000e+02
1.625000e+02
1.750000e+02
1.875000e+02
2.000000e+02
0.000000e+00
0.000000e+00
0.000000e+00
0.000000e+00
0.000000e+00
0.000000e+00
0.000000e+00
0.000000e+00
0.000000e+00
0.000000e+00
0.000000e+00
0.000000e+00
0.000000e+00
0.000000e+00
0.000000e+00
0.000000e+00
0.000000e+00
1.250000e+01
1.250000e+01
1.250000e+01
1.250000e+01
1.250000e+01
1.250000e+01
1.250000e+01
1.250000e+01
1.250000e+01
1.250000e+01
1.250000e+01
1.250000e+01
1.250000e+01
1.250000e+01
1.250000e+01
1.250000e+01
1.250000e+01
2.500000e+01
2.500000e+01
2.500000e+01
2.500000e+01
2.500000e+01
2.500000e+01
2.500000e+01
2.500000e+01
2.500000e+01
2.500000e+01
2.500000e+01
2.500000e+01
2.500000e+01
2.500000e+01
2.500000e+01
2.500000e+01
2.500000e+01
3.750000e+01
3.750000e+01
3.750000e+01
3.750000e+01
3.750000e+01
3.750000e+01
3.750000e+01
3.750000e+01
3.750000e+01
3.750000e+01
3.750000e+01
3.750000e+01
3.750000e+01
3.750000e+01
3.750000e+01
3.750000e+01
3.750000e+01
5.000000e+01
5.000000e+01
5.000000e+01
5.000000e+01
5.000000e+01
5.000000e+01
5.000000e+01
5.000000e+01
5.000000e+01
5.000000e+01
5.000000e+01
5.000000e+01
5.000000e+01
5.000000e+01
5.000000e+01
5.000000e+01
5.000000e+01
6.250000e+01
6.250000e+01
6.250000e+01
6.250000e+01
6.250000e+01
6.250000e+01
6.250000e+01
6.250000e+01
6.250000e+01
6.250000e+01
6.250000e+01
6.250000e+01
6.250000e+01
6.250000e+01
6.250000e+01
6.250000e+01
6.250000e+01
7.500000e+01
7.500000e+01
7.500000e+01
7.500000e+01
7.500000e+01
7.500000e+01
7.500000e+01
7.500000e+01
7.500000e+01
7.500000e+01
7.500000e+01
7.500000e+01
7.500000e+01
7.500000e+01
7.500000e+01
7.500000e+01
7.500000e+01
8.750000e+01
8.750000e+01
8.750000e+01
8.750000e+01
8.750000e+01
8.750000e+01
8.750000e+01
8.750000e+01
8.750000e+01
8.750000e+01
8.750000e+01
8.750000e+01
8.750000e+01
8.750000e+01
8.750000e+01
8.750000e+01
8.750000e+01
1.000000e+02
1.000000e+02
1.000000e+02
1.000000e+02
1.000000e+02
1.000000e+02
1.000000e+02
1.000000e+02
1.000000e+02
1.000000e+02
1.000000e+02
1.000000e+02
1.000000e+02
1.000000e+02
1.000000e+02
1.000000e+02
1.000000e+02
0.000000e+00
-1.053970e+00
-1.932688e+00
-2.753584e+00
-3.538333e+00
-4.273315e+00
-4.958981e+00
-5.599834e+00
-6.194438e+00
-6.738138e+00
-7.231357e+00
-7.684010e+00
-8.114868e+00
-8.549499e+00
-9.016858e+00
-9.550237e+00
-9.934694e+00
0.000000e+00
-6.090026e-01
-1.271142e+00
-1.896751e+00
-2.490988e+00
-3.044747e+00
-3.559467e+00
-4.040051e+00
-4.486209e+00
-4.893793e+00
-5.260745e+00
-5.589878e+00
-5.885340e+00
-6.141055e+00
-6.321571e+00
-6.364019e+00
-6.489561e+00
0.000000e+00
-3.680099e-01
-7.647427e-01
-1.176091e+00
-1.572030e+00
-1.942091e+00
-2.286294e+00
-2.606835e+00
-2.902684e+00
-3.169994e+00
-3.404651e+00
-3.602708e+00
-3.756776e+00
-3.850232e+00
-3.862169e+00
-3.836733e+00
-3.960998e+00
0.000000e+00
-1.727478e-01
-3.610432e-01
-5.594874e-01
-7.556432e-01
-9.405958e-01
-1.113079e+00
-1.272730e+00
-1.417659e+00
-1.544234e+00
-1.647527e+00
-1.721318e+00
-1.758094e+00
-1.752650e+00
-1.720715e+00
-1.726984e+00
-1.819739e+00
0.000000e+00
8.322499e-04
1.362685e-03
1.594292e-03
1.629117e-03
1.738628e-03
2.499833e-03
4.991030e-03
1.103958e-02
2.343053e-02
4.586858e-02
8.224886e-02
1.342424e-01
1.951281e-01
2.402742e-01
2.357982e-01
1.719807e-01
0.000000e+00
1.747678e-01
3.645894e-01
5.639310e-01
7.604669e-01
9.458285e-01
1.119758e+00
1.283614e+00
1.438330e+00
1.584514e+00
1.722911e+00
1.853796e+00
1.974497e+00
2.075301e+00
2.138312e+00
2.147754e+00
2.113082e+00
0.000000e+00
3.708624e-01
7.701589e-01
1.183255e+00
1.579956e+00
1.950290e+00
2.294892e+00
2.616549e+00
2.914990e+00
3.187432e+00
3.431064e+00
3.643741e+00
3.822085e+00
3.959172e+00
4.045065e+00
4.074644e+00
4.065766e+00
0.000000e+00
6.128218e-01
1.278659e+00
1.906712e+00
2.501880e+00
3.055460e+00
3.569011e+00
4.046661e+00
4.486448e+00
4.881539e+00
5.225507e+00
5.514508e+00
5.745583e+00
5.915213e+00
6.021342e+00
6.068556e+00
6.077262e+00
0.000000e+00
1.058907e+00
1.941753e+00
2.765651e+00
3.552097e+00
4.287940e+00
4.973532e+00
5.611837e+00
6.198030e+00
6.721502e+00
7.172497e+00
7.544203e+00
7.830141e+00
8.023443e+00
8.123649e+00
8.150910e+00
8.151069e+00
0.000000e+00
-6.473798e-01
-1.297751e+00
-2.141644e+00
-3.170014e+00
-4.381689e+00
-5.770541e+00
-7.326879e+00
-9.037151e+00
-1.088633e+01
-1.286090e+01
-1.495155e+01
-1.715589e+01
-1.948439e+01
-2.199423e+01
-2.487762e+01
-2.905356e+01
0.000000e+00
-4.031773e-01
-1.081692e+00
-1.930053e+00
-2.970344e+00
-4.195274e+00
-5.596615e+00
-7.165005e+00
-8.888450e+00
-1.075190e+01
-1.274015e+01
-1.484217e+01
-1.705540e+01
-1.939395e+01
-2.190992e+01
-2.478206e+01
-2.829783e+01
0.000000e+00
-3.136545e-01
-9.351828e-01
-1.783127e+00
-2.828875e+00
-4.062609e+00
-5.473181e+00
-7.051233e+00
-8.785560e+00
-1.066149e+01
-1.266355e+01
-1.478073e+01
-1.701204e+01
-1.937240e+01
-2.189633e+01
-2.461593e+01
-2.723216e+01
0.000000e+00
-2.852439e-01
-8.688700e-01
-1.700833e+00
-2.746599e+00
-3.984350e+00
-5.400994e+00
-6.986528e+00
-8.729973e+00
-1.061717e+01
-1.263299e+01
-1.476599e+01
-1.701258e+01
-1.937644e+01
-2.184916e+01
-2.434469e+01
-2.662242e+01
0.000000e+00
-2.800903e-01
-8.512062e-01
-1.676278e+00
-2.720600e+00
-3.960055e+00
-5.379957e+00
-6.970319e+00
-8.720366e+00
-1.061623e+01
-1.264236e+01
-1.478476e+01
-1.703260e+01
-1.937248e+01
-2.176416e+01
-2.411079e+01
-2.624423e+01
0.000000e+00
-2.851549e-01
-8.692140e-01
-1.701971e+00
-2.748939e+00
-3.988752e+00
-5.409033e+00
-7.000599e+00
-8.753198e+00
-1.065276e+01
-1.268234e+01
-1.482436e+01
-1.706024e+01
-1.936352e+01
-2.168516e+01
-2.394237e+01
-2.601786e+01
0.000000e+00
-3.136975e-01
-9.360396e-01
-1.785266e+00
-2.832980e+00
-4.070163e+00
-5.486851e+00
-7.075042e+00
-8.824690e+00
-1.072121e+01
-1.274629e+01
-1.487951e+01
-1.709694e+01
-1.936537e+01
-2.163491e+01
-2.383981e+01
-2.590845e+01
0.000000e+00
-4.038113e-01
-1.083342e+00
-1.932958e+00
-2.975346e+00
-4.204177e+00
-5.612512e+00
-7.192421e+00
-8.933078e+00
-1.081927e+01
-1.283223e+01
-1.495044e+01
-1.714754e+01
-1.938754e+01
-2.162137e+01
-2.379480e+01
-2.587968e+01
0.000000e+00
-6.492801e-01
-1.300393e+00
-2.145224e+00
-3.175433e+00
-4.390902e+00
-5.786574e+00
-7.353864e+00
-9.079959e+00
-1.094897e+01
-1.294263e+01
-1.503963e+01
-1.721297e+01
-1.942630e+01
-2.163294e+01
-2.378648e+01
-2.587944e+01


0.000000e+00
7.686966e-06
1.561814e-05
2.295504e-05
2.966340e-05
3.565101e-05
4.118237e-05
4.653913e-05
5.168947e-05
5.656608e-05
6.134884e-05
6.624624e-05
7.109457e-05
7.526360e-05
7.817727e-05
8.027659e-05
8.216504e-05
0.000000e+00
4.570309e-06
1.078356e-05
1.621199e-05
2.111548e-05
2.546192e-05
2.949657e-05
3.349753e-05
3.738190e-05
4.099235e-05
4.444398e-05
4.791137e-05
5.121865e-05
5.384130e-05
5.564790e-05
5.742283e-05
5.932926e-05
0.000000e+00
2.675140e-06
6.282587e-06
9.724828e-06
1.297840e-05
1.588804e-05
1.860966e-05
2.131652e-05
2.392998e-05
2.631165e-05
2.848293e-05
3.049981e-05
3.225331e-05
3.357096e-05
3.461117e-05
3.591260e-05
3.752174e-05
0.000000e+00
1.035490e-06
2.469858e-06
4.175421e-06
5.872569e-06
7.404754e-06
8.821129e-06
1.018099e-05
1.143946e-05
1.251710e-05
1.337814e-05
1.401576e-05
1.443762e-05
1.474337e-05
1.517799e-05
1.602022e-05
1.728242e-05
0.000000e+00
1.293075e-07
2.409170e-07
3.286240e-07
3.868731e-07
4.062317e-07
3.744953e-07
2.749125e-07
8.836111e-08
-2.014435e-07
-6.022282e-07
-1.102011e-06
-1.637376e-06
-2.048344e-06
-2.105534e-06
-1.650190e-06
-7.110901e-07
0.000000e+00
-7.887275e-07
-1.992736e-06
-3.519709e-06
-5.100042e-06
-6.588731e-06
-8.046591e-06
-9.551532e-06
-1.108348e-05
-1.258530e-05
-1.403464e-05
-1.542113e-05
-1.667949e-05
-1.765066e-05
-1.814893e-05
-1.808636e-05
-1.754744e-05
0.000000e+00
-2.457782e-06
-5.810633e-06
-9.063210e-06
-1.219697e-05
-1.505409e-05
-1.777340e-05
-2.051487e-05
-2.320160e-05
-2.569888e-05
-2.801214e-05
-3.017865e-05
-3.210549e-05
-3.358319e-05
-3.445201e-05
-3.471686e-05
-3.455418e-05
0.000000e+00
-4.394080e-06
-1.034795e-05
-1.558126e-05
-2.036140e-05
-2.464332e-05
-2.863303e-05
-3.256833e-05
-3.634799e-05
-3.979583e-05
-4.295761e-05
-4.591605e-05
-4.853946e-05
-5.054646e-05
-5.177155e-05
-5.230027e-05
-5.238719e-05
0.000000e+00
-7.513937e-06
-1.524985e-05
-2.242738e-05
-2.902069e-05
-3.493075e-05
-4.038099e-05
-4.559949e-05
-5.050999e-05
-5.499218e-05
-5.911882e-05
-6.295844e-05
-6.632908e-05
-6.886974e-05
-7.035328e-05
-7.091196e-05
-7.100680e-05
0.000000e+00
6.725041e-06
1.314226e-05
2.075971e-05
2.999634e-05
4.082613e-05
5.332684e-05
6.740337e-05
8.279895e-05
9.943420e-05
1.174460e-04
1.369241e-04
1.577992e-04
1.800964e-04
2.043242e-04
2.302616e-04
2.562904e-04
0.000000e+00
3.754641e-06
1.009741e-05
1.786979e-05
2.739012e-05
3.847288e-05
5.108549e-05
6.522030e-05
8.073499e-05
9.748487e-05
1.155100e-04
1.349749e-04
1.559904e-04
1.785395e-04
2.024721e-04
2.277734e-04
2.533531e-04
0.000000e+00
2.154318e-06
7.743492e-06
1.560108e-05
2.530231e-05
3.656201e-05
4.926165e-05
6.345552e-05
7.908565e-05
9.597044e-05
1.140694e-04
1.335763e-04
1.547084e-04
1.773578e-04
2.008342e-04
2.252115e-04
2.497538e-04
0.000000e+00
1.653881e-06
6.617670e-06
1.427776e-05
2.402717e-05
3.537307e-05
4.814701e-05
6.241679e-05
7.815293e-05
9.516933e-05
1.133822e-04
1.329526e-04
1.540949e-04
1.766311e-04
1.996878e-04
2.230476e-04
2.459735e-04
0.000000e+00
1.585896e-06
6.292770e-06
1.381044e-05
2.356329e-05
3.495122e-05
4.778456e-05
6.212396e-05
7.793861e-05
9.503989e-05
1.133222e-04
1.329085e-04
1.539654e-04
1.762433e-04
1.987699e-04
2.211016e-04
2.423518e-04
0.000000e+00
1.644442e-06
6.586350e-06
1.424157e-05
2.401065e-05
3.540342e-05
4.825057e-05
6.261222e-05
7.844532e-05
9.554665e-05
1.138110e-04
1.333550e-04
1.542797e-04
1.762258e-04
1.981854e-04
2.195591e-04
2.395556e-04
0.000000e+00
2.105265e-06
7.647881e-06
1.550626e-05
2.525351e-05
3.660202e-05
4.942950e-05
6.377842e-05
7.957033e-05
9.659787e-05
1.147878e-04
1.342559e-04
1.550118e-04
1.765828e-04
1.980004e-04
2.186257e-04
2.379531e-04
0.000000e+00
3.626965e-06
9.896997e-06
1.769346e-05
2.729645e-05
3.850411e-05
5.127193e-05
6.558162e-05
8.127136e-05
9.815979e-05
1.162368e-04
1.355841e-04
1.560906e-04
1.772218e-04
1.981333e-04
2.182460e-04
2.373749e-04
0.000000e+00
6.497934e-06
1.283776e-05
2.050379e-05
2.985694e-05
4.083590e-05
5.349480e-05
6.773044e-05
8.326978e-05
9.998031e-05
1.179213e-04
1.371081e-04
1.573067e-04
1.779746e-04
1.984267e-04
2.182058e-04
2.372857e-04


2.849170e+00
2.843855e+00
2.929855e+00
3.038659e+00
3.098237e+00
3.169921e+00
3.279452e+00
3.396935e+00
3.492000e+00
3.574347e+00
3.687055e+00
3.861256e+00
4.039083e+00
4.014261e+00
3.744528e+00
3.519984e+00
3.249465e+00
3.216364e+00
3.244236e+00
3.296175e+00
3.319578e+00
3.368868e+00
3.462761e+00
3.568986e+00
3.656622e+00
3.730537e+00
3.823745e+00
3.955709e+00
4.065102e+00
3.962657e+00
3.656164e+00
3.424836e+00
3.952224e+00
3.870926e+00
3.801624e+00
3.756310e+00
3.721059e+00
3.733676e+00
3.794270e+00
3.870028e+00
3.930778e+00
3.971677e+00
4.008667e+00
4.051368e+00
4.056790e+00
3.899693e+00
3.620667e+00
3.447132e+00
4.485038e+00
4.365211e+00
4.212929e+00
4.089364e+00
4.012702e+00
3.995163e+00
4.021138e+00
4.058852e+00
4.079862e+00
4.072225e+00
4.042593e+00
4.005952e+00
3.959085e+00
3.852696e+00
3.725144e+00
3.673852e+00
4.493526e+00
4.372734e+00
4.217625e+00
4.089649e+00
4.007591e+00
3.982724e+00
3.997712e+00
4.019473e+00
4.019375e+00
3.987124e+00
3.935118e+00
3.892795e+00
3.886433e+00
3.909306e+00
3.967660e+00
4.040109e+00
3.972468e+00
3.888828e+00
3.812977e+00
3.757989e+00
3.711925e+00
3.711051e+00
3.751993e+00
3.799503e+00
3.823290e+00
3.821105e+00
3.818255e+00
3.852585e+00
3.953542e+00
4.116222e+00
4.311036e+00
4.455174e+00
3.271975e+00
3.236118e+00
3.257000e+00
3.299741e+00
3.315136e+00
3.357528e+00
3.443398e+00
3.539716e+00
3.616911e+00
3.681011e+00
3.767086e+00
3.911600e+00
4.127806e+00
4.390793e+00
4.643971e+00
4.798740e+00
2.869812e+00
2.861838e+00
2.941560e+00
3.043101e+00
3.098573e+00
3.170766e+00
3.285083e+00
3.413065e+00
3.527591e+00
3.639121e+00
3.786174e+00
4.000490e+00
4.280091e+00
4.582769e+00
4.838518e+00
4.984363e+00


-1.442544e+00
-1.086171e+00
-8.309222e-01
-6.656864e-01
-4.565077e-01
-2.654680e-01
-1.058374e-01
4.646623e-02
2.026099e-01
3.479550e-01
4.625605e-01
5.392215e-01
5.885774e-01
6.365575e-01
7.034126e-01
-2.028193e-01
1.226637e-01
-6.721219e-02
-1.506281e-02
7.209574e-02
1.837722e-01
2.843388e-01
3.670122e-01
4.468511e-01
5.333619e-01
6.225517e-01
7.069828e-01
7.865941e-01
8.675972e-01
9.365354e-01
8.317519e-01
-7.249145e-01
6.951137e-01
5.724692e-01
5.149205e-01
5.297834e-01
5.677533e-01
6.037336e-01
6.339135e-01
6.649463e-01
7.028148e-01
7.474756e-01
7.936719e-01
8.317121e-01
8.410560e-01
7.761260e-01
5.555430e-01
1.781867e-01
9.161892e-01
8.227558e-01
7.588174e-01
7.368178e-01
7.368257e-01
7.403112e-01
7.422294e-01
7.443478e-01
7.499504e-01
7.586985e-01
7.637928e-01
7.521230e-01
7.079194e-01
6.346410e-01
5.897296e-01
5.987500e-01
9.152608e-01
8.223010e-01
7.590290e-01
7.374152e-01
7.369352e-01
7.385366e-01
7.363568e-01
7.309871e-01
7.245786e-01
7.166557e-01
7.029502e-01
6.789036e-01
6.491839e-01
6.446982e-01
7.053364e-01
8.179521e-01
6.910066e-01
5.691469e-01
5.132909e-01
5.294556e-01
5.664025e-01
5.979804e-01
6.189799e-01
6.338282e-01
6.464015e-01
6.562443e-01
6.613783e-01
6.645788e-01
6.798569e-01
7.310327e-01
8.259504e-01
9.350979e-01
1.119475e-01
-7.793873e-02
-2.188026e-02
6.934121e-02
1.822095e-01
2.809463e-01
3.592676e-01
4.316901e-01
5.068324e-01
5.807130e-01
6.466527e-01
7.054515e-01
7.671041e-01
8.434206e-01
9.273308e-01
9.869974e-01
-1.467498e+00
-1.107015e+00
-8.444848e-01
-6.720295e-01
-4.584079e-01
-2.638713e-01
-9.733123e-02
6.887514e-02
2.486042e-01
4.303379e-01
5.973873e-01
7.418730e-01
8.596481e-01
9.432767e-01
9.875810e-01
9.996832e-01
1 2 19 18
2 3 20 19
3 4 21 20
4 5 22 21
5 6 23 22
6 7 24 23
7 8 25 24
8 9 26 25
9 10 27 26
10 11 28 27
11 12 29 28
12 13 30 29
13 14 31 30
14 15 32 31
15 16 33 32
16 17 34 33
18 19 36 35
19 20 37 36
20 21 38 37
21 22 39 38
22 23 40 39
23 24 41 40
24 25 42 41
25 26 43 42
26 27 44 43
27 28 45 44
28 29 46 45
29 30 47 46
30 31 48 47
31 32 49 48
32 33 50 49
33 34 51 50
35 36 53 52
36 37 54 53
37 38 55 54
38 39 56 55
39 40 57 56
40 41 58 57
41 42 59 58
42 43 60 59
43 44 61 60
44 45 62 61
45 46 63 62
46 47 64 63
47 48 65 64
48 49 66 65
49 50 67 66
50 51 68 67
52 53 70 69
53 54 71 70
54 55 72 71
55 56 73 72
56 57 74 73
57 58 75 74
58 59 76 75
59 60 77 76
60 61 78 77
61 62 79 78
62 63 80 79
63 64 81 80
64 65 82 81
65 66 83 82
66 67 84 83
67 68 85 84
69 70 87 86
70 71 88 87
71 72 89 88
72 73 90 89
73 74 91 90
74 75 92 91
75 76 93 92
76 77 94 93
77 78 95 94
78 79 96 95
79 80 97 96
80 81 98 97
81 82 99 98
82 83 100 99
83 84 101 100
84 85 102 101
86 87 104 103
87 88 105 104
88 89 106 105
89 90 107 106
90 91 108 107
91 92 109 108
92 93 110 109
93 94 111 110
94 95 112 111
95 96 113 112
96 97 114 113
97 98 115 114
98 99 116 115
99 100 117 116
100 101 118 117
101 102 119 118
103 104 121 120
104 105 122 121
105 106 123 122
106 107 124 123
107 108 125 124
108 109 126 125
109 110 127 126
110 111 128 127
111 112 129 128
112 113 130 129
113 114 131 130
114 115 132 131
115 116 133 132
116 117 134 133
117 118 135 134
118 119 136 135
120 121 138 137
121 122 139 138
122 123 140 139
123 124 141 140
124 125 142 141
125 126 143 142
126 127 144 143
127 128 145 144
128 129 146 145
129 130 147 146
130 131 148 147
131 132 149 148
132 133 150 149
133 134 151 150
134 135 152 151
135 136 153 152
