TITLE = "Solution"
VARIABLES = x, y, u, v, psiu, psiv, t, stress
ZONE T="structure" N=153 E=128 F=FEBLOCK ET=QUADRILATERAL VARLOCATION=([7,8]=cellcentered)
0.000000e+00
1.250000e+01
2.500000e+01
3.750000e+01
5.000000e+01
6.250000e+01
7.500000e+01
8.750000e+01
1.000000e+02
1.125000e+02
1.250000e+02
1.375000e+02
1.500000e+02
1.625000e+02
1.750000e+02
1.875000e+02
2.000000e+02
0.000000e+00
1.250000e+01
2.500000e+01
3.750000e+01
5.000000e+01
6.250000e+01
7.500000e+01
8.750000e+01
1.000000e+02
1.125000e+02
1.250000e+02
1.375000e+02
1.500000e+02
1.625000e+02
1.750000e+02
1.875000e+02
2.000000e+02
0.000000e+00
1.250000e+01
2.500000e+01
3.750000e+01
5.000000e+01
6.250000e+01
7.500000e+01
8.750000e+01
1.000000e+02
1.125000e+02
1.250000e+02
1.375000e+02
1.500000e+02
1.625000e+02
1.750000e+02
1.875000e+02
2.000000e+02
0.000000e+00
1.250000e+01
2.500000e+01
3.750000e+01
5.000000e+01
6.250000e+01
7.500000e+01
8.750000e+01
1.000000e+02
1.125000e+02
1.250000e+02
1.375000e+02
1.500000e+02
1.625000e+02
1.750000e+02
1.875000e+02
2.000000e+02
0.000000e+00
1.250000e+01
2.500000e+01
3.750000e+01
5.000000e+01
6.250000e+01
7.500000e+01
8.750000e+01
1.000000e+02
1.125000e+02
1.250000e+02
1.375000e+02
1.500000e+02
1.625000e+02
1.750000e+02
1.875000e+02
2.000000e+02
0.000000e+00
1.250000e+01
2.500000e+01
3.750000e+01
5.000000e+01
6.250000e+01
7.500000e+01
8.750000e+01
1.000000e+02
1.125000e+02
1.250000e+02
1.375000e+02
1.500000e+02
1.625000e+02
1.750000e+02
1.875000e+02
2.000000e+02
0.000000e+00
1.250000e+01
2.500000e+01
3.750000e+01
5.000000e+01
6.250000e+01
7.500000e+01
8.750000e+01
1.000000e+02
1.125000e+02
1.250000e+02
1.375000e+02
1.500000e+02
1.625000e+02
1.750000e+02
1.875000e+02
2.000000e+02
0.000000e+00
1.250000e+01
2.500000e+01
3.750000e+01
5.000000e+01
6.250000e+01
7.500000e+01
8.750000e+01
1.000000e+02
1.125000e+02
1.250000e+02
1.375000e+02
1.500000e+02
1.625000e+02
1.750000e+02
1.875000e+02
2.000000e+02
0.000000e+00
1.250000e+01
2.500000e+01
3.750000e+01
5.000000e+01
6.250000e+01
7.500000e+01
8.750000e+01
1.000000e+02
1.125000e+02
1.250000e+02
1.375000e+02
1.500000e+02
1.625000e+02
1.750000e+02
1.875000e+02
2.000000e+02
0.000000e+00
0.000000e+00
0.000000e+00
0.000000e+00
0.000000e+00
0.000000e+00
0.000000e+00
0.000000e+00
0.000000e+00
0.000000e+00
0.000000e+00
0.000000e+00
0.000000e+00
0.000000e+00
0.000000e+00
0.000000e+00
0.000000e+00
1.250000e+01
1.250000e+01
1.250000e+01
1.250000e+01
1.250000e+01
1.250000e+01
1.250000e+01
1.250000e+01
1.250000e+01
1.250000e+01
1.250000e+01
1.250000e+01
1.250000e+01
1.250000e+01
1.250000e+01
1.250000e+01
1.250000e+01
2.500000e+01
2.500000e+01
2.500000e+01
2.500000e+01
2.500000e+01
2.500000e+01
2.500000e+01
2.500000e+01
2.500000e+01
2.500000e+01
2.500000e+01
2.500000e+01
2.500000e+01
2.500000e+01
2.500000e+01
2.500000e+01
2.500000e+01
3.750000e+01
3.750000e+01
3.750000e+01
3.750000e+01
3.750000e+01
3.750000e+01
3.750000e+01
3.750000e+01
3.750000e+01
3.750000e+01
3.750000e+01
3.750000e+01
3.750000e+01
3.750000e+01
3.750000e+01
3.750000e+01
3.750000e+01
5.000000e+01
5.000000e+01
5.000000e+01
5.000000e+01
5.000000e+01
5.000000e+01
5.000000e+01
5.000000e+01
5.000000e+01
5.000000e+01
5.000000e+01
5.000000e+01
5.000000e+01
5.000000e+01
5.000000e+01
5.000000e+01
5.000000e+01
6.250000e+01
6.250000e+01
6.250000e+01
6.250000e+01
6.250000e+01
6.250000e+01
6.250000e+01
6.250000e+01
6.250000e+01
6.250000e+01
6.250000e+01
6.250000e+01
6.250000e+01
6.250000e+01
6.250000e+01
6.250000e+01
6.250000e+01
7.500000e+01
7.500000e+01
7.500000e+01
7.500000e+01
7.500000e+01
7.500000e+01
7.500000e+01
7.500000e+01
7.500000e+01
7.500000e+01
7.500000e+01
7.500000e+01
7.500000e+01
7.500000e+01
7.500000e+01
7.500000e+01
7.500000e+01
8.750000e+01
8.750000e+01
8.750000e+01
8.750000e+01
8.750000e+01
8.750000e+01
8.750000e+01
8.750000e+01
8.750000e+01
8.750000e+01
8.750000e+01
8.750000e+01
8.750000e+01
8.750000e+01
8.750000e+01
8.750000e+01
8.750000e+01
1.000000e+02
1.000000e+02
1.000000e+02
1.000000e+02
1.000000e+02
1.000000e+02
1.000000e+02
1.000000e+02
1.000000e+02
1.000000e+02
1.000000e+02
1.000000e+02
1.000000e+02
1.000000e+02
1.000000e+02
1.000000e+02
1.000000e+02
0.000000e+00
-9.959131e-01
-1.679005e+00
-2.431195e+00
-3.117234e+00
-3.750498e+00
-4.458225e+00
-5.087225e+00
-5.763225e+00
-6.405586e+00
-7.055539e+00
-7.723566e+00
-8.376451e+00
-9.146446e+00
-1.007747e+01
-1.083397e+01
-1.128409e+01
0.000000e+00
-4.459748e-01
-9.064831e-01
-1.419027e+00
-1.930662e+00
-2.410707e+00
-2.924825e+00
-3.423023e+00
-3.918997e+00
-4.421447e+00
-4.913935e+00
-5.416920e+00
-5.901781e+00
-6.421406e+00
-6.897728e+00
-7.024061e+00
-7.202951e+00
0.000000e+00
-1.460941e-01
-3.488458e-01
-6.395568e-01
-9.775491e-01
-1.302578e+00
-1.655712e+00
-2.012853e+00
-2.356398e+00
-2.718583e+00
-3.057406e+00
-3.391729e+00
-3.687427e+00
-3.927369e+00
-4.036616e+00
-4.034640e+00
-4.183059e+00
0.000000e+00
-7.898647e-02
-1.621203e-01
-3.096524e-01
-4.548942e-01
-6.281821e-01
-8.139213e-01
-9.790765e-01
-1.166870e+00
-1.328805e+00
-1.489857e+00
-1.628921e+00
-1.722330e+00
-1.730509e+00
-1.656855e+00
-1.635896e+00
-1.752938e+00
0.000000e+00
-3.321121e-03
-7.229272e-03
-1.129440e-02
-1.568439e-02
-1.911672e-02
-2.000047e-02
-1.725815e-02
-8.489721e-03
8.359846e-03
3.276188e-02
7.771208e-02
1.602375e-01
2.751737e-01
3.949896e-01
4.358704e-01
3.376914e-01
0.000000e+00
7.317743e-02
1.504098e-01
2.905783e-01
4.290567e-01
5.955631e-01
7.744536e-01
9.426970e-01
1.148744e+00
1.343961e+00
1.561950e+00
1.782247e+00
2.008888e+00
2.216407e+00
2.352212e+00
2.385115e+00
2.319436e+00
0.000000e+00
1.437287e-01
3.435504e-01
6.305252e-01
9.655907e-01
1.290844e+00
1.643094e+00
1.999651e+00
2.359099e+00
2.764634e+00
3.143697e+00
3.510686e+00
3.843519e+00
4.119243e+00
4.296031e+00
4.350670e+00
4.328005e+00
0.000000e+00
4.466849e-01
9.072229e-01
1.419532e+00
1.930462e+00
2.409062e+00
2.920107e+00
3.415641e+00
3.903288e+00
4.396694e+00
4.874976e+00
5.350104e+00
5.778014e+00
6.125704e+00
6.342798e+00
6.438621e+00
6.456334e+00
0.000000e+00
9.981983e-01
1.684097e+00
2.440044e+00
3.128033e+00
3.761859e+00
4.468599e+00
5.095744e+00
5.747538e+00
6.331620e+00
6.905084e+00
7.505956e+00
8.035971e+00
8.448073e+00
8.649319e+00
8.702054e+00
8.702583e+00
0.000000e+00
-6.187599e-01
-1.361820e+00
-2.363228e+00
-3.537411e+00
-4.880954e+00
-6.412444e+00
-8.098583e+00
-9.959060e+00
-1.198255e+01
-1.416733e+01
-1.651819e+01
-1.903186e+01
-2.176299e+01
-2.472723e+01
-2.808668e+01
-3.310235e+01
0.000000e+00
-4.159083e-01
-1.193483e+00
-2.177010e+00
-3.368358e+00
-4.706821e+00
-6.234903e+00
-7.929984e+00
-9.782759e+00
-1.181499e+01
-1.399504e+01
-1.635048e+01
-1.885898e+01
-2.157033e+01
-2.458704e+01
-2.800293e+01
-3.205277e+01
0.000000e+00
-3.903604e-01
-1.091665e+00
-2.073605e+00
-3.249244e+00
-4.580878e+00
-6.115188e+00
-7.800149e+00
-9.663771e+00
-1.169315e+01
-1.388438e+01
-1.625119e+01
-1.876991e+01
-2.150807e+01
-2.457706e+01
-2.785106e+01
-3.088358e+01
0.000000e+00
-4.493487e-01
-1.088042e+00
-2.047474e+00
-3.186817e+00
-4.511287e+00
-6.053568e+00
-7.723457e+00
-9.606156e+00
-1.163448e+01
-1.384744e+01
-1.623413e+01
-1.877837e+01
-2.151841e+01
-2.450739e+01
-2.754138e+01
-3.016726e+01
0.000000e+00
-4.562798e-01
-1.110444e+00
-2.031896e+00
-3.172475e+00
-4.501624e+00
-6.032018e+00
-7.721746e+00
-9.595921e+00
-1.164660e+01
-1.387404e+01
-1.626791e+01
-1.881962e+01
-2.151956e+01
-2.435680e+01
-2.717481e+01
-2.956274e+01
0.000000e+00
-4.480825e-01
-1.087722e+00
-2.049571e+00
-3.193796e+00
-4.528508e+00
-6.081158e+00
-7.760221e+00
-9.657994e+00
-1.171223e+01
-1.394439e+01
-1.632007e+01
-1.885053e+01
-2.150959e+01
-2.422189e+01
-2.685504e+01
-2.912437e+01
0.000000e+00
-3.886731e-01
-1.091678e+00
-2.078430e+00
-3.263063e+00
-4.610195e+00
-6.160984e+00
-7.869481e+00
-9.763019e+00
-1.182854e+01
-1.403079e+01
-1.638734e+01
-1.888974e+01
-2.150949e+01
-2.413950e+01
-2.664784e+01
-2.889064e+01
0.000000e+00
-4.143471e-01
-1.193591e+00
-2.182703e+00
-3.384600e+00
-4.738062e+00
-6.286009e+00
-8.010537e+00
-9.901592e+00
-1.196582e+01
-1.414584e+01
-1.648587e+01
-1.896691e+01
-2.155103e+01
-2.411898e+01
-2.656030e+01
-2.883015e+01
0.000000e+00
-6.177893e-01
-1.362555e+00
-2.369618e+00
-3.554055e+00
-4.912059e+00
-6.464243e+00
-8.178842e+00
-1.007429e+01
-1.212127e+01
-1.430098e+01
-1.663408e+01
-1.909056e+01
-2.163305e+01
-2.414360e+01
-2.654541e+01
-2.882901e+01


0.000000e+00
1.541820e-05
2.508273e-05
3.749343e-05
5.358462e-05
6.716910e-05
8.318308e-05
9.713700e-05
1.118651e-04
1.257458e-04
1.408871e-04
1.552326e-04
1.717893e-04
1.876083e-04
1.976890e-04
2.034321e-04
2.103653e-04
0.000000e+00
1.145769e-05
1.973649e-05
2.841440e-05
4.099197e-05
5.172241e-05
6.184957e-05
7.296212e-05
8.316438e-05
9.457657e-05
1.052316e-04
1.156240e-04
1.264860e-04
1.358413e-04
1.374455e-04
1.411990e-04
1.470218e-04
0.000000e+00
9.528872e-06
1.502520e-05
2.021160e-05
2.884478e-05
3.554700e-05
4.127796e-05
4.862605e-05
5.459697e-05
6.196723e-05
6.837109e-05
7.404556e-05
7.875955e-05
8.094358e-05
8.019326e-05
8.256962e-05
8.680147e-05
0.000000e+00
5.186682e-06
6.844071e-06
9.623088e-06
1.306247e-05
1.351944e-05
1.587009e-05
1.725501e-05
2.088436e-05
2.431234e-05
2.806478e-05
2.912617e-05
2.854405e-05
2.711677e-05
2.684063e-05
2.987541e-05
3.554635e-05
0.000000e+00
-1.758521e-07
-4.381358e-07
-8.620661e-07
-1.735053e-06
-2.897969e-06
-5.015825e-06
-7.263668e-06
-7.840438e-06
-7.885861e-06
-8.821991e-06
-1.195852e-05
-1.470284e-05
-1.613502e-05
-1.581040e-05
-1.365763e-05
-9.667713e-06
0.000000e+00
-5.451979e-06
-7.435985e-06
-1.075756e-05
-1.466790e-05
-1.608878e-05
-2.055373e-05
-2.432585e-05
-3.027996e-05
-3.342965e-05
-3.757220e-05
-4.223260e-05
-4.737033e-05
-4.915913e-05
-4.970105e-05
-5.016799e-05
-4.843249e-05
0.000000e+00
-9.528151e-06
-1.509209e-05
-2.038052e-05
-2.894713e-05
-3.534030e-05
-4.074764e-05
-4.874079e-05
-5.591946e-05
-6.363090e-05
-6.890447e-05
-7.391122e-05
-7.805953e-05
-8.164659e-05
-8.354802e-05
-8.546481e-05
-8.621093e-05
0.000000e+00
-1.138655e-05
-1.964833e-05
-2.830874e-05
-4.076696e-05
-5.166479e-05
-6.160528e-05
-7.279734e-05
-8.318793e-05
-9.458043e-05
-1.052190e-04
-1.135991e-04
-1.183877e-04
-1.234243e-04
-1.270397e-04
-1.283460e-04
-1.284415e-04
0.000000e+00
-1.542861e-05
-2.502335e-05
-3.733961e-05
-5.337372e-05
-6.699534e-05
-8.287565e-05
-9.586589e-05
-1.099978e-04
-1.232989e-04
-1.409601e-04
-1.567957e-04
-1.666079e-04
-1.718324e-04
-1.740369e-04
-1.742590e-04
-1.740796e-04
0.000000e+00
1.259653e-05
1.999714e-05
3.243395e-05
4.873819e-05
6.685825e-05
9.128976e-05
1.201187e-04
1.534182e-04
1.901564e-04
2.303178e-04
2.743245e-04
3.242496e-04
3.783782e-04
4.399142e-04
5.107674e-04
5.841686e-04
0.000000e+00
7.679709e-06
1.610705e-05
2.633264e-05
4.227640e-05
6.089830e-05
8.482992e-05
1.142483e-04
1.471759e-04
1.840374e-04
2.239806e-04
2.681139e-04
3.176773e-04
3.734347e-04
4.346605e-04
5.033868e-04
5.738159e-04
0.000000e+00
4.325457e-06
1.229034e-05
2.172250e-05
3.645552e-05
5.567535e-05
7.940753e-05
1.097395e-04
1.430176e-04
1.795502e-04
2.193920e-04
2.635746e-04
3.138921e-04
3.710406e-04
4.305128e-04
4.959089e-04
5.641338e-04
0.000000e+00
3.198751e-06
1.058927e-05
2.008268e-05
3.450804e-05
5.200445e-05
7.640237e-05
1.087410e-04
1.435640e-04
1.781166e-04
2.173487e-04
2.619322e-04
3.131333e-04
3.696263e-04
4.277760e-04
4.880756e-04
5.499773e-04
0.000000e+00
2.810407e-06
1.026604e-05
2.004192e-05
3.424007e-05
5.071315e-05
7.528300e-05
1.097805e-04
1.447774e-04
1.780323e-04
2.155566e-04
2.618672e-04
3.133546e-04
3.697672e-04
4.266335e-04
4.816935e-04
5.338507e-04
0.000000e+00
3.342458e-06
1.078060e-05
2.046003e-05
3.484994e-05
5.180915e-05
7.716594e-05
1.106743e-04
1.453929e-04
1.778599e-04
2.159395e-04
2.633312e-04
3.156983e-04
3.700960e-04
4.265396e-04
4.793726e-04
5.228194e-04
0.000000e+00
4.479568e-06
1.251986e-05
2.206931e-05
3.673642e-05
5.575883e-05
8.038750e-05
1.117448e-04
1.447317e-04
1.789588e-04
2.182070e-04
2.665438e-04
3.191917e-04
3.722007e-04
4.256327e-04
4.766227e-04
5.193399e-04
0.000000e+00
7.804606e-06
1.634467e-05
2.663569e-05
4.253676e-05
6.131155e-05
8.580109e-05
1.159209e-04
1.481931e-04
1.832565e-04
2.228369e-04
2.703143e-04
3.222380e-04
3.744045e-04
4.257818e-04
4.746001e-04
5.197996e-04
0.000000e+00
1.271017e-05
2.023491e-05
3.272695e-05
4.908025e-05
6.739871e-05
9.233375e-05
1.215797e-04
1.543831e-04
1.894293e-04
2.300993e-04
2.746756e-04
3.245364e-04
3.755639e-04
4.261016e-04
4.741165e-04
5.200634e-04


5.676439e+00
6.139670e+00
6.866862e+00
5.937112e+00
5.737075e+00
6.570838e+00
6.430086e+00
6.429217e+00
5.965479e+00
5.904035e+00
6.284813e+00
7.151487e+00
8.848538e+00
9.830334e+00
9.151213e+00
8.002197e+00
8.084551e+00
8.461432e+00
8.661970e+00
8.358081e+00
8.237227e+00
8.511595e+00
8.674193e+00
8.426402e+00
8.399346e+00
8.270899e+00
8.417887e+00
8.845081e+00
9.507312e+00
9.842980e+00
8.395331e+00
6.474343e+00
9.843369e+00
9.823826e+00
9.999386e+00
9.837764e+00
9.836141e+00
9.969821e+00
9.835584e+00
9.947311e+00
9.848958e+00
9.880795e+00
9.898597e+00
9.876378e+00
9.894697e+00
9.395977e+00
8.000689e+00
6.191983e+00
9.999698e+00
9.999692e+00
9.999690e+00
9.999660e+00
9.999618e+00
9.999535e+00
9.999440e+00
9.999439e+00
9.999492e+00
9.999483e+00
9.999259e+00
9.483395e+00
8.832298e+00
8.373751e+00
7.992583e+00
7.921350e+00
9.999696e+00
9.999689e+00
9.999683e+00
9.999643e+00
9.999573e+00
9.999421e+00
9.934671e+00
9.963302e+00
9.999028e+00
9.918919e+00
9.360209e+00
8.595076e+00
7.710877e+00
7.748934e+00
8.654787e+00
9.170175e+00
9.843792e+00
9.823780e+00
9.999354e+00
9.837572e+00
9.835713e+00
9.712163e+00
9.306927e+00
9.520545e+00
9.387412e+00
8.873314e+00
8.312194e+00
7.900901e+00
8.204023e+00
8.757381e+00
9.449362e+00
9.998926e+00
8.087019e+00
8.462497e+00
8.661372e+00
8.356538e+00
8.155879e+00
8.061156e+00
7.898827e+00
7.808789e+00
7.898878e+00
7.348135e+00
7.487472e+00
8.493734e+00
9.293927e+00
9.849468e+00
9.999373e+00
9.999625e+00
5.682610e+00
6.141679e+00
6.865877e+00
5.929161e+00
5.706160e+00
6.236481e+00
6.049918e+00
6.517134e+00
6.299509e+00
6.532943e+00
7.872420e+00
9.116456e+00
9.986931e+00
9.999512e+00
9.999665e+00
9.999717e+00


-8.189349e-01
-1.674042e-01
-3.973609e-01
-2.584604e-01
-9.305898e-02
-3.071379e-01
-1.233445e-01
-2.097439e-01
-1.618404e-01
-1.577975e-01
-2.153094e-01
-1.497275e-01
-4.613825e-01
-6.860680e-01
3.157374e-01
-8.469603e-01
6.107610e-01
4.814536e-01
2.952395e-01
2.252437e-01
2.909839e-01
1.679840e-01
1.751185e-01
1.732403e-01
1.095850e-01
1.483118e-01
1.279591e-01
2.413575e-01
3.024737e-01
5.092852e-01
6.953488e-01
-9.344589e-01
7.227116e-01
4.716216e-01
5.643734e-02
-2.241302e-02
-3.621414e-02
-1.887313e-01
-8.019914e-02
-1.380717e-01
-7.742683e-02
-1.900154e-02
3.133325e-02
1.854617e-01
2.782359e-01
1.479518e-01
-2.538214e-02
-1.678696e-01
7.279675e-01
5.564352e-01
1.928224e-01
6.153086e-02
-2.222706e-02
-1.068319e-01
-1.640079e-02
-6.206039e-02
1.315994e-02
1.680050e-02
5.860839e-02
1.174490e-01
5.870654e-02
-2.623459e-01
-3.840131e-01
-7.821404e-02
7.308714e-01
5.603791e-01
2.008239e-01
6.972092e-02
-1.828590e-02
-1.127801e-01
-3.647663e-02
-1.028158e-01
-5.246541e-02
-4.362030e-02
2.094005e-02
1.403877e-02
-3.781883e-02
-1.298832e-01
-1.026475e-01
3.104926e-01
7.295235e-01
4.818359e-01
7.450680e-02
-4.447085e-03
-2.414616e-02
-1.624534e-01
-7.337806e-02
-1.877717e-01
-1.820565e-01
-1.091130e-01
-7.756933e-02
-9.779261e-02
-1.115762e-01
4.537237e-02
3.341099e-01
7.245519e-01
6.148465e-01
4.873169e-01
3.026968e-01
2.302228e-01
2.871003e-01
1.614332e-01
1.523133e-01
1.033555e-01
-5.757368e-02
-4.008582e-02
-9.646529e-02
-5.669035e-02
5.728297e-02
3.650751e-01
7.128564e-01
9.478990e-01
-8.246180e-01
-1.728847e-01
-4.049936e-01
-2.615753e-01
-9.224542e-02
-3.011766e-01
-1.193527e-01
-1.571933e-01
-5.600512e-02
-2.185469e-02
-9.259804e-02
1.001139e-01
3.878153e-01
7.721273e-01
9.528996e-01
9.987356e-01
1 2 19 18
2 3 20 19
3 4 21 20
4 5 22 21
5 6 23 22
6 7 24 23
7 8 25 24
8 9 26 25
9 10 27 26
10 11 28 27
11 12 29 28
12 13 30 29
13 14 31 30
14 15 32 31
15 16 33 32
16 17 34 33
18 19 36 35
19 20 37 36
20 21 38 37
21 22 39 38
22 23 40 39
23 24 41 40
24 25 42 41
25 26 43 42
26 27 44 43
27 28 45 44
28 29 46 45
29 30 47 46
30 31 48 47
31 32 49 48
32 33 50 49
33 34 51 50
35 36 53 52
36 37 54 53
37 38 55 54
38 39 56 55
39 40 57 56
40 41 58 57
41 42 59 58
42 43 60 59
43 44 61 60
44 45 62 61
45 46 63 62
46 47 64 63
47 48 65 64
48 49 66 65
49 50 67 66
50 51 68 67
52 53 70 69
53 54 71 70
54 55 72 71
55 56 73 72
56 57 74 73
57 58 75 74
58 59 76 75
59 60 77 76
60 61 78 77
61 62 79 78
62 63 80 79
63 64 81 80
64 65 82 81
65 66 83 82
66 67 84 83
67 68 85 84
69 70 87 86
70 71 88 87
71 72 89 88
72 73 90 89
73 74 91 90
74 75 92 91
75 76 93 92
76 77 94 93
77 78 95 94
78 79 96 95
79 80 97 96
80 81 98 97
81 82 99 98
82 83 100 99
83 84 101 100
84 85 102 101
86 87 104 103
87 88 105 104
88 89 106 105
89 90 107 106
90 91 108 107
91 92 109 108
92 93 110 109
93 94 111 110
94 95 112 111
95 96 113 112
96 97 114 113
97 98 115 114
98 99 116 115
99 100 117 116
100 101 118 117
101 102 119 118
103 104 121 120
104 105 122 121
105 106 123 122
106 107 124 123
107 108 125 124
108 109 126 125
109 110 127 126
110 111 128 127
111 112 129 128
112 113 130 129
113 114 131 130
114 115 132 131
115 116 133 132
116 117 134 133
117 118 135 134
118 119 136 135
120 121 138 137
121 122 139 138
122 123 140 139
123 124 141 140
124 125 142 141
125 126 143 142
126 127 144 143
127 128 145 144
128 129 146 145
129 130 147 146
130 131 148 147
131 132 149 148
132 133 150 149
133 134 151 150
134 135 152 151
135 136 153 152
