TITLE = "Solution"
VARIABLES = x, y, u, v, psiu, psiv, t, stress
ZONE T="structure" N=153 E=128 F=FEBLOCK ET=QUADRILATERAL VARLOCATION=([7,8]=cellcentered)
0.000000e+00
1.250000e+01
2.500000e+01
3.750000e+01
5.000000e+01
6.250000e+01
7.500000e+01
8.750000e+01
1.000000e+02
1.125000e+02
1.250000e+02
1.375000e+02
1.500000e+02
1.625000e+02
1.750000e+02
1.875000e+02
2.000000e+02
0.000000e+00
1.250000e+01
2.500000e+01
3.750000e+01
5.000000e+01
6.250000e+01
7.500000e+01
8.750000e+01
1.000000e+02
1.125000e+02
1.250000e+02
1.375000e+02
1.500000e+02
1.625000e+02
1.750000e+02
1.875000e+02
2.000000e+02
0.000000e+00
1.250000e+01
2.500000e+01
3.750000e+01
5.000000e+01
6.250000e+01
7.500000e+01
8.750000e+01
1.000000e+02
1.125000e+02
1.250000e+02
1.375000e+02
1.500000e+02
1.625000e+02
1.750000e+02
1.875000e+02
2.000000e+02
0.000000e+00
1.250000e+01
2.500000e+01
3.750000e+01
5.000000e+01
6.250000e+01
7.500000e+01
8.750000e+01
1.000000e+02
1.125000e+02
1.250000e+02
1.375000e+02
1.500000e+02
1.625000e+02
1.750000e+02
1.875000e+02
2.000000e+02
0.000000e+00
1.250000e+01
2.500000e+01
3.750000e+01
5.000000e+01
6.250000e+01
7.500000e+01
8.750000e+01
1.000000e+02
1.125000e+02
1.250000e+02
1.375000e+02
1.500000e+02
1.625000e+02
1.750000e+02
1.875000e+02
2.000000e+02
0.000000e+00
1.250000e+01
2.500000e+01
3.750000e+01
5.000000e+01
6.250000e+01
7.500000e+01
8.750000e+01
1.000000e+02
1.125000e+02
1.250000e+02
1.375000e+02
1.500000e+02
1.625000e+02
1.750000e+02
1.875000e+02
2.000000e+02
0.000000e+00
1.250000e+01
2.500000e+01
3.750000e+01
5.000000e+01
6.250000e+01
7.500000e+01
8.750000e+01
1.000000e+02
1.125000e+02
1.250000e+02
1.375000e+02
1.500000e+02
1.625000e+02
1.750000e+02
1.875000e+02
2.000000e+02
0.000000e+00
1.250000e+01
2.500000e+01
3.750000e+01
5.000000e+01
6.250000e+01
7.500000e+01
8.750000e+01
1.000000e+02
1.125000e+02
1.250000e+02
1.375000e+02
1.500000e+02
1.625000e+02
1.750000e+02
1.875000e+02
2.000000e+02
0.000000e+00
1.250000e+01
2.500000e+01
3.750000e+01
5.000000e+01
6.250000e+01
7.500000e+01
8.750000e+01
1.000000e+02
1.125000e+02
1.250000e+02
1.375000e+02
1.500000e+02
1.625000e+02
1.750000e+02
1.875000e+02
2.000000e+02
0.000000e+00
0.000000e+00
0.000000e+00
0.000000e+00
0.000000e+00
0.000000e+00
0.000000e+00
0.000000e+00
0.000000e+00
0.000000e+00
0.000000e+00
0.000000e+00
0.000000e+00
0.000000e+00
0.000000e+00
0.000000e+00
0.000000e+00
1.250000e+01
1.250000e+01
1.250000e+01
1.250000e+01
1.250000e+01
1.250000e+01
1.250000e+01
1.250000e+01
1.250000e+01
1.250000e+01
1.250000e+01
1.250000e+01
1.250000e+01
1.250000e+01
1.250000e+01
1.250000e+01
1.250000e+01
2.500000e+01
2.500000e+01
2.500000e+01
2.500000e+01
2.500000e+01
2.500000e+01
2.500000e+01
2.500000e+01
2.500000e+01
2.500000e+01
2.500000e+01
2.500000e+01
2.500000e+01
2.500000e+01
2.500000e+01
2.500000e+01
2.500000e+01
3.750000e+01
3.750000e+01
3.750000e+01
3.750000e+01
3.750000e+01
3.750000e+01
3.750000e+01
3.750000e+01
3.750000e+01
3.750000e+01
3.750000e+01
3.750000e+01
3.750000e+01
3.750000e+01
3.750000e+01
3.750000e+01
3.750000e+01
5.000000e+01
5.000000e+01
5.000000e+01
5.000000e+01
5.000000e+01
5.000000e+01
5.000000e+01
5.000000e+01
5.000000e+01
5.000000e+01
5.000000e+01
5.000000e+01
5.000000e+01
5.000000e+01
5.000000e+01
5.000000e+01
5.000000e+01
6.250000e+01
6.250000e+01
6.250000e+01
6.250000e+01
6.250000e+01
6.250000e+01
6.250000e+01
6.250000e+01
6.250000e+01
6.250000e+01
6.250000e+01
6.250000e+01
6.250000e+01
6.250000e+01
6.250000e+01
6.250000e+01
6.250000e+01
7.500000e+01
7.500000e+01
7.500000e+01
7.500000e+01
7.500000e+01
7.500000e+01
7.500000e+01
7.500000e+01
7.500000e+01
7.500000e+01
7.500000e+01
7.500000e+01
7.500000e+01
7.500000e+01
7.500000e+01
7.500000e+01
7.500000e+01
8.750000e+01
8.750000e+01
8.750000e+01
8.750000e+01
8.750000e+01
8.750000e+01
8.750000e+01
8.750000e+01
8.750000e+01
8.750000e+01
8.750000e+01
8.750000e+01
8.750000e+01
8.750000e+01
8.750000e+01
8.750000e+01
8.750000e+01
1.000000e+02
1.000000e+02
1.000000e+02
1.000000e+02
1.000000e+02
1.000000e+02
1.000000e+02
1.000000e+02
1.000000e+02
1.000000e+02
1.000000e+02
1.000000e+02
1.000000e+02
1.000000e+02
1.000000e+02
1.000000e+02
1.000000e+02
0.000000e+00
-9.953062e-01
-1.679255e+00
-2.431224e+00
-3.116686e+00
-3.751256e+00
-4.457861e+00
-5.087526e+00
-5.763285e+00
-6.405619e+00
-7.055839e+00
-7.723570e+00
-8.376639e+00
-9.146873e+00
-1.007759e+01
-1.083399e+01
-1.128412e+01
0.000000e+00
-4.456795e-01
-9.067683e-01
-1.419033e+00
-1.930530e+00
-2.411041e+00
-2.925006e+00
-3.423119e+00
-3.919284e+00
-4.421501e+00
-4.914213e+00
-5.417032e+00
-5.901926e+00
-6.421676e+00
-6.897740e+00
-7.023994e+00
-7.202874e+00
0.000000e+00
-1.461402e-01
-3.490801e-01
-6.396666e-01
-9.776580e-01
-1.302815e+00
-1.656090e+00
-2.012895e+00
-2.356741e+00
-2.718596e+00
-3.057584e+00
-3.391788e+00
-3.687461e+00
-3.927372e+00
-4.036513e+00
-4.034502e+00
-4.182938e+00
0.000000e+00
-7.896837e-02
-1.621734e-01
-3.096251e-01
-4.547957e-01
-6.283415e-01
-8.136401e-01
-9.791832e-01
-1.166643e+00
-1.328697e+00
-1.489697e+00
-1.628749e+00
-1.722128e+00
-1.730290e+00
-1.656669e+00
-1.635746e+00
-1.752832e+00
0.000000e+00
-3.305535e-03
-7.199193e-03
-1.123587e-02
-1.559319e-02
-1.896658e-02
-1.977031e-02
-1.695804e-02
-8.115022e-03
8.737867e-03
3.314201e-02
7.802997e-02
1.605334e-01
2.754662e-01
3.952524e-01
4.360542e-01
3.378761e-01
0.000000e+00
7.319015e-02
1.505251e-01
2.906320e-01
4.290691e-01
5.959465e-01
7.745933e-01
9.435693e-01
1.149391e+00
1.344771e+00
1.562524e+00
1.782842e+00
2.009313e+00
2.216735e+00
2.352526e+00
2.385401e+00
2.319720e+00
0.000000e+00
1.437939e-01
3.438366e-01
6.306728e-01
9.657015e-01
1.290975e+00
1.643292e+00
1.999642e+00
2.359793e+00
2.764908e+00
3.144152e+00
3.511114e+00
3.843971e+00
4.119625e+00
4.296388e+00
4.351009e+00
4.328358e+00
0.000000e+00
4.463458e-01
9.075471e-01
1.419541e+00
1.930309e+00
2.409418e+00
2.920313e+00
3.415643e+00
3.903558e+00
4.396711e+00
4.875101e+00
5.350190e+00
5.778319e+00
6.126036e+00
6.343162e+00
6.438987e+00
6.456697e+00
0.000000e+00
9.974929e-01
1.684361e+00
2.440059e+00
3.127447e+00
3.762894e+00
4.468477e+00
5.096290e+00
5.747364e+00
6.331686e+00
6.905132e+00
7.505971e+00
8.036266e+00
8.448408e+00
8.649696e+00
8.702443e+00
8.702976e+00
0.000000e+00
-6.185690e-01
-1.361646e+00
-2.362808e+00
-3.536908e+00
-4.880595e+00
-6.411813e+00
-8.097965e+00
-9.958401e+00
-1.198181e+01
-1.416666e+01
-1.651737e+01
-1.903106e+01
-2.176223e+01
-2.472645e+01
-2.808602e+01
-3.310178e+01
0.000000e+00
-4.155992e-01
-1.193231e+00
-2.176699e+00
-3.367770e+00
-4.706340e+00
-6.234407e+00
-7.929221e+00
-9.782212e+00
-1.181417e+01
-1.399439e+01
-1.634969e+01
-1.885813e+01
-2.156959e+01
-2.458630e+01
-2.800225e+01
-3.205225e+01
0.000000e+00
-3.899968e-01
-1.091483e+00
-2.073301e+00
-3.248523e+00
-4.580536e+00
-6.114509e+00
-7.799520e+00
-9.663158e+00
-1.169239e+01
-1.388374e+01
-1.625040e+01
-1.876907e+01
-2.150733e+01
-2.457634e+01
-2.785034e+01
-3.088291e+01
0.000000e+00
-4.489817e-01
-1.087853e+00
-2.047190e+00
-3.185923e+00
-4.511148e+00
-6.052555e+00
-7.723069e+00
-9.605424e+00
-1.163389e+01
-1.384679e+01
-1.623335e+01
-1.877752e+01
-2.151764e+01
-2.450671e+01
-2.754063e+01
-3.016641e+01
0.000000e+00
-4.559976e-01
-1.110194e+00
-2.031519e+00
-3.171811e+00
-4.501140e+00
-6.031262e+00
-7.721106e+00
-9.595455e+00
-1.164600e+01
-1.387338e+01
-1.626714e+01
-1.881873e+01
-2.151878e+01
-2.435617e+01
-2.717408e+01
-2.956195e+01
0.000000e+00
-4.476860e-01
-1.087527e+00
-2.049286e+00
-3.192837e+00
-4.528386e+00
-6.080015e+00
-7.759920e+00
-9.657469e+00
-1.171178e+01
-1.394358e+01
-1.631931e+01
-1.884965e+01
-2.150878e+01
-2.422128e+01
-2.685439e+01
-2.912369e+01
0.000000e+00
-3.882680e-01
-1.091469e+00
-2.078069e+00
-3.262226e+00
-4.609764e+00
-6.160305e+00
-7.869044e+00
-9.762779e+00
-1.182792e+01
-1.403006e+01
-1.638652e+01
-1.888892e+01
-2.150869e+01
-2.413886e+01
-2.664722e+01
-2.889004e+01
0.000000e+00
-4.140001e-01
-1.193293e+00
-2.182309e+00
-3.383853e+00
-4.737465e+00
-6.285579e+00
-8.010048e+00
-9.901424e+00
-1.196512e+01
-1.414521e+01
-1.648501e+01
-1.896615e+01
-2.155026e+01
-2.411831e+01
-2.655967e+01
-2.882955e+01
0.000000e+00
-6.175745e-01
-1.362344e+00
-2.369096e+00
-3.553407e+00
-4.911638e+00
-6.463657e+00
-8.178501e+00
-1.007392e+01
-1.212069e+01
-1.430030e+01
-1.663328e+01
-1.908984e+01
-2.163231e+01
-2.414292e+01
-2.654478e+01
-2.882841e+01


0.000000e+00
1.541760e-05
2.509308e-05
3.749757e-05
5.358932e-05
6.719414e-05
8.316635e-05
9.717520e-05
1.118493e-04
1.257606e-04
1.408860e-04
1.552096e-04
1.717899e-04
1.875676e-04
1.975739e-04
2.032955e-04
2.102304e-04
0.000000e+00
1.145894e-05
1.974118e-05
2.840939e-05
4.099867e-05
5.171383e-05
6.183256e-05
7.294999e-05
8.314321e-05
9.454591e-05
1.052184e-04
1.155844e-04
1.264794e-04
1.358147e-04
1.373657e-04
1.411134e-04
1.469396e-04
0.000000e+00
9.532073e-06
1.502471e-05
2.020095e-05
2.884552e-05
3.551761e-05
4.124469e-05
4.859007e-05
5.455919e-05
6.191435e-05
6.834103e-05
7.400539e-05
7.873402e-05
8.091056e-05
8.015230e-05
8.253404e-05
8.677112e-05
0.000000e+00
5.184937e-06
6.844964e-06
9.617631e-06
1.305694e-05
1.352019e-05
1.583958e-05
1.725826e-05
2.081341e-05
2.427073e-05
2.804813e-05
2.908316e-05
2.851204e-05
2.707325e-05
2.684520e-05
2.990188e-05
3.557387e-05
0.000000e+00
-1.748207e-07
-4.351613e-07
-8.555914e-07
-1.720112e-06
-2.876988e-06
-4.977011e-06
-7.220267e-06
-7.817976e-06
-7.821783e-06
-8.760484e-06
-1.192320e-05
-1.467111e-05
-1.604981e-05
-1.572867e-05
-1.356484e-05
-9.573908e-06
0.000000e+00
-5.448811e-06
-7.434127e-06
-1.074474e-05
-1.465297e-05
-1.606781e-05
-2.047092e-05
-2.428820e-05
-3.016802e-05
-3.326686e-05
-3.737447e-05
-4.216583e-05
-4.725626e-05
-4.898247e-05
-4.953323e-05
-5.001968e-05
-4.830144e-05
0.000000e+00
-9.532823e-06
-1.509296e-05
-2.037059e-05
-2.895259e-05
-3.531158e-05
-4.072050e-05
-4.870486e-05
-5.587315e-05
-6.350069e-05
-6.878105e-05
-7.382295e-05
-7.799197e-05
-8.147935e-05
-8.339751e-05
-8.531817e-05
-8.606808e-05
0.000000e+00
-1.138891e-05
-1.965494e-05
-2.830527e-05
-4.077802e-05
-5.165163e-05
-6.160478e-05
-7.279479e-05
-8.317984e-05
-9.456311e-05
-1.052321e-04
-1.135343e-04
-1.183383e-04
-1.233358e-04
-1.269135e-04
-1.282044e-04
-1.283009e-04
0.000000e+00
-1.542775e-05
-2.503476e-05
-3.734387e-05
-5.337799e-05
-6.702440e-05
-8.286408e-05
-9.592825e-05
-1.099527e-04
-1.234016e-04
-1.410638e-04
-1.568238e-04
-1.664962e-04
-1.716943e-04
-1.739096e-04
-1.741209e-04
-1.739375e-04
0.000000e+00
1.259925e-05
2.000193e-05
3.244148e-05
4.875365e-05
6.688023e-05
9.132243e-05
1.201963e-04
1.535042e-04
1.903019e-04
2.304830e-04
2.745048e-04
3.244727e-04
3.785740e-04
4.400631e-04
5.108721e-04
5.842223e-04
0.000000e+00
7.679055e-06
1.611129e-05
2.634065e-05
4.228867e-05
6.092327e-05
8.486520e-05
1.143164e-04
1.472769e-04
1.841711e-04
2.241551e-04
2.682888e-04
3.178926e-04
3.736530e-04
4.348244e-04
5.034874e-04
5.738596e-04
0.000000e+00
4.325222e-06
1.229690e-05
2.172617e-05
3.647743e-05
5.569773e-05
7.944893e-05
1.097938e-04
1.431279e-04
1.796955e-04
2.195526e-04
2.637549e-04
3.141016e-04
3.712776e-04
4.306888e-04
4.960082e-04
5.641662e-04
0.000000e+00
3.199384e-06
1.059618e-05
2.008925e-05
3.452353e-05
5.205163e-05
7.641865e-05
1.087794e-04
1.436843e-04
1.782969e-04
2.174615e-04
2.621387e-04
3.133549e-04
3.698726e-04
4.279572e-04
4.881705e-04
5.500036e-04
0.000000e+00
2.811504e-06
1.027116e-05
2.004839e-05
3.425450e-05
5.076916e-05
7.528430e-05
1.097801e-04
1.449739e-04
1.781756e-04
2.156533e-04
2.620990e-04
3.136329e-04
3.699868e-04
4.268152e-04
4.817805e-04
5.338834e-04
0.000000e+00
3.341529e-06
1.078593e-05
2.046206e-05
3.486193e-05
5.186038e-05
7.714586e-05
1.106987e-04
1.455843e-04
1.779639e-04
2.160176e-04
2.636529e-04
3.160048e-04
3.702705e-04
4.267152e-04
4.794623e-04
5.228796e-04
0.000000e+00
4.477763e-06
1.252455e-05
2.206765e-05
3.675459e-05
5.576941e-05
8.040150e-05
1.117774e-04
1.448639e-04
1.790138e-04
2.183422e-04
2.669107e-04
3.194996e-04
3.723262e-04
4.257904e-04
4.767291e-04
5.194313e-04
0.000000e+00
7.802787e-06
1.634687e-05
2.663950e-05
4.254127e-05
6.132265e-05
8.582249e-05
1.159692e-04
1.482669e-04
1.833241e-04
2.230261e-04
2.706423e-04
3.225320e-04
3.745138e-04
4.259138e-04
4.747156e-04
5.199051e-04
0.000000e+00
1.271228e-05
2.023769e-05
3.273028e-05
4.908600e-05
6.740975e-05
9.235487e-05
1.216385e-04
1.544176e-04
1.895704e-04
2.302493e-04
2.749752e-04
3.247662e-04
3.757051e-04
4.262147e-04
4.742318e-04
5.201727e-04


5.650488e+00
6.124481e+00
6.855394e+00
5.906790e+00
5.596478e+00
6.307228e+00
6.245456e+00
6.323128e+00
5.919481e+00
5.892523e+00
6.277819e+00
7.146477e+00
8.843343e+00
9.824441e+00
9.145126e+00
7.996108e+00
8.071446e+00
8.451394e+00
8.654447e+00
8.351502e+00
8.164860e+00
8.403880e+00
8.579216e+00
8.387920e+00
8.372443e+00
8.264556e+00
8.411347e+00
8.839191e+00
9.502674e+00
9.837061e+00
8.389831e+00
6.469227e+00
9.838540e+00
9.820465e+00
9.995391e+00
9.833609e+00
9.832071e+00
9.947898e+00
9.830244e+00
9.936224e+00
9.843809e+00
9.876031e+00
9.893509e+00
9.871842e+00
9.890103e+00
9.391483e+00
7.994258e+00
6.186002e+00
9.997730e+00
9.997688e+00
9.997668e+00
9.997444e+00
9.997132e+00
9.996500e+00
9.995774e+00
9.995757e+00
9.996164e+00
9.996090e+00
9.994348e+00
9.478106e+00
8.829051e+00
8.368546e+00
7.984826e+00
7.910052e+00
9.997718e+00
9.997661e+00
9.997618e+00
9.997317e+00
9.996795e+00
9.995644e+00
9.930892e+00
9.961370e+00
9.992968e+00
9.913803e+00
9.353306e+00
8.589951e+00
7.709644e+00
7.746065e+00
8.644656e+00
9.159911e+00
9.838680e+00
9.820332e+00
9.995150e+00
9.832840e+00
9.830145e+00
9.690036e+00
9.315361e+00
9.510714e+00
9.382227e+00
8.860015e+00
8.306396e+00
7.897500e+00
8.205037e+00
8.754921e+00
9.443130e+00
9.991978e+00
8.072464e+00
8.451676e+00
8.653441e+00
8.349061e+00
8.077483e+00
7.951385e+00
7.780672e+00
7.733229e+00
7.822361e+00
7.325261e+00
7.473721e+00
8.489852e+00
9.292071e+00
9.847576e+00
9.995327e+00
9.997191e+00
5.653217e+00
6.125055e+00
6.853876e+00
5.896546e+00
5.554240e+00
5.943343e+00
5.791885e+00
6.270096e+00
6.154304e+00
6.469791e+00
7.850658e+00
9.107782e+00
9.982557e+00
9.996364e+00
9.997486e+00
9.997874e+00


-8.167439e-01
-1.702369e-01
-3.962711e-01
-2.570629e-01
-9.638869e-02
-3.045738e-01
-1.244243e-01
-2.096937e-01
-1.613178e-01
-1.587732e-01
-2.143686e-01
-1.501477e-01
-4.621559e-01
-6.847400e-01
3.160116e-01
-8.469605e-01
6.111364e-01
4.803650e-01
2.958499e-01
2.255730e-01
2.899122e-01
1.681210e-01
1.757310e-01
1.724513e-01
1.106240e-01
1.477176e-01
1.286408e-01
2.415139e-01
3.024557e-01
5.098419e-01
6.954442e-01
-9.349373e-01
7.231759e-01
4.714023e-01
5.717514e-02
-2.081848e-02
-3.748247e-02
-1.861400e-01
-8.035170e-02
-1.370417e-01
-7.643415e-02
-1.864100e-02
3.236996e-02
1.861054e-01
2.785451e-01
1.481719e-01
-2.518320e-02
-1.682244e-01
7.283852e-01
5.563192e-01
1.932254e-01
6.265817e-02
-2.307306e-02
-1.048626e-01
-1.696421e-02
-6.102411e-02
1.364001e-02
1.755186e-02
5.932495e-02
1.179709e-01
5.867656e-02
-2.624684e-01
-3.835343e-01
-7.793999e-02
7.312980e-01
5.602365e-01
2.011616e-01
7.077737e-02
-1.947552e-02
-1.108711e-01
-3.728665e-02
-1.016611e-01
-5.158351e-02
-4.225540e-02
2.162720e-02
1.489780e-02
-3.778591e-02
-1.302231e-01
-1.021762e-01
3.108867e-01
7.299994e-01
4.815365e-01
7.520241e-02
-2.883673e-03
-2.599143e-02
-1.610529e-01
-7.606604e-02
-1.892035e-01
-1.820530e-01
-1.092398e-01
-7.783337e-02
-9.768570e-02
-1.114657e-01
4.508710e-02
3.342425e-01
7.246954e-01
6.152504e-01
4.860719e-01
3.033899e-01
2.306897e-01
2.861485e-01
1.616952e-01
1.527191e-01
1.014203e-01
-5.641069e-02
-4.092076e-02
-9.671094e-02
-5.754530e-02
5.711437e-02
3.648065e-01
7.128354e-01
9.478925e-01
-8.220851e-01
-1.761068e-01
-4.037546e-01
-2.600684e-01
-9.624257e-02
-2.985374e-01
-1.201958e-01
-1.563690e-01
-5.585563e-02
-2.204001e-02
-9.240887e-02
9.919881e-02
3.877298e-01
7.720224e-01
9.528849e-01
9.987352e-01
1 2 19 18
2 3 20 19
3 4 21 20
4 5 22 21
5 6 23 22
6 7 24 23
7 8 25 24
8 9 26 25
9 10 27 26
10 11 28 27
11 12 29 28
12 13 30 29
13 14 31 30
14 15 32 31
15 16 33 32
16 17 34 33
18 19 36 35
19 20 37 36
20 21 38 37
21 22 39 38
22 23 40 39
23 24 41 40
24 25 42 41
25 26 43 42
26 27 44 43
27 28 45 44
28 29 46 45
29 30 47 46
30 31 48 47
31 32 49 48
32 33 50 49
33 34 51 50
35 36 53 52
36 37 54 53
37 38 55 54
38 39 56 55
39 40 57 56
40 41 58 57
41 42 59 58
42 43 60 59
43 44 61 60
44 45 62 61
45 46 63 62
46 47 64 63
47 48 65 64
48 49 66 65
49 50 67 66
50 51 68 67
52 53 70 69
53 54 71 70
54 55 72 71
55 56 73 72
56 57 74 73
57 58 75 74
58 59 76 75
59 60 77 76
60 61 78 77
61 62 79 78
62 63 80 79
63 64 81 80
64 65 82 81
65 66 83 82
66 67 84 83
67 68 85 84
69 70 87 86
70 71 88 87
71 72 89 88
72 73 90 89
73 74 91 90
74 75 92 91
75 76 93 92
76 77 94 93
77 78 95 94
78 79 96 95
79 80 97 96
80 81 98 97
81 82 99 98
82 83 100 99
83 84 101 100
84 85 102 101
86 87 104 103
87 88 105 104
88 89 106 105
89 90 107 106
90 91 108 107
91 92 109 108
92 93 110 109
93 94 111 110
94 95 112 111
95 96 113 112
96 97 114 113
97 98 115 114
98 99 116 115
99 100 117 116
100 101 118 117
101 102 119 118
103 104 121 120
104 105 122 121
105 106 123 122
106 107 124 123
107 108 125 124
108 109 126 125
109 110 127 126
110 111 128 127
111 112 129 128
112 113 130 129
113 114 131 130
114 115 132 131
115 116 133 132
116 117 134 133
117 118 135 134
118 119 136 135
120 121 138 137
121 122 139 138
122 123 140 139
123 124 141 140
124 125 142 141
125 126 143 142
126 127 144 143
127 128 145 144
128 129 146 145
129 130 147 146
130 131 148 147
131 132 149 148
132 133 150 149
133 134 151 150
134 135 152 151
135 136 153 152
