TITLE = "Solution"
VARIABLES = x, y, u, v, psiu, psiv, t, stress
ZONE T="structure" N=153 E=128 F=FEBLOCK ET=QUADRILATERAL VARLOCATION=([7,8]=cellcentered)
0.000000e+00
1.250000e+01
2.500000e+01
3.750000e+01
5.000000e+01
6.250000e+01
7.500000e+01
8.750000e+01
1.000000e+02
1.125000e+02
1.250000e+02
1.375000e+02
1.500000e+02
1.625000e+02
1.750000e+02
1.875000e+02
2.000000e+02
0.000000e+00
1.250000e+01
2.500000e+01
3.750000e+01
5.000000e+01
6.250000e+01
7.500000e+01
8.750000e+01
1.000000e+02
1.125000e+02
1.250000e+02
1.375000e+02
1.500000e+02
1.625000e+02
1.750000e+02
1.875000e+02
2.000000e+02
0.000000e+00
1.250000e+01
2.500000e+01
3.750000e+01
5.000000e+01
6.250000e+01
7.500000e+01
8.750000e+01
1.000000e+02
1.125000e+02
1.250000e+02
1.375000e+02
1.500000e+02
1.625000e+02
1.750000e+02
1.875000e+02
2.000000e+02
0.000000e+00
1.250000e+01
2.500000e+01
3.750000e+01
5.000000e+01
6.250000e+01
7.500000e+01
8.750000e+01
1.000000e+02
1.125000e+02
1.250000e+02
1.375000e+02
1.500000e+02
1.625000e+02
1.750000e+02
1.875000e+02
2.000000e+02
0.000000e+00
1.250000e+01
2.500000e+01
3.750000e+01
5.000000e+01
6.250000e+01
7.500000e+01
8.750000e+01
1.000000e+02
1.125000e+02
1.250000e+02
1.375000e+02
1.500000e+02
1.625000e+02
1.750000e+02
1.875000e+02
2.000000e+02
0.000000e+00
1.250000e+01
2.500000e+01
3.750000e+01
5.000000e+01
6.250000e+01
7.500000e+01
8.750000e+01
1.000000e+02
1.125000e+02
1.250000e+02
1.375000e+02
1.500000e+02
1.625000e+02
1.750000e+02
1.875000e+02
2.000000e+02
0.000000e+00
1.250000e+01
2.500000e+01
3.750000e+01
5.000000e+01
6.250000e+01
7.500000e+01
8.750000e+01
1.000000e+02
1.125000e+02
1.250000e+02
1.375000e+02
1.500000e+02
1.625000e+02
1.750000e+02
1.875000e+02
2.000000e+02
0.000000e+00
1.250000e+01
2.500000e+01
3.750000e+01
5.000000e+01
6.250000e+01
7.500000e+01
8.750000e+01
1.000000e+02
1.125000e+02
1.250000e+02
1.375000e+02
1.500000e+02
1.625000e+02
1.750000e+02
1.875000e+02
2.000000e+02
0.000000e+00
1.250000e+01
2.500000e+01
3.750000e+01
5.000000e+01
6.250000e+01
7.500000e+01
8.750000e+01
1.000000e+02
1.125000e+02
1.250000e+02
1.375000e+02
1.500000e+02
1.625000e+02
1.750000e+02
1.875000e+02
2.000000e+02
0.000000e+00
0.000000e+00
0.000000e+00
0.000000e+00
0.000000e+00
0.000000e+00
0.000000e+00
0.000000e+00
0.000000e+00
0.000000e+00
0.000000e+00
0.000000e+00
0.000000e+00
0.000000e+00
0.000000e+00
0.000000e+00
0.000000e+00
1.250000e+01
1.250000e+01
1.250000e+01
1.250000e+01
1.250000e+01
1.250000e+01
1.250000e+01
1.250000e+01
1.250000e+01
1.250000e+01
1.250000e+01
1.250000e+01
1.250000e+01
1.250000e+01
1.250000e+01
1.250000e+01
1.250000e+01
2.500000e+01
2.500000e+01
2.500000e+01
2.500000e+01
2.500000e+01
2.500000e+01
2.500000e+01
2.500000e+01
2.500000e+01
2.500000e+01
2.500000e+01
2.500000e+01
2.500000e+01
2.500000e+01
2.500000e+01
2.500000e+01
2.500000e+01
3.750000e+01
3.750000e+01
3.750000e+01
3.750000e+01
3.750000e+01
3.750000e+01
3.750000e+01
3.750000e+01
3.750000e+01
3.750000e+01
3.750000e+01
3.750000e+01
3.750000e+01
3.750000e+01
3.750000e+01
3.750000e+01
3.750000e+01
5.000000e+01
5.000000e+01
5.000000e+01
5.000000e+01
5.000000e+01
5.000000e+01
5.000000e+01
5.000000e+01
5.000000e+01
5.000000e+01
5.000000e+01
5.000000e+01
5.000000e+01
5.000000e+01
5.000000e+01
5.000000e+01
5.000000e+01
6.250000e+01
6.250000e+01
6.250000e+01
6.250000e+01
6.250000e+01
6.250000e+01
6.250000e+01
6.250000e+01
6.250000e+01
6.250000e+01
6.250000e+01
6.250000e+01
6.250000e+01
6.250000e+01
6.250000e+01
6.250000e+01
6.250000e+01
7.500000e+01
7.500000e+01
7.500000e+01
7.500000e+01
7.500000e+01
7.500000e+01
7.500000e+01
7.500000e+01
7.500000e+01
7.500000e+01
7.500000e+01
7.500000e+01
7.500000e+01
7.500000e+01
7.500000e+01
7.500000e+01
7.500000e+01
8.750000e+01
8.750000e+01
8.750000e+01
8.750000e+01
8.750000e+01
8.750000e+01
8.750000e+01
8.750000e+01
8.750000e+01
8.750000e+01
8.750000e+01
8.750000e+01
8.750000e+01
8.750000e+01
8.750000e+01
8.750000e+01
8.750000e+01
1.000000e+02
1.000000e+02
1.000000e+02
1.000000e+02
1.000000e+02
1.000000e+02
1.000000e+02
1.000000e+02
1.000000e+02
1.000000e+02
1.000000e+02
1.000000e+02
1.000000e+02
1.000000e+02
1.000000e+02
1.000000e+02
1.000000e+02
0.000000e+00
-7.976049e-01
-1.434416e+00
-2.078878e+00
-2.686594e+00
-3.312188e+00
-3.920862e+00
-4.491448e+00
-5.018390e+00
-5.496371e+00
-5.925422e+00
-6.312866e+00
-6.671940e+00
-7.025258e+00
-7.411726e+00
-7.877333e+00
-8.222611e+00
0.000000e+00
-4.653242e-01
-9.586518e-01
-1.422861e+00
-1.881750e+00
-2.346913e+00
-2.807329e+00
-3.237039e+00
-3.632952e+00
-3.990951e+00
-4.309454e+00
-4.589917e+00
-4.833314e+00
-5.035567e+00
-5.177357e+00
-5.208512e+00
-5.316406e+00
0.000000e+00
-2.867499e-01
-5.839835e-01
-8.788467e-01
-1.184058e+00
-1.497301e+00
-1.804346e+00
-2.089618e+00
-2.350887e+00
-2.583887e+00
-2.785180e+00
-2.950986e+00
-3.074584e+00
-3.144287e+00
-3.147211e+00
-3.120902e+00
-3.231503e+00
0.000000e+00
-1.328861e-01
-2.688436e-01
-4.148654e-01
-5.659216e-01
-7.246184e-01
-8.747057e-01
-1.015094e+00
-1.141713e+00
-1.250679e+00
-1.337905e+00
-1.398474e+00
-1.426839e+00
-1.420278e+00
-1.393055e+00
-1.400033e+00
-1.483300e+00
0.000000e+00
4.394675e-03
7.836415e-03
1.198593e-02
1.437647e-02
1.777407e-02
1.891027e-02
2.132477e-02
2.655443e-02
3.704756e-02
5.568895e-02
8.532560e-02
1.267661e-01
1.738924e-01
2.067563e-01
1.985420e-01
1.428134e-01
0.000000e+00
1.369652e-01
2.877381e-01
4.450076e-01
6.051753e-01
7.598764e-01
9.119546e-01
1.055311e+00
1.189446e+00
1.314284e+00
1.430432e+00
1.538086e+00
1.634855e+00
1.712939e+00
1.759167e+00
1.763174e+00
1.734704e+00
0.000000e+00
2.841542e-01
5.923355e-01
9.161504e-01
1.230238e+00
1.539461e+00
1.839690e+00
2.124240e+00
2.386139e+00
2.622072e+00
2.830170e+00
3.008794e+00
3.154941e+00
3.263583e+00
3.329022e+00
3.350363e+00
3.343732e+00
0.000000e+00
4.661293e-01
9.732930e-01
1.452428e+00
1.924626e+00
2.391969e+00
2.842620e+00
3.268127e+00
3.658347e+00
4.005365e+00
4.304241e+00
4.551564e+00
4.744113e+00
4.880026e+00
4.961322e+00
4.996033e+00
5.002420e+00
0.000000e+00
8.018715e-01
1.478042e+00
2.092554e+00
2.729856e+00
3.353734e+00
3.959247e+00
4.527483e+00
5.048592e+00
5.510659e+00
5.905147e+00
6.224947e+00
6.463021e+00
6.615826e+00
6.689833e+00
6.708061e+00
6.707680e+00
0.000000e+00
-4.888232e-01
-9.664298e-01
-1.601787e+00
-2.397558e+00
-3.357102e+00
-4.467319e+00
-5.718810e+00
-7.104559e+00
-8.611850e+00
-1.022816e+01
-1.194328e+01
-1.375285e+01
-1.566740e+01
-1.774198e+01
-2.014985e+01
-2.370419e+01
0.000000e+00
-3.064173e-01
-8.064000e-01
-1.438405e+00
-2.236670e+00
-3.194679e+00
-4.312300e+00
-5.574813e+00
-6.973301e+00
-8.494337e+00
-1.012410e+01
-1.185142e+01
-1.367136e+01
-1.559456e+01
-1.766982e+01
-2.006315e+01
-2.304152e+01
0.000000e+00
-2.365983e-01
-6.985693e-01
-1.328651e+00
-2.121320e+00
-3.081855e+00
-4.202956e+00
-5.473961e+00
-6.882737e+00
-8.415608e+00
-1.005865e+01
-1.180081e+01
-1.363766e+01
-1.557823e+01
-1.765648e+01
-1.991252e+01
-2.208448e+01
0.000000e+00
-2.122174e-01
-6.468322e-01
-1.266713e+00
-2.055485e+00
-3.017138e+00
-4.140639e+00
-5.417186e+00
-6.833866e+00
-8.376853e+00
-1.003234e+01
-1.178880e+01
-1.363920e+01
-1.558240e+01
-1.761410e+01
-1.966700e+01
-2.153432e+01
0.000000e+00
-2.056020e-01
-6.311912e-01
-1.247315e+00
-2.037991e+00
-2.998370e+00
-4.123149e+00
-5.402702e+00
-6.824580e+00
-8.374855e+00
-1.003924e+01
-1.180414e+01
-1.365647e+01
-1.558017e+01
-1.754097e+01
-1.946037e+01
-2.120361e+01
0.000000e+00
-2.108700e-01
-6.462665e-01
-1.270022e+00
-2.063965e+00
-3.022994e+00
-4.147813e+00
-5.427880e+00
-6.851588e+00
-8.404809e+00
-1.007228e+01
-1.183749e+01
-1.368071e+01
-1.557438e+01
-1.747551e+01
-1.931872e+01
-2.101786e+01
0.000000e+00
-2.348675e-01
-7.012780e-01
-1.339038e+00
-2.132575e+00
-3.091134e+00
-4.214196e+00
-5.491701e+00
-6.912630e+00
-8.463028e+00
-1.012675e+01
-1.188487e+01
-1.371296e+01
-1.557780e+01
-1.743597e+01
-1.923774e+01
-2.093558e+01
0.000000e+00
-3.029615e-01
-8.165149e-01
-1.455897e+00
-2.247662e+00
-3.205497e+00
-4.323522e+00
-5.594797e+00
-7.007362e+00
-8.548245e+00
-1.020109e+01
-1.194584e+01
-1.375607e+01
-1.559677e+01
-1.742599e+01
-1.920416e+01
-2.091629e+01
0.000000e+00
-4.898468e-01
-9.815707e-01
-1.619939e+00
-2.413047e+00
-3.366638e+00
-4.477685e+00
-5.738186e+00
-7.137217e+00
-8.662019e+00
-1.029695e+01
-1.202177e+01
-1.380986e+01
-1.562709e+01
-1.743436e+01
-1.919801e+01
-2.091662e+01


0.000000e+00
8.177372e-06
1.539708e-05
2.143470e-05
2.687650e-05
3.214515e-05
3.642343e-05
3.967274e-05
4.203308e-05
4.363528e-05
4.468707e-05
4.537784e-05
4.585066e-05
4.622187e-05
4.659220e-05
4.710860e-05
4.778079e-05
0.000000e+00
6.089253e-06
1.243115e-05
1.659236e-05
2.053598e-05
2.446682e-05
2.764273e-05
2.994009e-05
3.156801e-05
3.262053e-05
3.327282e-05
3.366718e-05
3.388197e-05
3.396408e-05
3.405421e-05
3.447076e-05
3.515998e-05
0.000000e+00
4.327005e-06
8.321181e-06
1.106713e-05
1.371015e-05
1.622068e-05
1.822428e-05
1.968671e-05
2.070323e-05
2.133712e-05
2.170553e-05
2.189493e-05
2.196432e-05
2.197755e-05
2.205550e-05
2.238881e-05
2.293890e-05
0.000000e+00
1.907185e-06
3.536444e-06
5.079366e-06
6.389363e-06
7.507192e-06
8.401818e-06
9.099530e-06
9.579091e-06
9.880068e-06
1.004670e-05
1.012104e-05
1.014909e-05
1.018359e-05
1.027027e-05
1.046445e-05
1.078077e-05
0.000000e+00
-2.673488e-07
-4.992783e-07
-7.157280e-07
-9.270832e-07
-1.125617e-06
-1.267708e-06
-1.363758e-06
-1.428504e-06
-1.476614e-06
-1.514225e-06
-1.539779e-06
-1.543197e-06
-1.513811e-06
-1.458626e-06
-1.376162e-06
-1.229112e-06
0.000000e+00
-2.400760e-06
-4.601253e-06
-6.700502e-06
-8.469503e-06
-9.892197e-06
-1.101988e-05
-1.185721e-05
-1.242973e-05
-1.279955e-05
-1.302267e-05
-1.314261e-05
-1.319345e-05
-1.320269e-05
-1.319853e-05
-1.318386e-05
-1.312690e-05
0.000000e+00
-4.701154e-06
-9.519510e-06
-1.323855e-05
-1.639849e-05
-1.900163e-05
-2.103272e-05
-2.252677e-05
-2.354913e-05
-2.418614e-05
-2.456308e-05
-2.477426e-05
-2.488495e-05
-2.494215e-05
-2.497626e-05
-2.499155e-05
-2.497656e-05
0.000000e+00
-6.326830e-06
-1.369007e-05
-1.902934e-05
-2.365810e-05
-2.757672e-05
-3.059515e-05
-3.283024e-05
-3.439406e-05
-3.538992e-05
-3.600133e-05
-3.637269e-05
-3.659315e-05
-3.672150e-05
-3.679493e-05
-3.683009e-05
-3.683529e-05
0.000000e+00
-8.409675e-06
-1.672018e-05
-2.355595e-05
-2.984797e-05
-3.514905e-05
-3.932939e-05
-4.249786e-05
-4.478141e-05
-4.631572e-05
-4.730923e-05
-4.793898e-05
-4.832763e-05
-4.855665e-05
-4.867782e-05
-4.872444e-05
-4.873243e-05
0.000000e+00
6.954790e-06
1.139858e-05
1.667931e-05
2.379674e-05
3.220269e-05
4.137570e-05
5.137052e-05
6.203002e-05
7.315674e-05
8.464269e-05
9.638055e-05
1.083107e-04
1.204973e-04
1.333150e-04
1.470371e-04
1.610023e-04
0.000000e+00
3.653478e-06
8.628476e-06
1.424070e-05
2.144016e-05
3.005466e-05
3.973285e-05
5.017887e-05
6.121297e-05
7.263411e-05
8.431897e-05
9.618357e-05
1.081909e-04
1.203748e-04
1.328979e-04
1.461686e-04
1.598660e-04
0.000000e+00
1.723238e-06
6.485982e-06
1.251806e-05
1.979059e-05
2.857204e-05
3.856463e-05
4.933865e-05
6.063681e-05
7.227325e-05
8.410811e-05
9.607179e-05
1.081350e-04
1.202775e-04
1.324878e-04
1.452574e-04
1.585433e-04
0.000000e+00
1.097467e-06
5.425120e-06
1.157787e-05
1.905575e-05
2.796594e-05
3.805356e-05
4.894835e-05
6.036592e-05
7.210089e-05
8.401286e-05
9.602700e-05
1.081015e-04
1.201868e-04
1.322507e-04
1.446544e-04
1.574463e-04
0.000000e+00
9.595566e-07
5.066152e-06
1.123040e-05
1.890014e-05
2.788029e-05
3.797072e-05
4.887522e-05
6.031385e-05
7.206946e-05
8.399989e-05
9.602128e-05
1.080814e-04
1.201335e-04
1.321608e-04
1.443592e-04
1.567200e-04
0.000000e+00
1.053594e-06
5.320398e-06
1.158560e-05
1.924562e-05
2.820203e-05
3.823967e-05
4.908059e-05
6.046375e-05
7.217632e-05
8.407171e-05
9.606366e-05
1.080966e-04
1.201297e-04
1.321538e-04
1.442374e-04
1.563263e-04
0.000000e+00
1.698970e-06
6.453067e-06
1.267657e-05
2.015045e-05
2.897349e-05
3.887372e-05
4.955992e-05
6.080618e-05
7.240816e-05
8.421940e-05
9.615189e-05
1.081453e-04
1.201572e-04
1.321686e-04
1.441847e-04
1.561492e-04
0.000000e+00
3.811490e-06
9.116429e-06
1.486148e-05
2.202226e-05
3.052323e-05
4.006810e-05
5.043419e-05
6.140513e-05
7.278818e-05
8.444996e-05
9.628628e-05
1.082194e-04
1.201968e-04
1.321857e-04
1.441630e-04
1.560914e-04
0.000000e+00
7.494283e-06
1.248399e-05
1.782604e-05
2.467218e-05
3.267218e-05
4.169863e-05
5.161810e-05
6.220648e-05
7.329237e-05
8.475589e-05
9.646557e-05
1.083188e-04
1.202478e-04
1.322074e-04
1.441615e-04
1.560827e-04


2.505481e+00
3.231596e+00
4.158057e+00
3.426463e+00
2.892260e+00
2.905914e+00
2.998747e+00
3.084938e+00
3.137371e+00
3.166828e+00
3.195994e+00
3.222942e+00
3.232977e+00
3.205134e+00
3.143986e+00
3.097430e+00
2.543122e+00
2.982218e+00
3.141976e+00
3.073492e+00
2.790731e+00
2.960850e+00
3.030498e+00
3.105286e+00
3.151812e+00
3.180801e+00
3.207718e+00
3.230304e+00
3.236385e+00
3.206284e+00
3.146176e+00
3.101151e+00
2.923325e+00
2.820102e+00
2.930281e+00
2.856146e+00
3.011374e+00
3.061488e+00
3.105454e+00
3.152066e+00
3.183882e+00
3.206523e+00
3.226060e+00
3.240065e+00
3.241630e+00
3.216467e+00
3.168941e+00
3.134671e+00
3.072237e+00
3.077463e+00
3.073625e+00
3.112288e+00
3.129953e+00
3.142710e+00
3.166934e+00
3.190575e+00
3.209374e+00
3.224285e+00
3.235921e+00
3.243366e+00
3.244277e+00
3.231227e+00
3.206029e+00
3.187988e+00
3.062899e+00
3.057346e+00
3.086869e+00
3.086804e+00
3.120415e+00
3.144945e+00
3.167839e+00
3.189148e+00
3.206946e+00
3.221405e+00
3.232817e+00
3.240921e+00
3.245236e+00
3.243375e+00
3.235952e+00
3.230350e+00
2.837758e+00
2.895606e+00
2.898602e+00
2.936834e+00
2.944748e+00
3.051022e+00
3.106599e+00
3.147590e+00
3.177383e+00
3.200393e+00
3.220333e+00
3.236055e+00
3.246482e+00
3.252009e+00
3.253859e+00
3.254277e+00
2.514252e+00
2.530059e+00
2.663669e+00
2.694109e+00
2.802818e+00
2.900001e+00
3.021077e+00
3.095887e+00
3.142808e+00
3.176038e+00
3.205824e+00
3.230730e+00
3.247605e+00
3.257554e+00
3.262908e+00
3.265194e+00
2.203720e+00
2.284993e+00
2.392750e+00
2.654849e+00
2.721631e+00
2.848891e+00
2.973034e+00
3.069995e+00
3.127029e+00
3.164752e+00
3.198990e+00
3.228534e+00
3.248682e+00
3.260403e+00
3.266543e+00
3.269164e+00


-4.093398e-01
-1.251865e-01
-7.400103e-02
3.609644e-04
-4.318767e-02
-2.889085e-03
1.205365e-01
2.506122e-01
3.845508e-01
5.079480e-01
6.083781e-01
6.836885e-01
7.335876e-01
7.573547e-01
7.790629e-01
4.741080e-02
4.806346e-01
4.060624e-01
4.553458e-01
4.454470e-01
4.204708e-01
4.315982e-01
4.991094e-01
5.700209e-01
6.460566e-01
7.217839e-01
7.930285e-01
8.597862e-01
9.203672e-01
9.615396e-01
8.684729e-01
-4.009260e-01
8.207179e-01
7.723751e-01
7.478215e-01
7.237892e-01
6.987176e-01
7.059651e-01
7.293604e-01
7.569679e-01
7.898837e-01
8.257297e-01
8.609970e-01
8.892198e-01
8.952700e-01
8.438796e-01
6.613299e-01
3.348059e-01
9.559164e-01
9.083540e-01
8.732198e-01
8.545192e-01
8.406499e-01
8.361720e-01
8.323148e-01
8.322901e-01
8.349665e-01
8.384011e-01
8.383964e-01
8.278990e-01
7.975906e-01
7.452543e-01
7.037108e-01
6.950695e-01
9.522979e-01
9.024877e-01
8.705173e-01
8.554061e-01
8.450440e-01
8.333905e-01
8.264172e-01
8.197530e-01
8.128550e-01
8.038895e-01
7.908891e-01
7.736159e-01
7.576086e-01
7.604460e-01
8.033261e-01
8.766327e-01
8.188572e-01
7.456694e-01
7.105589e-01
7.115944e-01
7.112269e-01
7.090249e-01
7.185657e-01
7.328175e-01
7.462238e-01
7.559347e-01
7.618624e-01
7.689015e-01
7.878610e-01
8.303382e-01
8.950001e-01
9.619067e-01
4.852950e-01
3.696721e-01
3.909317e-01
4.139925e-01
4.229292e-01
4.518048e-01
4.985009e-01
5.616478e-01
6.294025e-01
6.930920e-01
7.493568e-01
8.006206e-01
8.522301e-01
9.078118e-01
9.602767e-01
9.933671e-01
-4.185211e-01
-2.289184e-01
-4.915254e-02
-7.840937e-02
-4.500059e-02
2.013752e-02
1.305896e-01
2.664316e-01
4.182825e-01
5.680323e-01
7.047192e-01
8.219689e-01
9.116890e-01
9.679466e-01
9.937152e-01
9.998678e-01
1 2 19 18
2 3 20 19
3 4 21 20
4 5 22 21
5 6 23 22
6 7 24 23
7 8 25 24
8 9 26 25
9 10 27 26
10 11 28 27
11 12 29 28
12 13 30 29
13 14 31 30
14 15 32 31
15 16 33 32
16 17 34 33
18 19 36 35
19 20 37 36
20 21 38 37
21 22 39 38
22 23 40 39
23 24 41 40
24 25 42 41
25 26 43 42
26 27 44 43
27 28 45 44
28 29 46 45
29 30 47 46
30 31 48 47
31 32 49 48
32 33 50 49
33 34 51 50
35 36 53 52
36 37 54 53
37 38 55 54
38 39 56 55
39 40 57 56
40 41 58 57
41 42 59 58
42 43 60 59
43 44 61 60
44 45 62 61
45 46 63 62
46 47 64 63
47 48 65 64
48 49 66 65
49 50 67 66
50 51 68 67
52 53 70 69
53 54 71 70
54 55 72 71
55 56 73 72
56 57 74 73
57 58 75 74
58 59 76 75
59 60 77 76
60 61 78 77
61 62 79 78
62 63 80 79
63 64 81 80
64 65 82 81
65 66 83 82
66 67 84 83
67 68 85 84
69 70 87 86
70 71 88 87
71 72 89 88
72 73 90 89
73 74 91 90
74 75 92 91
75 76 93 92
76 77 94 93
77 78 95 94
78 79 96 95
79 80 97 96
80 81 98 97
81 82 99 98
82 83 100 99
83 84 101 100
84 85 102 101
86 87 104 103
87 88 105 104
88 89 106 105
89 90 107 106
90 91 108 107
91 92 109 108
92 93 110 109
93 94 111 110
94 95 112 111
95 96 113 112
96 97 114 113
97 98 115 114
98 99 116 115
99 100 117 116
100 101 118 117
101 102 119 118
103 104 121 120
104 105 122 121
105 106 123 122
106 107 124 123
107 108 125 124
108 109 126 125
109 110 127 126
110 111 128 127
111 112 129 128
112 113 130 129
113 114 131 130
114 115 132 131
115 116 133 132
116 117 134 133
117 118 135 134
118 119 136 135
120 121 138 137
121 122 139 138
122 123 140 139
123 124 141 140
124 125 142 141
125 126 143 142
126 127 144 143
127 128 145 144
128 129 146 145
129 130 147 146
130 131 148 147
131 132 149 148
132 133 150 149
133 134 151 150
134 135 152 151
135 136 153 152
