TITLE = "Solution"
VARIABLES = x, y, u, v, psiu, psiv, t, stress
ZONE T="structure" N=153 E=128 F=FEBLOCK ET=QUADRILATERAL VARLOCATION=([7,8]=cellcentered)
0.000000e+00
1.250000e+01
2.500000e+01
3.750000e+01
5.000000e+01
6.250000e+01
7.500000e+01
8.750000e+01
1.000000e+02
1.125000e+02
1.250000e+02
1.375000e+02
1.500000e+02
1.625000e+02
1.750000e+02
1.875000e+02
2.000000e+02
0.000000e+00
1.250000e+01
2.500000e+01
3.750000e+01
5.000000e+01
6.250000e+01
7.500000e+01
8.750000e+01
1.000000e+02
1.125000e+02
1.250000e+02
1.375000e+02
1.500000e+02
1.625000e+02
1.750000e+02
1.875000e+02
2.000000e+02
0.000000e+00
1.250000e+01
2.500000e+01
3.750000e+01
5.000000e+01
6.250000e+01
7.500000e+01
8.750000e+01
1.000000e+02
1.125000e+02
1.250000e+02
1.375000e+02
1.500000e+02
1.625000e+02
1.750000e+02
1.875000e+02
2.000000e+02
0.000000e+00
1.250000e+01
2.500000e+01
3.750000e+01
5.000000e+01
6.250000e+01
7.500000e+01
8.750000e+01
1.000000e+02
1.125000e+02
1.250000e+02
1.375000e+02
1.500000e+02
1.625000e+02
1.750000e+02
1.875000e+02
2.000000e+02
0.000000e+00
1.250000e+01
2.500000e+01
3.750000e+01
5.000000e+01
6.250000e+01
7.500000e+01
8.750000e+01
1.000000e+02
1.125000e+02
1.250000e+02
1.375000e+02
1.500000e+02
1.625000e+02
1.750000e+02
1.875000e+02
2.000000e+02
0.000000e+00
1.250000e+01
2.500000e+01
3.750000e+01
5.000000e+01
6.250000e+01
7.500000e+01
8.750000e+01
1.000000e+02
1.125000e+02
1.250000e+02
1.375000e+02
1.500000e+02
1.625000e+02
1.750000e+02
1.875000e+02
2.000000e+02
0.000000e+00
1.250000e+01
2.500000e+01
3.750000e+01
5.000000e+01
6.250000e+01
7.500000e+01
8.750000e+01
1.000000e+02
1.125000e+02
1.250000e+02
1.375000e+02
1.500000e+02
1.625000e+02
1.750000e+02
1.875000e+02
2.000000e+02
0.000000e+00
1.250000e+01
2.500000e+01
3.750000e+01
5.000000e+01
6.250000e+01
7.500000e+01
8.750000e+01
1.000000e+02
1.125000e+02
1.250000e+02
1.375000e+02
1.500000e+02
1.625000e+02
1.750000e+02
1.875000e+02
2.000000e+02
0.000000e+00
1.250000e+01
2.500000e+01
3.750000e+01
5.000000e+01
6.250000e+01
7.500000e+01
8.750000e+01
1.000000e+02
1.125000e+02
1.250000e+02
1.375000e+02
1.500000e+02
1.625000e+02
1.750000e+02
1.875000e+02
2.000000e+02
0.000000e+00
0.000000e+00
0.000000e+00
0.000000e+00
0.000000e+00
0.000000e+00
0.000000e+00
0.000000e+00
0.000000e+00
0.000000e+00
0.000000e+00
0.000000e+00
0.000000e+00
0.000000e+00
0.000000e+00
0.000000e+00
0.000000e+00
1.250000e+01
1.250000e+01
1.250000e+01
1.250000e+01
1.250000e+01
1.250000e+01
1.250000e+01
1.250000e+01
1.250000e+01
1.250000e+01
1.250000e+01
1.250000e+01
1.250000e+01
1.250000e+01
1.250000e+01
1.250000e+01
1.250000e+01
2.500000e+01
2.500000e+01
2.500000e+01
2.500000e+01
2.500000e+01
2.500000e+01
2.500000e+01
2.500000e+01
2.500000e+01
2.500000e+01
2.500000e+01
2.500000e+01
2.500000e+01
2.500000e+01
2.500000e+01
2.500000e+01
2.500000e+01
3.750000e+01
3.750000e+01
3.750000e+01
3.750000e+01
3.750000e+01
3.750000e+01
3.750000e+01
3.750000e+01
3.750000e+01
3.750000e+01
3.750000e+01
3.750000e+01
3.750000e+01
3.750000e+01
3.750000e+01
3.750000e+01
3.750000e+01
5.000000e+01
5.000000e+01
5.000000e+01
5.000000e+01
5.000000e+01
5.000000e+01
5.000000e+01
5.000000e+01
5.000000e+01
5.000000e+01
5.000000e+01
5.000000e+01
5.000000e+01
5.000000e+01
5.000000e+01
5.000000e+01
5.000000e+01
6.250000e+01
6.250000e+01
6.250000e+01
6.250000e+01
6.250000e+01
6.250000e+01
6.250000e+01
6.250000e+01
6.250000e+01
6.250000e+01
6.250000e+01
6.250000e+01
6.250000e+01
6.250000e+01
6.250000e+01
6.250000e+01
6.250000e+01
7.500000e+01
7.500000e+01
7.500000e+01
7.500000e+01
7.500000e+01
7.500000e+01
7.500000e+01
7.500000e+01
7.500000e+01
7.500000e+01
7.500000e+01
7.500000e+01
7.500000e+01
7.500000e+01
7.500000e+01
7.500000e+01
7.500000e+01
8.750000e+01
8.750000e+01
8.750000e+01
8.750000e+01
8.750000e+01
8.750000e+01
8.750000e+01
8.750000e+01
8.750000e+01
8.750000e+01
8.750000e+01
8.750000e+01
8.750000e+01
8.750000e+01
8.750000e+01
8.750000e+01
8.750000e+01
1.000000e+02
1.000000e+02
1.000000e+02
1.000000e+02
1.000000e+02
1.000000e+02
1.000000e+02
1.000000e+02
1.000000e+02
1.000000e+02
1.000000e+02
1.000000e+02
1.000000e+02
1.000000e+02
1.000000e+02
1.000000e+02
1.000000e+02
0.000000e+00
-9.714138e-01
-1.661570e+00
-2.397394e+00
-3.078163e+00
-3.730897e+00
-4.416291e+00
-5.071046e+00
-5.726770e+00
-6.382523e+00
-7.042827e+00
-7.696302e+00
-8.386493e+00
-9.170168e+00
-1.003758e+01
-1.077454e+01
-1.122656e+01
0.000000e+00
-4.452790e-01
-9.167971e-01
-1.423356e+00
-1.937613e+00
-2.423261e+00
-2.935217e+00
-3.436456e+00
-3.929148e+00
-4.431113e+00
-4.930180e+00
-5.420734e+00
-5.916559e+00
-6.433847e+00
-6.858278e+00
-6.969871e+00
-7.146080e+00
0.000000e+00
-1.619642e-01
-3.790381e-01
-6.743359e-01
-1.014619e+00
-1.341573e+00
-1.694753e+00
-2.044526e+00
-2.389727e+00
-2.741085e+00
-3.080538e+00
-3.401509e+00
-3.687401e+00
-3.909152e+00
-3.996697e+00
-3.986267e+00
-4.136603e+00
0.000000e+00
-8.083682e-02
-1.687496e-01
-3.131363e-01
-4.586969e-01
-6.320763e-01
-8.077007e-01
-9.802354e-01
-1.155956e+00
-1.321441e+00
-1.477564e+00
-1.606405e+00
-1.683181e+00
-1.681118e+00
-1.610431e+00
-1.597682e+00
-1.721790e+00
0.000000e+00
-2.532620e-03
-5.415884e-03
-8.061522e-03
-1.026280e-02
-1.103907e-02
-9.026060e-03
-2.976276e-03
8.753260e-03
2.954084e-02
6.181360e-02
1.155207e-01
2.017376e-01
3.181041e-01
4.314735e-01
4.605674e-01
3.600579e-01
0.000000e+00
7.650815e-02
1.600587e-01
2.991626e-01
4.405809e-01
6.118872e-01
7.905932e-01
9.733604e-01
1.171939e+00
1.375094e+00
1.592900e+00
1.819266e+00
2.037969e+00
2.229283e+00
2.359616e+00
2.389807e+00
2.325439e+00
0.000000e+00
1.602767e-01
3.755722e-01
6.682604e-01
1.004942e+00
1.330621e+00
1.683906e+00
2.039208e+00
2.402961e+00
2.781865e+00
3.155103e+00
3.526482e+00
3.862105e+00
4.124319e+00
4.290617e+00
4.345604e+00
4.326119e+00
0.000000e+00
4.452601e-01
9.175218e-01
1.423853e+00
1.936073e+00
2.422018e+00
2.931369e+00
3.425660e+00
3.916018e+00
4.406512e+00
4.882120e+00
5.356428e+00
5.793844e+00
6.129364e+00
6.338720e+00
6.430103e+00
6.446445e+00
0.000000e+00
9.721751e-01
1.665361e+00
2.403842e+00
3.086273e+00
3.742973e+00
4.429026e+00
5.071167e+00
5.711721e+00
6.328188e+00
6.920794e+00
7.514687e+00
8.049227e+00
8.432906e+00
8.630997e+00
8.684608e+00
8.685318e+00
0.000000e+00
-6.050350e-01
-1.324314e+00
-2.287945e+00
-3.423235e+00
-4.728753e+00
-6.216773e+00
-7.866593e+00
-9.686630e+00
-1.167690e+01
-1.383083e+01
-1.614831e+01
-1.864963e+01
-2.136461e+01
-2.431123e+01
-2.767557e+01
-3.268426e+01
0.000000e+00
-4.019816e-01
-1.155962e+00
-2.103782e+00
-3.252286e+00
-4.553380e+00
-6.040172e+00
-7.695354e+00
-9.513709e+00
-1.150515e+01
-1.366092e+01
-1.597984e+01
-1.847055e+01
-2.118082e+01
-2.417890e+01
-2.758677e+01
-3.165093e+01
0.000000e+00
-3.707909e-01
-1.054451e+00
-1.997357e+00
-3.131329e+00
-4.429655e+00
-5.916022e+00
-7.570263e+00
-9.392150e+00
-1.138624e+01
-1.355152e+01
-1.588175e+01
-1.838578e+01
-2.112134e+01
-2.417167e+01
-2.742807e+01
-3.045441e+01
0.000000e+00
-4.204283e-01
-1.045661e+00
-1.965713e+00
-3.065208e+00
-4.362633e+00
-5.846757e+00
-7.499038e+00
-9.330209e+00
-1.133086e+01
-1.351203e+01
-1.586674e+01
-1.839489e+01
-2.112807e+01
-2.411103e+01
-2.711413e+01
-2.970975e+01
0.000000e+00
-4.294446e-01
-1.062499e+00
-1.951170e+00
-3.052709e+00
-4.345405e+00
-5.830568e+00
-7.489469e+00
-9.326175e+00
-1.133934e+01
-1.353078e+01
-1.590447e+01
-1.843887e+01
-2.113097e+01
-2.396540e+01
-2.675324e+01
-2.910852e+01
0.000000e+00
-4.193713e-01
-1.045806e+00
-1.968336e+00
-3.071849e+00
-4.375964e+00
-5.870891e+00
-7.533327e+00
-9.382071e+00
-1.140034e+01
-1.359136e+01
-1.596065e+01
-1.848237e+01
-2.112284e+01
-2.382703e+01
-2.643894e+01
-2.868195e+01
0.000000e+00
-3.694862e-01
-1.054826e+00
-2.001927e+00
-3.142286e+00
-4.453004e+00
-5.957700e+00
-7.632187e+00
-9.482637e+00
-1.150353e+01
-1.368129e+01
-1.603223e+01
-1.853392e+01
-2.112870e+01
-2.373973e+01
-2.623628e+01
-2.846567e+01
0.000000e+00
-4.008438e-01
-1.156331e+00
-2.108438e+00
-3.264465e+00
-4.579280e+00
-6.086937e+00
-7.767378e+00
-9.616459e+00
-1.163540e+01
-1.380295e+01
-1.613644e+01
-1.861671e+01
-2.117294e+01
-2.371838e+01
-2.614840e+01
-2.840909e+01
0.000000e+00
-6.044244e-01
-1.325269e+00
-2.292737e+00
-3.436079e+00
-4.755491e+00
-6.262913e+00
-7.937557e+00
-9.786485e+00
-1.179754e+01
-1.396114e+01
-1.628671e+01
-1.873963e+01
-2.125109e+01
-2.374272e+01
-2.613279e+01
-2.840822e+01


0.000000e+00
1.503131e-05
2.490714e-05
3.701541e-05
5.244026e-05
6.573760e-05
8.027213e-05
9.507229e-05
1.088837e-04
1.240363e-04
1.387224e-04
1.529527e-04
1.701974e-04
1.831990e-04
1.899362e-04
1.945853e-04
2.008894e-04
0.000000e+00
1.114736e-05
1.976094e-05
2.850914e-05
4.119623e-05
5.176296e-05
6.210143e-05
7.332205e-05
8.350459e-05
9.438025e-05
1.043496e-04
1.139040e-04
1.249983e-04
1.317888e-04
1.314572e-04
1.348883e-04
1.405467e-04
0.000000e+00
9.286756e-06
1.523654e-05
2.094267e-05
3.016335e-05
3.711623e-05
4.361329e-05
5.100232e-05
5.713358e-05
6.347028e-05
6.882715e-05
7.319989e-05
7.737493e-05
7.818580e-05
7.703761e-05
7.943885e-05
8.383750e-05
0.000000e+00
5.056730e-06
7.227456e-06
1.076782e-05
1.505709e-05
1.766316e-05
2.125543e-05
2.434633e-05
2.652969e-05
2.885283e-05
3.012191e-05
2.987792e-05
2.857887e-05
2.691475e-05
2.711060e-05
3.029515e-05
3.572836e-05
0.000000e+00
-7.561438e-08
-1.927075e-07
-3.522023e-07
-5.694268e-07
-8.470337e-07
-1.197579e-06
-1.689448e-06
-2.394802e-06
-3.697167e-06
-5.880887e-06
-9.156308e-06
-1.208112e-05
-1.367128e-05
-1.316300e-05
-1.077663e-05
-7.118137e-06
0.000000e+00
-5.166948e-06
-7.511860e-06
-1.133294e-05
-1.597623e-05
-1.906140e-05
-2.322973e-05
-2.685776e-05
-3.004545e-05
-3.298794e-05
-3.616342e-05
-4.027698e-05
-4.397205e-05
-4.540236e-05
-4.617293e-05
-4.666769e-05
-4.542277e-05
0.000000e+00
-9.278043e-06
-1.527518e-05
-2.111541e-05
-3.057352e-05
-3.784890e-05
-4.455874e-05
-5.237921e-05
-5.833552e-05
-6.352875e-05
-6.838428e-05
-7.268421e-05
-7.634928e-05
-7.909746e-05
-8.096141e-05
-8.267853e-05
-8.332987e-05
0.000000e+00
-1.110116e-05
-1.969414e-05
-2.842272e-05
-4.114280e-05
-5.178915e-05
-6.203190e-05
-7.351707e-05
-8.364226e-05
-9.385258e-05
-1.039664e-04
-1.117400e-04
-1.169904e-04
-1.211625e-04
-1.238207e-04
-1.247636e-04
-1.248974e-04
0.000000e+00
-1.506119e-05
-2.488993e-05
-3.685803e-05
-5.209406e-05
-6.517491e-05
-7.932624e-05
-9.374416e-05
-1.077085e-04
-1.228763e-04
-1.396576e-04
-1.538422e-04
-1.631332e-04
-1.677259e-04
-1.694258e-04
-1.693962e-04
-1.691775e-04
0.000000e+00
1.244343e-05
1.994925e-05
3.203526e-05
4.752021e-05
6.423057e-05
8.591239e-05
1.114846e-04
1.405754e-04
1.747116e-04
2.126223e-04
2.558523e-04
3.054203e-04
3.571831e-04
4.167642e-04
4.851985e-04
5.553778e-04
0.000000e+00
7.463621e-06
1.592688e-05
2.597977e-05
4.111331e-05
5.840435e-05
7.959797e-05
1.053747e-04
1.345131e-04
1.684580e-04
2.068188e-04
2.496601e-04
2.992557e-04
3.538030e-04
4.125780e-04
4.782315e-04
5.454220e-04
0.000000e+00
4.037561e-06
1.194206e-05
2.117740e-05
3.556182e-05
5.348064e-05
7.486351e-05
1.005275e-04
1.299928e-04
1.641417e-04
2.026437e-04
2.458630e-04
2.958854e-04
3.523594e-04
4.090541e-04
4.708381e-04
5.354497e-04
0.000000e+00
2.765261e-06
9.843658e-06
1.913519e-05
3.331091e-05
5.141891e-05
7.297696e-05
9.883786e-05
1.285003e-04
1.625018e-04
2.012046e-04
2.449059e-04
2.954385e-04
3.512517e-04
4.066071e-04
4.630793e-04
5.213882e-04
0.000000e+00
2.326835e-06
9.273914e-06
1.867373e-05
3.277707e-05
5.086189e-05
7.244432e-05
9.837603e-05
1.282134e-04
1.619774e-04
2.003779e-04
2.453901e-04
2.959580e-04
3.515083e-04
4.056050e-04
4.568759e-04
5.066870e-04
0.000000e+00
2.861662e-06
9.984091e-06
1.930438e-05
3.345118e-05
5.149430e-05
7.290847e-05
9.860707e-05
1.283571e-04
1.618841e-04
2.007542e-04
2.471952e-04
2.983428e-04
3.519064e-04
4.057413e-04
4.547325e-04
4.973526e-04
0.000000e+00
4.167966e-06
1.216775e-05
2.146543e-05
3.580262e-05
5.361342e-05
7.463521e-05
1.000148e-04
1.291652e-04
1.628593e-04
2.027742e-04
2.503874e-04
3.017210e-04
3.534854e-04
4.048954e-04
4.527746e-04
4.947442e-04
0.000000e+00
7.581637e-06
1.617860e-05
2.632849e-05
4.144896e-05
5.857363e-05
7.946128e-05
1.047417e-04
1.332017e-04
1.668673e-04
2.071444e-04
2.540102e-04
3.046180e-04
3.550776e-04
4.046062e-04
4.513832e-04
4.952147e-04
0.000000e+00
1.255832e-05
2.019462e-05
3.238883e-05
4.788660e-05
6.441327e-05
8.582295e-05
1.109463e-04
1.392541e-04
1.732716e-04
2.134375e-04
2.581016e-04
3.068354e-04
3.560393e-04
4.046884e-04
4.509929e-04
4.954896e-04


4.564815e+00
4.719207e+00
5.019826e+00
4.416908e+00
3.977090e+00
4.098624e+00
4.208156e+00
4.422720e+00
4.734620e+00
5.145297e+00
5.648901e+00
6.693084e+00
8.107950e+00
8.806860e+00
8.000233e+00
6.826454e+00
6.956936e+00
7.060119e+00
7.092203e+00
6.824812e+00
6.499647e+00
6.588580e+00
6.663090e+00
6.737696e+00
6.938542e+00
7.125401e+00
7.380328e+00
7.908534e+00
8.615305e+00
8.722431e+00
7.338460e+00
5.569083e+00
8.959897e+00
8.932006e+00
8.973778e+00
8.802187e+00
8.748117e+00
8.773088e+00
8.766199e+00
8.790359e+00
8.809969e+00
8.847345e+00
8.832712e+00
8.840413e+00
8.850051e+00
8.417790e+00
6.948753e+00
5.365831e+00
9.454143e+00
9.444851e+00
9.439377e+00
9.404261e+00
9.391321e+00
9.388002e+00
9.374114e+00
9.356737e+00
9.317856e+00
9.223773e+00
8.983672e+00
8.474840e+00
8.018700e+00
7.684471e+00
7.161009e+00
6.691252e+00
9.453083e+00
9.442498e+00
9.435275e+00
9.395723e+00
9.378445e+00
9.370363e+00
9.346101e+00
9.313732e+00
9.220973e+00
8.960545e+00
8.402171e+00
7.592365e+00
7.049447e+00
7.233624e+00
7.782284e+00
8.071713e+00
8.953136e+00
8.921992e+00
8.950437e+00
8.755214e+00
8.676988e+00
8.674142e+00
8.627855e+00
8.585182e+00
8.350104e+00
7.945993e+00
7.568315e+00
7.213035e+00
7.288692e+00
7.892757e+00
8.618951e+00
9.033881e+00
6.942793e+00
7.042944e+00
7.058072e+00
6.753024e+00
6.397678e+00
6.443774e+00
6.470504e+00
6.448409e+00
6.343788e+00
6.334928e+00
6.822385e+00
7.615143e+00
8.271762e+00
8.864049e+00
9.247300e+00
9.402011e+00
4.545926e+00
4.707633e+00
4.999938e+00
4.371342e+00
3.918279e+00
4.020761e+00
4.107376e+00
4.314067e+00
4.505387e+00
5.157926e+00
6.619751e+00
8.046867e+00
8.908134e+00
9.282608e+00
9.439979e+00
9.501520e+00


-7.582719e-01
-2.020069e-01
-3.496488e-01
-2.535489e-01
-1.407017e-01
-2.589827e-01
-1.784063e-01
-1.651465e-01
-1.873247e-01
-1.915253e-01
-1.618312e-01
-2.451364e-01
-4.798639e-01
-4.229835e-01
3.653548e-01
-8.381400e-01
6.023304e-01
4.549352e-01
3.080210e-01
2.285970e-01
2.877652e-01
1.879199e-01
1.938680e-01
1.956481e-01
1.495699e-01
1.584900e-01
2.010391e-01
2.655724e-01
3.560438e-01
6.129331e-01
7.111943e-01
-1.029280e+00
7.526372e-01
5.196535e-01
1.952539e-01
1.315275e-01
1.007643e-01
3.075009e-02
5.540496e-02
5.800073e-02
7.805701e-02
1.163591e-01
1.920282e-01
3.033250e-01
3.682255e-01
2.190450e-01
2.983162e-02
-2.192937e-01
7.639266e-01
5.927544e-01
2.875081e-01
1.716816e-01
8.072268e-02
4.642835e-02
6.572817e-02
7.762516e-02
1.148623e-01
1.368935e-01
1.600822e-01
1.752617e-01
6.896764e-02
-2.678475e-01
-3.222871e-01
-4.033585e-02
7.662077e-01
5.954951e-01
2.919268e-01
1.739590e-01
7.801193e-02
3.232569e-02
4.307255e-02
3.349773e-02
5.365963e-02
6.267483e-02
4.796551e-02
2.935640e-02
-4.985782e-02
-1.876297e-01
-9.595920e-02
3.439900e-01
7.577794e-01
5.266733e-01
2.073158e-01
1.429637e-01
9.952293e-02
8.256668e-03
8.481525e-03
-4.308971e-02
-6.152326e-02
-6.560207e-02
-1.211375e-01
-1.206864e-01
-5.924012e-02
6.125196e-02
3.442744e-01
7.494653e-01
6.055963e-01
4.573509e-01
3.127700e-01
2.364419e-01
2.840363e-01
1.774909e-01
1.670700e-01
1.127735e-01
2.531088e-02
-8.995718e-03
-1.060569e-01
-8.459935e-02
1.284915e-01
4.126859e-01
7.267296e-01
9.512450e-01
-7.591569e-01
-2.095579e-01
-3.547569e-01
-2.531762e-01
-1.498597e-01
-2.568193e-01
-1.446785e-01
-1.400170e-01
-1.052389e-01
-4.710679e-02
-7.175813e-02
7.927744e-02
4.532169e-01
7.828687e-01
9.537380e-01
9.987938e-01
1 2 19 18
2 3 20 19
3 4 21 20
4 5 22 21
5 6 23 22
6 7 24 23
7 8 25 24
8 9 26 25
9 10 27 26
10 11 28 27
11 12 29 28
12 13 30 29
13 14 31 30
14 15 32 31
15 16 33 32
16 17 34 33
18 19 36 35
19 20 37 36
20 21 38 37
21 22 39 38
22 23 40 39
23 24 41 40
24 25 42 41
25 26 43 42
26 27 44 43
27 28 45 44
28 29 46 45
29 30 47 46
30 31 48 47
31 32 49 48
32 33 50 49
33 34 51 50
35 36 53 52
36 37 54 53
37 38 55 54
38 39 56 55
39 40 57 56
40 41 58 57
41 42 59 58
42 43 60 59
43 44 61 60
44 45 62 61
45 46 63 62
46 47 64 63
47 48 65 64
48 49 66 65
49 50 67 66
50 51 68 67
52 53 70 69
53 54 71 70
54 55 72 71
55 56 73 72
56 57 74 73
57 58 75 74
58 59 76 75
59 60 77 76
60 61 78 77
61 62 79 78
62 63 80 79
63 64 81 80
64 65 82 81
65 66 83 82
66 67 84 83
67 68 85 84
69 70 87 86
70 71 88 87
71 72 89 88
72 73 90 89
73 74 91 90
74 75 92 91
75 76 93 92
76 77 94 93
77 78 95 94
78 79 96 95
79 80 97 96
80 81 98 97
81 82 99 98
82 83 100 99
83 84 101 100
84 85 102 101
86 87 104 103
87 88 105 104
88 89 106 105
89 90 107 106
90 91 108 107
91 92 109 108
92 93 110 109
93 94 111 110
94 95 112 111
95 96 113 112
96 97 114 113
97 98 115 114
98 99 116 115
99 100 117 116
100 101 118 117
101 102 119 118
103 104 121 120
104 105 122 121
105 106 123 122
106 107 124 123
107 108 125 124
108 109 126 125
109 110 127 126
110 111 128 127
111 112 129 128
112 113 130 129
113 114 131 130
114 115 132 131
115 116 133 132
116 117 134 133
117 118 135 134
118 119 136 135
120 121 138 137
121 122 139 138
122 123 140 139
123 124 141 140
124 125 142 141
125 126 143 142
126 127 144 143
127 128 145 144
128 129 146 145
129 130 147 146
130 131 148 147
131 132 149 148
132 133 150 149
133 134 151 150
134 135 152 151
135 136 153 152
