TITLE = "Solution"
VARIABLES = x, y, u, v, psiu, psiv, t, stress
ZONE T="structure" N=153 E=128 F=FEBLOCK ET=QUADRILATERAL VARLOCATION=([7,8]=cellcentered)
0.000000e+00
1.250000e+01
2.500000e+01
3.750000e+01
5.000000e+01
6.250000e+01
7.500000e+01
8.750000e+01
1.000000e+02
1.125000e+02
1.250000e+02
1.375000e+02
1.500000e+02
1.625000e+02
1.750000e+02
1.875000e+02
2.000000e+02
0.000000e+00
1.250000e+01
2.500000e+01
3.750000e+01
5.000000e+01
6.250000e+01
7.500000e+01
8.750000e+01
1.000000e+02
1.125000e+02
1.250000e+02
1.375000e+02
1.500000e+02
1.625000e+02
1.750000e+02
1.875000e+02
2.000000e+02
0.000000e+00
1.250000e+01
2.500000e+01
3.750000e+01
5.000000e+01
6.250000e+01
7.500000e+01
8.750000e+01
1.000000e+02
1.125000e+02
1.250000e+02
1.375000e+02
1.500000e+02
1.625000e+02
1.750000e+02
1.875000e+02
2.000000e+02
0.000000e+00
1.250000e+01
2.500000e+01
3.750000e+01
5.000000e+01
6.250000e+01
7.500000e+01
8.750000e+01
1.000000e+02
1.125000e+02
1.250000e+02
1.375000e+02
1.500000e+02
1.625000e+02
1.750000e+02
1.875000e+02
2.000000e+02
0.000000e+00
1.250000e+01
2.500000e+01
3.750000e+01
5.000000e+01
6.250000e+01
7.500000e+01
8.750000e+01
1.000000e+02
1.125000e+02
1.250000e+02
1.375000e+02
1.500000e+02
1.625000e+02
1.750000e+02
1.875000e+02
2.000000e+02
0.000000e+00
1.250000e+01
2.500000e+01
3.750000e+01
5.000000e+01
6.250000e+01
7.500000e+01
8.750000e+01
1.000000e+02
1.125000e+02
1.250000e+02
1.375000e+02
1.500000e+02
1.625000e+02
1.750000e+02
1.875000e+02
2.000000e+02
0.000000e+00
1.250000e+01
2.500000e+01
3.750000e+01
5.000000e+01
6.250000e+01
7.500000e+01
8.750000e+01
1.000000e+02
1.125000e+02
1.250000e+02
1.375000e+02
1.500000e+02
1.625000e+02
1.750000e+02
1.875000e+02
2.000000e+02
0.000000e+00
1.250000e+01
2.500000e+01
3.750000e+01
5.000000e+01
6.250000e+01
7.500000e+01
8.750000e+01
1.000000e+02
1.125000e+02
1.250000e+02
1.375000e+02
1.500000e+02
1.625000e+02
1.750000e+02
1.875000e+02
2.000000e+02
0.000000e+00
1.250000e+01
2.500000e+01
3.750000e+01
5.000000e+01
6.250000e+01
7.500000e+01
8.750000e+01
1.000000e+02
1.125000e+02
1.250000e+02
1.375000e+02
1.500000e+02
1.625000e+02
1.750000e+02
1.875000e+02
2.000000e+02
0.000000e+00
0.000000e+00
0.000000e+00
0.000000e+00
0.000000e+00
0.000000e+00
0.000000e+00
0.000000e+00
0.000000e+00
0.000000e+00
0.000000e+00
0.000000e+00
0.000000e+00
0.000000e+00
0.000000e+00
0.000000e+00
0.000000e+00
1.250000e+01
1.250000e+01
1.250000e+01
1.250000e+01
1.250000e+01
1.250000e+01
1.250000e+01
1.250000e+01
1.250000e+01
1.250000e+01
1.250000e+01
1.250000e+01
1.250000e+01
1.250000e+01
1.250000e+01
1.250000e+01
1.250000e+01
2.500000e+01
2.500000e+01
2.500000e+01
2.500000e+01
2.500000e+01
2.500000e+01
2.500000e+01
2.500000e+01
2.500000e+01
2.500000e+01
2.500000e+01
2.500000e+01
2.500000e+01
2.500000e+01
2.500000e+01
2.500000e+01
2.500000e+01
3.750000e+01
3.750000e+01
3.750000e+01
3.750000e+01
3.750000e+01
3.750000e+01
3.750000e+01
3.750000e+01
3.750000e+01
3.750000e+01
3.750000e+01
3.750000e+01
3.750000e+01
3.750000e+01
3.750000e+01
3.750000e+01
3.750000e+01
5.000000e+01
5.000000e+01
5.000000e+01
5.000000e+01
5.000000e+01
5.000000e+01
5.000000e+01
5.000000e+01
5.000000e+01
5.000000e+01
5.000000e+01
5.000000e+01
5.000000e+01
5.000000e+01
5.000000e+01
5.000000e+01
5.000000e+01
6.250000e+01
6.250000e+01
6.250000e+01
6.250000e+01
6.250000e+01
6.250000e+01
6.250000e+01
6.250000e+01
6.250000e+01
6.250000e+01
6.250000e+01
6.250000e+01
6.250000e+01
6.250000e+01
6.250000e+01
6.250000e+01
6.250000e+01
7.500000e+01
7.500000e+01
7.500000e+01
7.500000e+01
7.500000e+01
7.500000e+01
7.500000e+01
7.500000e+01
7.500000e+01
7.500000e+01
7.500000e+01
7.500000e+01
7.500000e+01
7.500000e+01
7.500000e+01
7.500000e+01
7.500000e+01
8.750000e+01
8.750000e+01
8.750000e+01
8.750000e+01
8.750000e+01
8.750000e+01
8.750000e+01
8.750000e+01
8.750000e+01
8.750000e+01
8.750000e+01
8.750000e+01
8.750000e+01
8.750000e+01
8.750000e+01
8.750000e+01
8.750000e+01
1.000000e+02
1.000000e+02
1.000000e+02
1.000000e+02
1.000000e+02
1.000000e+02
1.000000e+02
1.000000e+02
1.000000e+02
1.000000e+02
1.000000e+02
1.000000e+02
1.000000e+02
1.000000e+02
1.000000e+02
1.000000e+02
1.000000e+02
0.000000e+00
-3.402385e-01
-6.264737e-01
-8.899560e-01
-1.135525e+00
-1.362620e+00
-1.570694e+00
-1.759539e+00
-1.929393e+00
-2.081011e+00
-2.215879e+00
-2.336621e+00
-2.447764e+00
-2.557135e+00
-2.678238e+00
-2.826944e+00
-2.938521e+00
0.000000e+00
-2.031233e-01
-4.219663e-01
-6.241459e-01
-8.105710e-01
-9.819128e-01
-1.138477e+00
-1.280436e+00
-1.408015e+00
-1.521588e+00
-1.621717e+00
-1.709115e+00
-1.784334e+00
-1.846596e+00
-1.890510e+00
-1.900135e+00
-1.934635e+00
0.000000e+00
-1.269902e-01
-2.611524e-01
-3.950806e-01
-5.201994e-01
-6.351620e-01
-7.398448e-01
-8.343399e-01
-9.186509e-01
-9.926226e-01
-1.055847e+00
-1.107436e+00
-1.145545e+00
-1.166819e+00
-1.167412e+00
-1.158918e+00
-1.194106e+00
0.000000e+00
-6.128212e-02
-1.261782e-01
-1.915303e-01
-2.540681e-01
-3.117103e-01
-3.639885e-01
-4.107376e-01
-4.516796e-01
-4.862741e-01
-5.136316e-01
-5.324574e-01
-5.412084e-01
-5.391640e-01
-5.307644e-01
-5.330604e-01
-5.592644e-01
0.000000e+00
-5.701598e-05
-1.295333e-04
-2.018095e-04
-2.403185e-04
-1.702847e-04
1.567389e-04
1.007140e-03
2.817967e-03
6.240224e-03
1.212323e-02
2.132022e-02
3.406180e-02
4.846072e-02
5.840761e-02
5.568143e-02
3.833071e-02
0.000000e+00
6.119428e-02
1.259744e-01
1.912045e-01
2.536627e-01
3.113796e-01
3.641121e-01
4.121060e-01
4.557678e-01
4.955970e-01
5.321094e-01
5.655719e-01
5.954016e-01
6.193226e-01
6.333947e-01
6.345118e-01
6.257047e-01
0.000000e+00
1.269753e-01
2.611077e-01
3.949920e-01
5.200616e-01
6.349903e-01
7.397016e-01
8.343819e-01
9.192078e-01
9.943158e-01
1.059762e+00
1.115379e+00
1.160525e+00
1.193905e+00
1.213940e+00
1.220446e+00
1.218392e+00
0.000000e+00
2.032064e-01
4.221469e-01
6.244339e-01
8.109574e-01
9.823262e-01
1.138708e+00
1.280006e+00
1.405975e+00
1.516231e+00
1.610237e+00
1.687332e+00
1.746895e+00
1.788726e+00
1.813679e+00
1.824321e+00
1.826275e+00
0.000000e+00
3.403777e-01
6.268412e-01
8.906449e-01
1.136627e+00
1.364170e+00
1.572544e+00
1.761094e+00
1.929154e+00
2.075820e+00
2.199803e+00
2.299438e+00
2.373080e+00
2.420146e+00
2.442907e+00
2.448525e+00
2.448417e+00
0.000000e+00
-2.059716e-01
-4.044416e-01
-6.616644e-01
-9.773920e-01
-1.351048e+00
-1.778564e+00
-2.255173e+00
-2.775817e+00
-3.335498e+00
-3.929592e+00
-4.554420e+00
-5.208475e+00
-5.895251e+00
-6.632591e+00
-7.476391e+00
-8.689202e+00
0.000000e+00
-1.268089e-01
-3.338353e-01
-5.942018e-01
-9.150392e-01
-1.293758e+00
-1.726432e+00
-2.208172e+00
-2.733859e+00
-3.298400e+00
-3.897045e+00
-4.525941e+00
-5.183346e+00
-5.872666e+00
-6.609723e+00
-7.448400e+00
-8.476078e+00
0.000000e+00
-9.571125e-02
-2.848915e-01
-5.461901e-01
-8.700269e-01
-1.252618e+00
-1.689251e+00
-2.174991e+00
-2.704749e+00
-3.273506e+00
-3.876599e+00
-4.510308e+00
-5.173056e+00
-5.867687e+00
-6.605381e+00
-7.400005e+00
-8.168990e+00
0.000000e+00
-8.251233e-02
-2.605664e-01
-5.180128e-01
-8.430020e-01
-1.227932e+00
-1.667277e+00
-2.155913e+00
-2.688847e+00
-3.261193e+00
-3.868390e+00
-4.506646e+00
-5.173631e+00
-5.869031e+00
-6.591946e+00
-7.322008e+00
-7.994470e+00
0.000000e+00
-7.871589e-02
-2.532077e-01
-5.090256e-01
-8.340973e-01
-1.219981e+00
-1.660586e+00
-2.150794e+00
-2.685708e+00
-3.260520e+00
-3.870568e+00
-4.511458e+00
-5.179039e+00
-5.868376e+00
-6.569133e+00
-7.257300e+00
-7.891176e+00
0.000000e+00
-8.246315e-02
-2.605314e-01
-5.180750e-01
-8.433076e-01
-1.228737e+00
-1.668999e+00
-2.159174e+00
-2.694469e+00
-3.270055e+00
-3.880967e+00
-4.521887e+00
-5.186605e+00
-5.866645e+00
-6.548917e+00
-7.213446e+00
-7.833767e+00
0.000000e+00
-9.563103e-02
-2.848335e-01
-5.462938e-01
-8.705417e-01
-1.253979e+00
-1.692170e+00
-2.180527e+00
-2.714309e+00
-3.288602e+00
-3.898107e+00
-4.536692e+00
-5.196649e+00
-5.867761e+00
-6.536784e+00
-7.188536e+00
-7.808444e+00
0.000000e+00
-1.267337e-01
-3.337847e-01
-5.943395e-01
-9.156571e-01
-1.295359e+00
-1.729829e+00
-2.214571e+00
-2.744839e+00
-3.315633e+00
-3.921439e+00
-4.555685e+00
-5.210009e+00
-5.873637e+00
-6.533744e+00
-7.178236e+00
-7.802500e+00
0.000000e+00
-2.059402e-01
-4.044456e-01
-6.618774e-01
-9.781081e-01
-1.352758e+00
-1.782040e+00
-2.261516e+00
-2.786393e+00
-3.351586e+00
-3.951448e+00
-4.579267e+00
-5.226620e+00
-5.882975e+00
-6.536327e+00
-7.176352e+00
-7.802593e+00


0.000000e+00
1.460156e-07
3.018185e-07
4.385163e-07
5.524227e-07
6.437130e-07
7.146619e-07
7.684248e-07
8.081796e-07
8.368677e-07
8.571055e-07
8.711860e-07
8.811567e-07
8.888897e-07
8.961246e-07
9.051494e-07
9.160598e-07
0.000000e+00
1.003056e-07
2.351774e-07
3.435499e-07
4.291144e-07
4.957140e-07
5.464210e-07
5.841755e-07
6.115870e-07
6.309055e-07
6.440291e-07
6.524918e-07
6.574278e-07
6.598188e-07
6.622609e-07
6.696278e-07
6.808536e-07
0.000000e+00
7.461940e-08
1.629852e-07
2.359551e-07
2.937953e-07
3.377966e-07
3.704501e-07
3.941347e-07
4.108227e-07
4.221019e-07
4.292410e-07
4.332500e-07
4.350045e-07
4.356604e-07
4.373989e-07
4.431842e-07
4.522586e-07
0.000000e+00
3.963462e-08
8.071125e-08
1.172373e-07
1.468129e-07
1.691368e-07
1.854010e-07
1.969236e-07
2.047804e-07
2.098113e-07
2.126989e-07
2.140666e-07
2.146151e-07
2.152282e-07
2.167850e-07
2.202900e-07
2.258438e-07
0.000000e+00
-4.565061e-11
-1.045576e-10
-1.836587e-10
-2.943715e-10
-4.524333e-10
-6.780407e-10
-9.944395e-10
-1.421391e-09
-1.959392e-09
-2.559938e-09
-3.082877e-09
-3.275426e-09
-2.891658e-09
-1.927153e-09
-2.501537e-10
2.619548e-09
0.000000e+00
-3.971448e-08
-8.089205e-08
-1.175536e-07
-1.473133e-07
-1.698903e-07
-1.865041e-07
-1.985058e-07
-2.070044e-07
-2.128573e-07
-2.167155e-07
-2.190591e-07
-2.202475e-07
-2.206253e-07
-2.205940e-07
-2.201855e-07
-2.189677e-07
0.000000e+00
-7.466557e-08
-1.631072e-07
-2.361737e-07
-2.941330e-07
-3.382757e-07
-3.710918e-07
-3.949592e-07
-4.118557e-07
-4.233933e-07
-4.308989e-07
-4.354814e-07
-4.380749e-07
-4.394584e-07
-4.402066e-07
-4.404675e-07
-4.401262e-07
0.000000e+00
-1.003265e-07
-2.352653e-07
-3.437027e-07
-4.293264e-07
-4.959650e-07
-5.466656e-07
-5.843360e-07
-6.115556e-07
-6.305665e-07
-6.433096e-07
-6.514527e-07
-6.563989e-07
-6.592660e-07
-6.608485e-07
-6.615715e-07
-6.616729e-07
0.000000e+00
-1.460852e-07
-3.019406e-07
-4.386664e-07
-5.525658e-07
-6.437891e-07
-7.145753e-07
-7.680385e-07
-8.073153e-07
-8.353106e-07
-8.546021e-07
-8.673983e-07
-8.755135e-07
-8.803486e-07
-8.828994e-07
-8.838759e-07
-8.840447e-07
0.000000e+00
1.325340e-07
2.366741e-07
3.453586e-07
4.758944e-07
6.295855e-07
8.031281e-07
9.923080e-07
1.193165e-06
1.402488e-06
1.617845e-06
1.837587e-06
2.061029e-06
2.289520e-06
2.528903e-06
2.782306e-06
3.038893e-06
0.000000e+00
7.076474e-08
1.730316e-07
2.899202e-07
4.310809e-07
5.947314e-07
7.768238e-07
9.729437e-07
1.179293e-06
1.392852e-06
1.611382e-06
1.833409e-06
2.058322e-06
2.286762e-06
2.521514e-06
2.768138e-06
3.020725e-06
0.000000e+00
3.452322e-08
1.233573e-07
2.468608e-07
3.966102e-07
5.683875e-07
7.572316e-07
9.587425e-07
1.169313e-06
1.386128e-06
1.607123e-06
1.830947e-06
2.056899e-06
2.284600e-06
2.514287e-06
2.753112e-06
2.999217e-06
0.000000e+00
1.968407e-08
1.002200e-07
2.244117e-07
3.785507e-07
5.547537e-07
7.472557e-07
9.516375e-07
1.164440e-06
1.382986e-06
1.605293e-06
1.829997e-06
2.056164e-06
2.282856e-06
2.509826e-06
2.742493e-06
2.980478e-06
0.000000e+00
1.600005e-08
9.396890e-08
2.176012e-07
3.729686e-07
5.505717e-07
7.442526e-07
9.495668e-07
1.163113e-06
1.382252e-06
1.604992e-06
1.829886e-06
2.055844e-06
2.281908e-06
2.507758e-06
2.736490e-06
2.967220e-06
0.000000e+00
1.970813e-08
1.002522e-07
2.244550e-07
3.786129e-07
5.548551e-07
7.474317e-07
9.519367e-07
1.164913e-06
1.383655e-06
1.606090e-06
1.830668e-06
2.056226e-06
2.281883e-06
2.507307e-06
2.733625e-06
2.959628e-06
0.000000e+00
3.456204e-08
1.234172e-07
2.469491e-07
3.967419e-07
5.686017e-07
7.575938e-07
9.593415e-07
1.170243e-06
1.387439e-06
1.608722e-06
1.832422e-06
2.057299e-06
2.282468e-06
2.507468e-06
2.732361e-06
2.956094e-06
0.000000e+00
7.082349e-08
1.731394e-07
2.900763e-07
4.313042e-07
5.950656e-07
7.773412e-07
9.737403e-07
1.180471e-06
1.394470e-06
1.613354e-06
1.835305e-06
2.058963e-06
2.283343e-06
2.507796e-06
2.731878e-06
2.954916e-06
0.000000e+00
1.326349e-07
2.368416e-07
3.455865e-07
4.761964e-07
6.299945e-07
8.036986e-07
9.931127e-07
1.194280e-06
1.403949e-06
1.619560e-06
1.839129e-06
2.061141e-06
2.284461e-06
2.508254e-06
2.731845e-06
2.954736e-06


9.933593e-01
9.933550e-01
9.938953e-01
9.948375e-01
9.956928e-01
9.963686e-01
9.968793e-01
9.972508e-01
9.975109e-01
9.976852e-01
9.977946e-01
9.978545e-01
9.978639e-01
9.977848e-01
9.976292e-01
9.975129e-01
9.942904e-01
9.942739e-01
9.946903e-01
9.954493e-01
9.961429e-01
9.966894e-01
9.971009e-01
9.973987e-01
9.976062e-01
9.977445e-01
9.978301e-01
9.978747e-01
9.978745e-01
9.977896e-01
9.976357e-01
9.975224e-01
9.958596e-01
9.958285e-01
9.960613e-01
9.964992e-01
9.969023e-01
9.972241e-01
9.974650e-01
9.976374e-01
9.977560e-01
9.978336e-01
9.978797e-01
9.979005e-01
9.978904e-01
9.978171e-01
9.976920e-01
9.976038e-01
9.969826e-01
9.969563e-01
9.970516e-01
9.972442e-01
9.974366e-01
9.975950e-01
9.977132e-01
9.977960e-01
9.978514e-01
9.978861e-01
9.979048e-01
9.979105e-01
9.978999e-01
9.978551e-01
9.977826e-01
9.977325e-01
9.969821e-01
9.969557e-01
9.970508e-01
9.972429e-01
9.974347e-01
9.975924e-01
9.977096e-01
9.977912e-01
9.978454e-01
9.978793e-01
9.978982e-01
9.979060e-01
9.979036e-01
9.978857e-01
9.978559e-01
9.978360e-01
9.958577e-01
9.958264e-01
9.960587e-01
9.964958e-01
9.968980e-01
9.972186e-01
9.974579e-01
9.976281e-01
9.977447e-01
9.978210e-01
9.978677e-01
9.978935e-01
9.979053e-01
9.979061e-01
9.979005e-01
9.978962e-01
9.942869e-01
9.942701e-01
9.946861e-01
9.954449e-01
9.961386e-01
9.966854e-01
9.970971e-01
9.973946e-01
9.976018e-01
9.977400e-01
9.978268e-01
9.978774e-01
9.979046e-01
9.979176e-01
9.979229e-01
9.979248e-01
9.933548e-01
9.933503e-01
9.938905e-01
9.948330e-01
9.956895e-01
9.963672e-01
9.968799e-01
9.972532e-01
9.975151e-01
9.976909e-01
9.978023e-01
9.978680e-01
9.979040e-01
9.979226e-01
9.979315e-01
9.979352e-01


7.396133e-01
7.765356e-01
8.105319e-01
8.365870e-01
8.608493e-01
8.833079e-01
9.038322e-01
9.221540e-01
9.380598e-01
9.513777e-01
9.619754e-01
9.697425e-01
9.745733e-01
9.763014e-01
9.775518e-01
9.009274e-01
9.015383e-01
8.845829e-01
8.953644e-01
9.094391e-01
9.226040e-01
9.346150e-01
9.455225e-01
9.554260e-01
9.644087e-01
9.725551e-01
9.799523e-01
9.866537e-01
9.925019e-01
9.963324e-01
9.866549e-01
8.554753e-01
9.657915e-01
9.560414e-01
9.533613e-01
9.569948e-01
9.618121e-01
9.664980e-01
9.708634e-01
9.749999e-01
9.790148e-01
9.829351e-01
9.865990e-01
9.894371e-01
9.900298e-01
9.849194e-01
9.663818e-01
9.330416e-01
9.930221e-01
9.859131e-01
9.815105e-01
9.803781e-01
9.808046e-01
9.815370e-01
9.822724e-01
9.829954e-01
9.837078e-01
9.843055e-01
9.844709e-01
9.835761e-01
9.807400e-01
9.756513e-01
9.713381e-01
9.702477e-01
9.930483e-01
9.859504e-01
9.815439e-01
9.803714e-01
9.806939e-01
9.812171e-01
9.815794e-01
9.816969e-01
9.815186e-01
9.809619e-01
9.799298e-01
9.784444e-01
9.770308e-01
9.773121e-01
9.813077e-01
9.882231e-01
9.658411e-01
9.561163e-01
9.534332e-01
9.569958e-01
9.616228e-01
9.659126e-01
9.695526e-01
9.724851e-01
9.746847e-01
9.761672e-01
9.771053e-01
9.780242e-01
9.799577e-01
9.840124e-01
9.901033e-01
9.964009e-01
9.015297e-01
8.845767e-01
8.953501e-01
9.093989e-01
9.225000e-01
9.343767e-01
9.450283e-01
9.544822e-01
9.627340e-01
9.697960e-01
9.757793e-01
9.810077e-01
9.860443e-01
9.913255e-01
9.962643e-01
9.993748e-01
7.394362e-01
7.762579e-01
8.101908e-01
8.362037e-01
8.605043e-01
8.831823e-01
9.042582e-01
9.236566e-01
9.413612e-01
9.573235e-01
9.713432e-01
9.829783e-01
9.916357e-01
9.969775e-01
9.994077e-01
9.999874e-01
1 2 19 18
2 3 20 19
3 4 21 20
4 5 22 21
5 6 23 22
6 7 24 23
7 8 25 24
8 9 26 25
9 10 27 26
10 11 28 27
11 12 29 28
12 13 30 29
13 14 31 30
14 15 32 31
15 16 33 32
16 17 34 33
18 19 36 35
19 20 37 36
20 21 38 37
21 22 39 38
22 23 40 39
23 24 41 40
24 25 42 41
25 26 43 42
26 27 44 43
27 28 45 44
28 29 46 45
29 30 47 46
30 31 48 47
31 32 49 48
32 33 50 49
33 34 51 50
35 36 53 52
36 37 54 53
37 38 55 54
38 39 56 55
39 40 57 56
40 41 58 57
41 42 59 58
42 43 60 59
43 44 61 60
44 45 62 61
45 46 63 62
46 47 64 63
47 48 65 64
48 49 66 65
49 50 67 66
50 51 68 67
52 53 70 69
53 54 71 70
54 55 72 71
55 56 73 72
56 57 74 73
57 58 75 74
58 59 76 75
59 60 77 76
60 61 78 77
61 62 79 78
62 63 80 79
63 64 81 80
64 65 82 81
65 66 83 82
66 67 84 83
67 68 85 84
69 70 87 86
70 71 88 87
71 72 89 88
72 73 90 89
73 74 91 90
74 75 92 91
75 76 93 92
76 77 94 93
77 78 95 94
78 79 96 95
79 80 97 96
80 81 98 97
81 82 99 98
82 83 100 99
83 84 101 100
84 85 102 101
86 87 104 103
87 88 105 104
88 89 106 105
89 90 107 106
90 91 108 107
91 92 109 108
92 93 110 109
93 94 111 110
94 95 112 111
95 96 113 112
96 97 114 113
97 98 115 114
98 99 116 115
99 100 117 116
100 101 118 117
101 102 119 118
103 104 121 120
104 105 122 121
105 106 123 122
106 107 124 123
107 108 125 124
108 109 126 125
109 110 127 126
110 111 128 127
111 112 129 128
112 113 130 129
113 114 131 130
114 115 132 131
115 116 133 132
116 117 134 133
117 118 135 134
118 119 136 135
120 121 138 137
121 122 139 138
122 123 140 139
123 124 141 140
124 125 142 141
125 126 143 142
126 127 144 143
127 128 145 144
128 129 146 145
129 130 147 146
130 131 148 147
131 132 149 148
132 133 150 149
133 134 151 150
134 135 152 151
135 136 153 152
