TITLE = "Solution"
VARIABLES = x, y, u, v, psiu, psiv, t, stress
ZONE T="structure" N=153 E=128 F=FEBLOCK ET=QUADRILATERAL VARLOCATION=([7,8]=cellcentered)
0.000000e+00
1.250000e+01
2.500000e+01
3.750000e+01
5.000000e+01
6.250000e+01
7.500000e+01
8.750000e+01
1.000000e+02
1.125000e+02
1.250000e+02
1.375000e+02
1.500000e+02
1.625000e+02
1.750000e+02
1.875000e+02
2.000000e+02
0.000000e+00
1.250000e+01
2.500000e+01
3.750000e+01
5.000000e+01
6.250000e+01
7.500000e+01
8.750000e+01
1.000000e+02
1.125000e+02
1.250000e+02
1.375000e+02
1.500000e+02
1.625000e+02
1.750000e+02
1.875000e+02
2.000000e+02
0.000000e+00
1.250000e+01
2.500000e+01
3.750000e+01
5.000000e+01
6.250000e+01
7.500000e+01
8.750000e+01
1.000000e+02
1.125000e+02
1.250000e+02
1.375000e+02
1.500000e+02
1.625000e+02
1.750000e+02
1.875000e+02
2.000000e+02
0.000000e+00
1.250000e+01
2.500000e+01
3.750000e+01
5.000000e+01
6.250000e+01
7.500000e+01
8.750000e+01
1.000000e+02
1.125000e+02
1.250000e+02
1.375000e+02
1.500000e+02
1.625000e+02
1.750000e+02
1.875000e+02
2.000000e+02
0.000000e+00
1.250000e+01
2.500000e+01
3.750000e+01
5.000000e+01
6.250000e+01
7.500000e+01
8.750000e+01
1.000000e+02
1.125000e+02
1.250000e+02
1.375000e+02
1.500000e+02
1.625000e+02
1.750000e+02
1.875000e+02
2.000000e+02
0.000000e+00
1.250000e+01
2.500000e+01
3.750000e+01
5.000000e+01
6.250000e+01
7.500000e+01
8.750000e+01
1.000000e+02
1.125000e+02
1.250000e+02
1.375000e+02
1.500000e+02
1.625000e+02
1.750000e+02
1.875000e+02
2.000000e+02
0.000000e+00
1.250000e+01
2.500000e+01
3.750000e+01
5.000000e+01
6.250000e+01
7.500000e+01
8.750000e+01
1.000000e+02
1.125000e+02
1.250000e+02
1.375000e+02
1.500000e+02
1.625000e+02
1.750000e+02
1.875000e+02
2.000000e+02
0.000000e+00
1.250000e+01
2.500000e+01
3.750000e+01
5.000000e+01
6.250000e+01
7.500000e+01
8.750000e+01
1.000000e+02
1.125000e+02
1.250000e+02
1.375000e+02
1.500000e+02
1.625000e+02
1.750000e+02
1.875000e+02
2.000000e+02
0.000000e+00
1.250000e+01
2.500000e+01
3.750000e+01
5.000000e+01
6.250000e+01
7.500000e+01
8.750000e+01
1.000000e+02
1.125000e+02
1.250000e+02
1.375000e+02
1.500000e+02
1.625000e+02
1.750000e+02
1.875000e+02
2.000000e+02
0.000000e+00
0.000000e+00
0.000000e+00
0.000000e+00
0.000000e+00
0.000000e+00
0.000000e+00
0.000000e+00
0.000000e+00
0.000000e+00
0.000000e+00
0.000000e+00
0.000000e+00
0.000000e+00
0.000000e+00
0.000000e+00
0.000000e+00
1.250000e+01
1.250000e+01
1.250000e+01
1.250000e+01
1.250000e+01
1.250000e+01
1.250000e+01
1.250000e+01
1.250000e+01
1.250000e+01
1.250000e+01
1.250000e+01
1.250000e+01
1.250000e+01
1.250000e+01
1.250000e+01
1.250000e+01
2.500000e+01
2.500000e+01
2.500000e+01
2.500000e+01
2.500000e+01
2.500000e+01
2.500000e+01
2.500000e+01
2.500000e+01
2.500000e+01
2.500000e+01
2.500000e+01
2.500000e+01
2.500000e+01
2.500000e+01
2.500000e+01
2.500000e+01
3.750000e+01
3.750000e+01
3.750000e+01
3.750000e+01
3.750000e+01
3.750000e+01
3.750000e+01
3.750000e+01
3.750000e+01
3.750000e+01
3.750000e+01
3.750000e+01
3.750000e+01
3.750000e+01
3.750000e+01
3.750000e+01
3.750000e+01
5.000000e+01
5.000000e+01
5.000000e+01
5.000000e+01
5.000000e+01
5.000000e+01
5.000000e+01
5.000000e+01
5.000000e+01
5.000000e+01
5.000000e+01
5.000000e+01
5.000000e+01
5.000000e+01
5.000000e+01
5.000000e+01
5.000000e+01
6.250000e+01
6.250000e+01
6.250000e+01
6.250000e+01
6.250000e+01
6.250000e+01
6.250000e+01
6.250000e+01
6.250000e+01
6.250000e+01
6.250000e+01
6.250000e+01
6.250000e+01
6.250000e+01
6.250000e+01
6.250000e+01
6.250000e+01
7.500000e+01
7.500000e+01
7.500000e+01
7.500000e+01
7.500000e+01
7.500000e+01
7.500000e+01
7.500000e+01
7.500000e+01
7.500000e+01
7.500000e+01
7.500000e+01
7.500000e+01
7.500000e+01
7.500000e+01
7.500000e+01
7.500000e+01
8.750000e+01
8.750000e+01
8.750000e+01
8.750000e+01
8.750000e+01
8.750000e+01
8.750000e+01
8.750000e+01
8.750000e+01
8.750000e+01
8.750000e+01
8.750000e+01
8.750000e+01
8.750000e+01
8.750000e+01
8.750000e+01
8.750000e+01
1.000000e+02
1.000000e+02
1.000000e+02
1.000000e+02
1.000000e+02
1.000000e+02
1.000000e+02
1.000000e+02
1.000000e+02
1.000000e+02
1.000000e+02
1.000000e+02
1.000000e+02
1.000000e+02
1.000000e+02
1.000000e+02
1.000000e+02
0.000000e+00
-8.057771e-01
-1.470494e+00
-2.110727e+00
-2.759375e+00
-3.399021e+00
-4.025931e+00
-4.638239e+00
-5.227938e+00
-5.784716e+00
-6.301049e+00
-6.776130e+00
-7.219320e+00
-7.653702e+00
-8.119533e+00
-8.664462e+00
-9.061214e+00
0.000000e+00
-4.557894e-01
-9.493429e-01
-1.430814e+00
-1.917605e+00
-2.397141e+00
-2.866414e+00
-3.324478e+00
-3.765559e+00
-4.181257e+00
-4.563753e+00
-4.907531e+00
-5.208804e+00
-5.459718e+00
-5.633768e+00
-5.672074e+00
-5.798093e+00
0.000000e+00
-2.666619e-01
-5.577619e-01
-8.744061e-01
-1.199199e+00
-1.520575e+00
-1.835315e+00
-2.140850e+00
-2.432064e+00
-2.701939e+00
-2.942467e+00
-3.144763e+00
-3.297649e+00
-3.385083e+00
-3.390516e+00
-3.360224e+00
-3.490511e+00
0.000000e+00
-1.225053e-01
-2.596215e-01
-4.133470e-01
-5.751443e-01
-7.366711e-01
-8.946805e-01
-1.046179e+00
-1.187195e+00
-1.312467e+00
-1.415386e+00
-1.488125e+00
-1.522488e+00
-1.514206e+00
-1.480492e+00
-1.488255e+00
-1.588084e+00
0.000000e+00
-4.190513e-04
-8.953372e-04
-1.354839e-03
-1.654652e-03
-1.500405e-03
-3.153792e-04
2.952799e-03
1.007112e-02
2.371433e-02
4.740451e-02
8.472242e-02
1.367713e-01
1.960643e-01
2.378440e-01
2.288271e-01
1.609461e-01
0.000000e+00
1.218043e-01
2.581033e-01
4.109977e-01
5.721572e-01
7.337056e-01
8.933004e-01
1.049592e+00
1.201365e+00
1.347589e+00
1.487407e+00
1.619410e+00
1.739422e+00
1.836977e+00
1.895173e+00
1.900808e+00
1.865844e+00
0.000000e+00
2.663264e-01
5.569863e-01
8.730874e-01
1.197278e+00
1.518155e+00
1.832810e+00
2.139155e+00
2.432750e+00
2.707605e+00
2.957373e+00
3.175865e+00
3.356527e+00
3.491602e+00
3.573240e+00
3.600001e+00
3.591888e+00
0.000000e+00
4.559015e-01
9.495101e-01
1.430967e+00
1.917605e+00
2.396735e+00
2.865105e+00
3.320975e+00
3.756657e+00
4.160309e+00
4.519133e+00
4.821679e+00
5.059376e+00
5.227863e+00
5.328826e+00
5.371955e+00
5.379908e+00
0.000000e+00
8.061174e-01
1.471403e+00
2.112395e+00
2.761987e+00
3.402705e+00
4.030519e+00
4.642238e+00
5.226232e+00
5.764995e+00
6.239096e+00
6.630150e+00
6.923574e+00
7.112487e+00
7.203994e+00
7.226422e+00
7.225892e+00
0.000000e+00
-4.935902e-01
-1.003153e+00
-1.677428e+00
-2.511872e+00
-3.508133e+00
-4.667058e+00
-5.985467e+00
-7.455922e+00
-9.068206e+00
-1.081066e+01
-1.267278e+01
-1.465024e+01
-1.675502e+01
-1.905006e+01
-2.173508e+01
-2.574589e+01
0.000000e+00
-3.083900e-01
-8.387967e-01
-1.508450e+00
-2.343023e+00
-3.342207e+00
-4.504840e+00
-5.828306e+00
-7.306478e+00
-8.929316e+00
-1.068433e+01
-1.255961e+01
-1.454937e+01
-1.666576e+01
-1.896459e+01
-2.163535e+01
-2.497870e+01
0.000000e+00
-2.437265e-01
-7.274736e-01
-1.391542e+00
-2.224005e+00
-3.224687e+00
-4.390635e+00
-5.719105e+00
-7.204584e+00
-8.837597e+00
-1.060588e+01
-1.249760e+01
-1.450732e+01
-1.664535e+01
-1.894948e+01
-2.146068e+01
-2.386639e+01
0.000000e+00
-2.267325e-01
-6.777699e-01
-1.325776e+00
-2.154643e+00
-3.155614e+00
-4.324582e+00
-5.658139e+00
-7.150943e+00
-8.794099e+00
-1.057575e+01
-1.248365e+01
-1.450924e+01
-1.665045e+01
-1.889940e+01
-2.117076e+01
-2.321499e+01
0.000000e+00
-2.245401e-01
-6.646669e-01
-1.305959e+00
-2.132509e+00
-3.134128e+00
-4.305457e+00
-5.643097e+00
-7.141964e+00
-8.793490e+00
-1.058546e+01
-1.250322e+01
-1.453085e+01
-1.664796e+01
-1.881078e+01
-2.092123e+01
-2.281389e+01
0.000000e+00
-2.265256e-01
-6.776805e-01
-1.326170e+00
-2.156074e+00
-3.159005e+00
-4.331468e+00
-5.670920e+00
-7.172924e+00
-8.828901e+00
-1.062543e+01
-1.254414e+01
-1.456085e+01
-1.664095e+01
-1.873034e+01
-2.074736e+01
-2.258534e+01
0.000000e+00
-2.433818e-01
-7.273063e-01
-1.392140e+00
-2.226299e+00
-3.230236e+00
-4.402034e+00
-5.740445e+00
-7.241529e+00
-8.896416e+00
-1.069034e+01
-1.260174e+01
-1.460050e+01
-1.664515e+01
-1.868136e+01
-2.064716e+01
-2.248365e+01
0.000000e+00
-3.080430e-01
-8.386124e-01
-1.509106e+00
-2.345602e+00
-3.348515e+00
-4.517864e+00
-5.852694e+00
-7.348581e+00
-8.996030e+00
-1.077953e+01
-1.267616e+01
-1.465361e+01
-1.666859e+01
-1.866893e+01
-2.060550e+01
-2.245989e+01
0.000000e+00
-4.933552e-01
-1.003082e+00
-1.678231e+00
-2.514648e+00
-3.514707e+00
-4.680346e+00
-6.009750e+00
-7.496629e+00
-9.130498e+00
-1.089563e+01
-1.276935e+01
-1.472004e+01
-1.670611e+01
-1.867926e+01
-2.059783e+01
-2.246036e+01


0.000000e+00
8.532292e-06
1.701358e-05
2.484663e-05
3.255218e-05
3.981072e-05
4.618028e-05
5.144845e-05
5.555605e-05
5.856502e-05
6.065042e-05
6.204820e-05
6.300496e-05
6.375877e-05
6.451695e-05
6.560857e-05
6.705815e-05
0.000000e+00
6.249151e-06
1.368056e-05
1.964747e-05
2.544313e-05
3.091737e-05
3.564981e-05
3.946741e-05
4.236076e-05
4.439900e-05
4.573167e-05
4.653866e-05
4.696216e-05
4.709563e-05
4.724185e-05
4.812398e-05
4.961908e-05
0.000000e+00
4.658373e-06
9.540373e-06
1.360842e-05
1.752424e-05
2.109421e-05
2.414360e-05
2.658725e-05
2.841809e-05
2.967560e-05
3.045006e-05
3.085389e-05
3.099429e-05
3.100568e-05
3.115078e-05
3.186749e-05
3.307091e-05
0.000000e+00
2.323457e-06
4.459200e-06
6.668951e-06
8.664250e-06
1.041013e-05
1.189886e-05
1.310823e-05
1.401787e-05
1.463614e-05
1.500066e-05
1.517346e-05
1.524169e-05
1.531929e-05
1.550475e-05
1.591962e-05
1.660168e-05
0.000000e+00
-4.677363e-09
-9.932505e-09
-1.564944e-08
-2.224290e-08
-3.099876e-08
-4.470457e-08
-6.725468e-08
-1.020066e-07
-1.492147e-07
-2.028145e-07
-2.458270e-07
-2.478071e-07
-1.806604e-07
-6.360829e-08
1.003603e-07
4.017701e-07
0.000000e+00
-2.331813e-06
-4.476383e-06
-6.696518e-06
-8.703607e-06
-1.046397e-05
-1.197304e-05
-1.321326e-05
-1.416892e-05
-1.485088e-05
-1.529362e-05
-1.554435e-05
-1.565255e-05
-1.567180e-05
-1.566681e-05
-1.564691e-05
-1.553746e-05
0.000000e+00
-4.662627e-06
-9.550973e-06
-1.362773e-05
-1.755568e-05
-2.114010e-05
-2.420199e-05
-2.664925e-05
-2.847207e-05
-2.971719e-05
-3.049134e-05
-3.092851e-05
-3.115433e-05
-3.126980e-05
-3.134139e-05
-3.137751e-05
-3.135061e-05
0.000000e+00
-6.249729e-06
-1.368443e-05
-1.965673e-05
-2.546310e-05
-3.095228e-05
-3.569361e-05
-3.949468e-05
-4.233249e-05
-4.428395e-05
-4.552504e-05
-4.626920e-05
-4.670078e-05
-4.695014e-05
-4.709461e-05
-4.716517e-05
-4.717606e-05
0.000000e+00
-8.535209e-06
-1.701584e-05
-2.484854e-05
-3.255684e-05
-3.982041e-05
-4.618669e-05
-5.142285e-05
-5.545358e-05
-5.834436e-05
-6.028782e-05
-6.152937e-05
-6.229109e-05
-6.273734e-05
-6.297276e-05
-6.306292e-05
-6.307812e-05
0.000000e+00
7.527794e-06
1.299691e-05
1.941073e-05
2.774991e-05
3.769683e-05
4.905761e-05
6.168392e-05
7.534957e-05
8.981968e-05
1.049022e-04
1.204488e-04
1.363820e-04
1.528450e-04
1.706771e-04
1.905105e-04
2.108694e-04
0.000000e+00
3.858811e-06
9.461140e-06
1.596004e-05
2.436866e-05
3.461178e-05
4.645978e-05
5.963228e-05
7.383517e-05
8.877915e-05
1.042336e-04
1.200443e-04
1.361458e-04
1.526137e-04
1.697915e-04
1.886241e-04
2.084039e-04
0.000000e+00
1.681165e-06
6.667987e-06
1.343113e-05
2.195222e-05
3.243151e-05
4.462511e-05
5.818531e-05
7.276798e-05
8.805455e-05
1.037889e-04
1.198081e-04
1.360381e-04
1.524262e-04
1.689092e-04
1.866295e-04
2.055228e-04
0.000000e+00
9.637162e-07
5.414298e-06
1.219800e-05
2.088203e-05
3.148744e-05
4.380708e-05
5.751420e-05
7.225597e-05
8.770055e-05
1.035765e-04
1.197011e-04
1.359619e-04
1.522352e-04
1.684105e-04
1.853287e-04
2.031584e-04
0.000000e+00
8.260921e-07
5.072801e-06
1.179324e-05
2.056388e-05
3.121468e-05
4.356740e-05
5.731545e-05
7.210749e-05
8.760477e-05
1.035265e-04
1.196730e-04
1.359086e-04
1.521165e-04
1.682450e-04
1.847380e-04
2.016278e-04
0.000000e+00
9.647713e-07
5.414090e-06
1.219503e-05
2.087613e-05
3.148224e-05
4.381038e-05
5.753511e-05
7.230014e-05
8.776636e-05
1.036511e-04
1.197519e-04
1.359341e-04
1.521055e-04
1.682494e-04
1.845186e-04
2.008175e-04
0.000000e+00
1.682597e-06
6.667762e-06
1.342705e-05
2.194400e-05
3.242549e-05
4.463492e-05
5.822723e-05
7.285278e-05
8.818116e-05
1.039388e-04
1.199323e-04
1.360338e-04
1.521627e-04
1.682877e-04
1.844245e-04
2.004604e-04
0.000000e+00
3.861229e-06
9.463527e-06
1.596035e-05
2.436740e-05
3.461486e-05
4.647896e-05
5.968193e-05
7.392696e-05
8.891647e-05
1.044042e-04
1.202046e-04
1.361821e-04
1.522419e-04
1.683241e-04
1.843838e-04
2.003462e-04
0.000000e+00
7.532363e-06
1.300271e-05
1.941745e-05
2.775917e-05
3.771199e-05
4.908234e-05
6.172221e-05
7.540865e-05
8.990862e-05
1.050198e-04
1.205615e-04
1.363764e-04
1.523410e-04
1.683665e-04
1.843807e-04
2.003296e-04


2.135891e+00
2.107512e+00
2.242286e+00
2.466504e+00
2.660962e+00
2.881676e+00
3.134026e+00
3.384525e+00
3.604368e+00
3.777786e+00
3.900564e+00
3.975406e+00
3.994188e+00
3.907230e+00
3.723163e+00
3.581262e+00
2.591037e+00
2.560918e+00
2.652731e+00
2.818830e+00
2.965356e+00
3.135041e+00
3.331720e+00
3.528283e+00
3.701903e+00
3.839467e+00
3.936694e+00
3.994630e+00
4.003010e+00
3.910883e+00
3.730700e+00
3.593641e+00
3.294878e+00
3.269030e+00
3.308553e+00
3.386848e+00
3.457591e+00
3.546493e+00
3.651840e+00
3.758978e+00
3.855430e+00
3.932865e+00
3.987517e+00
4.018803e+00
4.017311e+00
3.942010e+00
3.800512e+00
3.696570e+00
3.758238e+00
3.740380e+00
3.745544e+00
3.764296e+00
3.788600e+00
3.823037e+00
3.865254e+00
3.910049e+00
3.952246e+00
3.987226e+00
4.012299e+00
4.026835e+00
4.025684e+00
3.986212e+00
3.910721e+00
3.855321e+00
3.758192e+00
3.740271e+00
3.745277e+00
3.763726e+00
3.787549e+00
3.821317e+00
3.862642e+00
3.906249e+00
3.946988e+00
3.980596e+00
4.005162e+00
4.021495e+00
4.029159e+00
4.020301e+00
3.995207e+00
3.975951e+00
3.294546e+00
3.268483e+00
3.307538e+00
3.385061e+00
3.454838e+00
3.542821e+00
3.647299e+00
3.753158e+00
3.847456e+00
3.922240e+00
3.975487e+00
4.010523e+00
4.032168e+00
4.041968e+00
4.042316e+00
4.040366e+00
2.590131e+00
2.559652e+00
2.650776e+00
2.815996e+00
2.961983e+00
3.132288e+00
3.330902e+00
3.529631e+00
3.704028e+00
3.840421e+00
3.936134e+00
3.997380e+00
4.034033e+00
4.054407e+00
4.064368e+00
4.068159e+00
2.134529e+00
2.105715e+00
2.239746e+00
2.463199e+00
2.657745e+00
2.880648e+00
3.137581e+00
3.393529e+00
3.617237e+00
3.791535e+00
3.913324e+00
3.990477e+00
4.035614e+00
4.060334e+00
4.072718e+00
4.077824e+00


-4.030763e-01
-1.806170e-01
-1.025840e-01
-1.302339e-01
-9.961586e-02
-5.636137e-02
-8.310459e-03
6.396948e-02
1.663628e-01
2.882478e-01
4.111096e-01
5.167869e-01
5.946524e-01
6.444512e-01
6.955205e-01
-2.658550e-01
5.172482e-01
4.059594e-01
3.909121e-01
3.690540e-01
3.789734e-01
3.970903e-01
4.198039e-01
4.581297e-01
5.177347e-01
5.965606e-01
6.879762e-01
7.840867e-01
8.761713e-01
9.415006e-01
8.182828e-01
-8.861750e-01
8.335033e-01
7.534578e-01
6.931717e-01
6.673142e-01
6.617546e-01
6.624619e-01
6.678795e-01
6.818368e-01
7.075900e-01
7.453082e-01
7.902771e-01
8.301973e-01
8.396920e-01
7.669945e-01
5.155923e-01
6.826820e-02
9.455779e-01
8.836260e-01
8.320062e-01
8.039828e-01
7.914357e-01
7.836305e-01
7.766398e-01
7.702710e-01
7.656725e-01
7.626481e-01
7.568446e-01
7.377656e-01
6.906680e-01
6.138906e-01
5.591467e-01
5.517861e-01
9.459753e-01
8.841430e-01
8.325056e-01
8.040292e-01
7.902091e-01
7.796955e-01
7.675381e-01
7.522062e-01
7.336298e-01
7.116107e-01
6.852127e-01
6.546013e-01
6.279526e-01
6.325155e-01
7.000637e-01
8.130395e-01
8.343995e-01
7.546643e-01
6.944328e-01
6.678318e-01
6.599369e-01
6.554130e-01
6.505962e-01
6.465406e-01
6.437779e-01
6.416965e-01
6.406937e-01
6.463808e-01
6.733104e-01
7.383117e-01
8.383114e-01
9.415783e-01
5.178339e-01
4.068093e-01
3.918654e-01
3.698800e-01
3.788813e-01
3.945646e-01
4.125879e-01
4.432665e-01
4.913005e-01
5.533530e-01
6.226254e-01
6.949644e-01
7.723895e-01
8.577207e-01
9.387561e-01
9.898197e-01
-4.037506e-01
-1.818103e-01
-1.039939e-01
-1.318200e-01
-1.011213e-01
-5.701611e-02
-4.730237e-03
8.034160e-02
2.098278e-01
3.760389e-01
5.579768e-01
7.289811e-01
8.645730e-01
9.507237e-01
9.903534e-01
9.998001e-01
1 2 19 18
2 3 20 19
3 4 21 20
4 5 22 21
5 6 23 22
6 7 24 23
7 8 25 24
8 9 26 25
9 10 27 26
10 11 28 27
11 12 29 28
12 13 30 29
13 14 31 30
14 15 32 31
15 16 33 32
16 17 34 33
18 19 36 35
19 20 37 36
20 21 38 37
21 22 39 38
22 23 40 39
23 24 41 40
24 25 42 41
25 26 43 42
26 27 44 43
27 28 45 44
28 29 46 45
29 30 47 46
30 31 48 47
31 32 49 48
32 33 50 49
33 34 51 50
35 36 53 52
36 37 54 53
37 38 55 54
38 39 56 55
39 40 57 56
40 41 58 57
41 42 59 58
42 43 60 59
43 44 61 60
44 45 62 61
45 46 63 62
46 47 64 63
47 48 65 64
48 49 66 65
49 50 67 66
50 51 68 67
52 53 70 69
53 54 71 70
54 55 72 71
55 56 73 72
56 57 74 73
57 58 75 74
58 59 76 75
59 60 77 76
60 61 78 77
61 62 79 78
62 63 80 79
63 64 81 80
64 65 82 81
65 66 83 82
66 67 84 83
67 68 85 84
69 70 87 86
70 71 88 87
71 72 89 88
72 73 90 89
73 74 91 90
74 75 92 91
75 76 93 92
76 77 94 93
77 78 95 94
78 79 96 95
79 80 97 96
80 81 98 97
81 82 99 98
82 83 100 99
83 84 101 100
84 85 102 101
86 87 104 103
87 88 105 104
88 89 106 105
89 90 107 106
90 91 108 107
91 92 109 108
92 93 110 109
93 94 111 110
94 95 112 111
95 96 113 112
96 97 114 113
97 98 115 114
98 99 116 115
99 100 117 116
100 101 118 117
101 102 119 118
103 104 121 120
104 105 122 121
105 106 123 122
106 107 124 123
107 108 125 124
108 109 126 125
109 110 127 126
110 111 128 127
111 112 129 128
112 113 130 129
113 114 131 130
114 115 132 131
115 116 133 132
116 117 134 133
117 118 135 134
118 119 136 135
120 121 138 137
121 122 139 138
122 123 140 139
123 124 141 140
124 125 142 141
125 126 143 142
126 127 144 143
127 128 145 144
128 129 146 145
129 130 147 146
130 131 148 147
131 132 149 148
132 133 150 149
133 134 151 150
134 135 152 151
135 136 153 152
