TITLE = "Solution"
VARIABLES = x, y, u, v, psiu, psiv, t, stress
ZONE T="structure" N=153 E=128 F=FEBLOCK ET=QUADRILATERAL VARLOCATION=([7,8]=cellcentered)
0.000000e+00
1.250000e+01
2.500000e+01
3.750000e+01
5.000000e+01
6.250000e+01
7.500000e+01
8.750000e+01
1.000000e+02
1.125000e+02
1.250000e+02
1.375000e+02
1.500000e+02
1.625000e+02
1.750000e+02
1.875000e+02
2.000000e+02
0.000000e+00
1.250000e+01
2.500000e+01
3.750000e+01
5.000000e+01
6.250000e+01
7.500000e+01
8.750000e+01
1.000000e+02
1.125000e+02
1.250000e+02
1.375000e+02
1.500000e+02
1.625000e+02
1.750000e+02
1.875000e+02
2.000000e+02
0.000000e+00
1.250000e+01
2.500000e+01
3.750000e+01
5.000000e+01
6.250000e+01
7.500000e+01
8.750000e+01
1.000000e+02
1.125000e+02
1.250000e+02
1.375000e+02
1.500000e+02
1.625000e+02
1.750000e+02
1.875000e+02
2.000000e+02
0.000000e+00
1.250000e+01
2.500000e+01
3.750000e+01
5.000000e+01
6.250000e+01
7.500000e+01
8.750000e+01
1.000000e+02
1.125000e+02
1.250000e+02
1.375000e+02
1.500000e+02
1.625000e+02
1.750000e+02
1.875000e+02
2.000000e+02
0.000000e+00
1.250000e+01
2.500000e+01
3.750000e+01
5.000000e+01
6.250000e+01
7.500000e+01
8.750000e+01
1.000000e+02
1.125000e+02
1.250000e+02
1.375000e+02
1.500000e+02
1.625000e+02
1.750000e+02
1.875000e+02
2.000000e+02
0.000000e+00
1.250000e+01
2.500000e+01
3.750000e+01
5.000000e+01
6.250000e+01
7.500000e+01
8.750000e+01
1.000000e+02
1.125000e+02
1.250000e+02
1.375000e+02
1.500000e+02
1.625000e+02
1.750000e+02
1.875000e+02
2.000000e+02
0.000000e+00
1.250000e+01
2.500000e+01
3.750000e+01
5.000000e+01
6.250000e+01
7.500000e+01
8.750000e+01
1.000000e+02
1.125000e+02
1.250000e+02
1.375000e+02
1.500000e+02
1.625000e+02
1.750000e+02
1.875000e+02
2.000000e+02
0.000000e+00
1.250000e+01
2.500000e+01
3.750000e+01
5.000000e+01
6.250000e+01
7.500000e+01
8.750000e+01
1.000000e+02
1.125000e+02
1.250000e+02
1.375000e+02
1.500000e+02
1.625000e+02
1.750000e+02
1.875000e+02
2.000000e+02
0.000000e+00
1.250000e+01
2.500000e+01
3.750000e+01
5.000000e+01
6.250000e+01
7.500000e+01
8.750000e+01
1.000000e+02
1.125000e+02
1.250000e+02
1.375000e+02
1.500000e+02
1.625000e+02
1.750000e+02
1.875000e+02
2.000000e+02
0.000000e+00
0.000000e+00
0.000000e+00
0.000000e+00
0.000000e+00
0.000000e+00
0.000000e+00
0.000000e+00
0.000000e+00
0.000000e+00
0.000000e+00
0.000000e+00
0.000000e+00
0.000000e+00
0.000000e+00
0.000000e+00
0.000000e+00
1.250000e+01
1.250000e+01
1.250000e+01
1.250000e+01
1.250000e+01
1.250000e+01
1.250000e+01
1.250000e+01
1.250000e+01
1.250000e+01
1.250000e+01
1.250000e+01
1.250000e+01
1.250000e+01
1.250000e+01
1.250000e+01
1.250000e+01
2.500000e+01
2.500000e+01
2.500000e+01
2.500000e+01
2.500000e+01
2.500000e+01
2.500000e+01
2.500000e+01
2.500000e+01
2.500000e+01
2.500000e+01
2.500000e+01
2.500000e+01
2.500000e+01
2.500000e+01
2.500000e+01
2.500000e+01
3.750000e+01
3.750000e+01
3.750000e+01
3.750000e+01
3.750000e+01
3.750000e+01
3.750000e+01
3.750000e+01
3.750000e+01
3.750000e+01
3.750000e+01
3.750000e+01
3.750000e+01
3.750000e+01
3.750000e+01
3.750000e+01
3.750000e+01
5.000000e+01
5.000000e+01
5.000000e+01
5.000000e+01
5.000000e+01
5.000000e+01
5.000000e+01
5.000000e+01
5.000000e+01
5.000000e+01
5.000000e+01
5.000000e+01
5.000000e+01
5.000000e+01
5.000000e+01
5.000000e+01
5.000000e+01
6.250000e+01
6.250000e+01
6.250000e+01
6.250000e+01
6.250000e+01
6.250000e+01
6.250000e+01
6.250000e+01
6.250000e+01
6.250000e+01
6.250000e+01
6.250000e+01
6.250000e+01
6.250000e+01
6.250000e+01
6.250000e+01
6.250000e+01
7.500000e+01
7.500000e+01
7.500000e+01
7.500000e+01
7.500000e+01
7.500000e+01
7.500000e+01
7.500000e+01
7.500000e+01
7.500000e+01
7.500000e+01
7.500000e+01
7.500000e+01
7.500000e+01
7.500000e+01
7.500000e+01
7.500000e+01
8.750000e+01
8.750000e+01
8.750000e+01
8.750000e+01
8.750000e+01
8.750000e+01
8.750000e+01
8.750000e+01
8.750000e+01
8.750000e+01
8.750000e+01
8.750000e+01
8.750000e+01
8.750000e+01
8.750000e+01
8.750000e+01
8.750000e+01
1.000000e+02
1.000000e+02
1.000000e+02
1.000000e+02
1.000000e+02
1.000000e+02
1.000000e+02
1.000000e+02
1.000000e+02
1.000000e+02
1.000000e+02
1.000000e+02
1.000000e+02
1.000000e+02
1.000000e+02
1.000000e+02
1.000000e+02
0.000000e+00
-9.032509e-01
-1.589457e+00
-2.282720e+00
-2.970921e+00
-3.630179e+00
-4.301090e+00
-4.971157e+00
-5.632411e+00
-6.294176e+00
-6.962409e+00
-7.647912e+00
-8.352734e+00
-9.064329e+00
-9.774397e+00
-1.045013e+01
-1.089275e+01
0.000000e+00
-4.546171e-01
-9.415368e-01
-1.442742e+00
-1.959496e+00
-2.452822e+00
-2.954408e+00
-3.457355e+00
-3.952440e+00
-4.445406e+00
-4.938229e+00
-5.432867e+00
-5.920488e+00
-6.364485e+00
-6.677204e+00
-6.754382e+00
-6.915671e+00
0.000000e+00
-2.159141e-01
-4.718252e-01
-7.844834e-01
-1.122976e+00
-1.454734e+00
-1.795177e+00
-2.135691e+00
-2.470712e+00
-2.800481e+00
-3.119306e+00
-3.416784e+00
-3.671252e+00
-3.843447e+00
-3.886287e+00
-3.860955e+00
-4.014118e+00
0.000000e+00
-9.309813e-02
-2.012124e-01
-3.458173e-01
-5.023676e-01
-6.698922e-01
-8.407027e-01
-1.009452e+00
-1.173930e+00
-1.328991e+00
-1.465771e+00
-1.570370e+00
-1.624190e+00
-1.611383e+00
-1.551082e+00
-1.551009e+00
-1.681213e+00
0.000000e+00
-1.228569e-03
-2.437209e-03
-3.366840e-03
-3.601546e-03
-2.491182e-03
1.024742e-03
8.739012e-03
2.313208e-02
4.779078e-02
8.860447e-02
1.532499e-01
2.466271e-01
3.597677e-01
4.498748e-01
4.541342e-01
3.523187e-01
0.000000e+00
9.099076e-02
1.970682e-01
3.398913e-01
4.957198e-01
6.645923e-01
8.407555e-01
1.021735e+00
1.209316e+00
1.404826e+00
1.608709e+00
1.817988e+00
2.022744e+00
2.200623e+00
2.315299e+00
2.335710e+00
2.278203e+00
0.000000e+00
2.148649e-01
4.696446e-01
7.811817e-01
1.118623e+00
1.449960e+00
1.791982e+00
2.136861e+00
2.479835e+00
2.825996e+00
3.174387e+00
3.512098e+00
3.814420e+00
4.052833e+00
4.202325e+00
4.253340e+00
4.239907e+00
0.000000e+00
4.547010e-01
9.414244e-01
1.442453e+00
1.958573e+00
2.450285e+00
2.950225e+00
3.449957e+00
3.936465e+00
4.418793e+00
4.899482e+00
5.357291e+00
5.750626e+00
6.043645e+00
6.223536e+00
6.301154e+00
6.315603e+00
0.000000e+00
9.042610e-01
1.591394e+00
2.286022e+00
2.975401e+00
3.634449e+00
4.304636e+00
4.970778e+00
5.618749e+00
6.260456e+00
6.895853e+00
7.488265e+00
7.972670e+00
8.298469e+00
8.458976e+00
8.497948e+00
8.496626e+00
0.000000e+00
-5.603988e-01
-1.191893e+00
-2.031297e+00
-3.039453e+00
-4.214629e+00
-5.568783e+00
-7.095482e+00
-8.794536e+00
-1.066961e+01
-1.272312e+01
-1.496069e+01
-1.738681e+01
-2.000557e+01
-2.286023e+01
-2.615765e+01
-3.101167e+01
0.000000e+00
-3.625836e-01
-1.024189e+00
-1.851248e+00
-2.864517e+00
-4.040960e+00
-5.393164e+00
-6.921654e+00
-8.622507e+00
-1.049807e+01
-1.255092e+01
-1.478748e+01
-1.721731e+01
-1.985529e+01
-2.274581e+01
-2.605706e+01
-3.006786e+01
0.000000e+00
-3.146137e-01
-9.182383e-01
-1.736891e+00
-2.742704e+00
-3.917860e+00
-5.270054e+00
-6.799725e+00
-8.503639e+00
-1.038387e+01
-1.244391e+01
-1.469186e+01
-1.714057e+01
-1.981251e+01
-2.273684e+01
-2.587953e+01
-2.883407e+01
0.000000e+00
-3.318533e-01
-8.906945e-01
-1.685871e+00
-2.675634e+00
-3.847745e+00
-5.200682e+00
-6.732278e+00
-8.441509e+00
-1.033099e+01
-1.240581e+01
-1.467351e+01
-1.714228e+01
-1.982022e+01
-2.268329e+01
-2.554803e+01
-2.805196e+01
0.000000e+00
-3.406298e-01
-8.919767e-01
-1.673154e+00
-2.657866e+00
-3.828692e+00
-5.184129e+00
-6.719940e+00
-8.435495e+00
-1.033465e+01
-1.242391e+01
-1.470744e+01
-1.718065e+01
-1.982259e+01
-2.255654e+01
-2.519958e+01
-2.746495e+01
0.000000e+00
-3.318053e-01
-8.914191e-01
-1.688374e+00
-2.681188e+00
-3.857624e+00
-5.217301e+00
-6.758660e+00
-8.479373e+00
-1.038369e+01
-1.248009e+01
-1.476889e+01
-1.723018e+01
-1.981480e+01
-2.242731e+01
-2.491550e+01
-2.708073e+01
0.000000e+00
-3.145703e-01
-9.194273e-01
-1.740876e+00
-2.751591e+00
-3.933893e+00
-5.297128e+00
-6.842791e+00
-8.565823e+00
-1.047083e+01
-1.256704e+01
-1.485173e+01
-1.729236e+01
-1.982218e+01
-2.234347e+01
-2.474006e+01
-2.690220e+01
0.000000e+00
-3.625747e-01
-1.025493e+00
-1.855569e+00
-2.874229e+00
-4.058808e+00
-5.423393e+00
-6.969422e+00
-8.691892e+00
-1.059597e+01
-1.268877e+01
-1.496275e+01
-1.737815e+01
-1.986217e+01
-2.232128e+01
-2.466540e+01
-2.686080e+01
0.000000e+00
-5.605869e-01
-1.193393e+00
-2.035872e+00
-3.049256e+00
-4.232568e+00
-5.599020e+00
-7.141997e+00
-8.861340e+00
-1.076445e+01
-1.285253e+01
-1.510882e+01
-1.748971e+01
-1.992751e+01
-2.233935e+01
-2.465145e+01
-2.686201e+01


0.000000e+00
1.359633e-05
2.408104e-05
3.558919e-05
4.968036e-05
6.267534e-05
7.525946e-05
8.831341e-05
1.007916e-04
1.127054e-04
1.245717e-04
1.354113e-04
1.433320e-04
1.484811e-04
1.521235e-04
1.555547e-04
1.594898e-04
0.000000e+00
1.001867e-05
1.933232e-05
2.783035e-05
3.910284e-05
4.925002e-05
5.843306e-05
6.828240e-05
7.768436e-05
8.635602e-05
9.495397e-05
1.023341e-04
1.065186e-04
1.074028e-04
1.074169e-04
1.102495e-04
1.148187e-04
0.000000e+00
7.956457e-06
1.448065e-05
2.025884e-05
2.796639e-05
3.467332e-05
4.070471e-05
4.712024e-05
5.306861e-05
5.833677e-05
6.313040e-05
6.668913e-05
6.813615e-05
6.780617e-05
6.778875e-05
7.051788e-05
7.510390e-05
0.000000e+00
4.123988e-06
6.862265e-06
1.041702e-05
1.396134e-05
1.706256e-05
2.023364e-05
2.324550e-05
2.590260e-05
2.816596e-05
2.980271e-05
3.068206e-05
3.091447e-05
3.112708e-05
3.196477e-05
3.447987e-05
3.838432e-05
0.000000e+00
-3.013072e-08
-6.722877e-08
-1.086929e-07
-1.561258e-07
-2.072638e-07
-2.653547e-07
-3.494613e-07
-4.878672e-07
-7.624294e-07
-1.300044e-06
-2.018372e-06
-2.592185e-06
-2.562124e-06
-1.690029e-06
-2.488355e-07
1.835679e-06
0.000000e+00
-4.176270e-06
-6.972365e-06
-1.060711e-05
-1.423211e-05
-1.741125e-05
-2.068253e-05
-2.378167e-05
-2.652565e-05
-2.906263e-05
-3.125124e-05
-3.297974e-05
-3.418215e-05
-3.471466e-05
-3.491294e-05
-3.493460e-05
-3.433710e-05
0.000000e+00
-7.973953e-06
-1.453716e-05
-2.037371e-05
-2.813161e-05
-3.491816e-05
-4.103854e-05
-4.741370e-05
-5.331095e-05
-5.856209e-05
-6.288724e-05
-6.563358e-05
-6.713694e-05
-6.810990e-05
-6.882933e-05
-6.931946e-05
-6.934908e-05
0.000000e+00
-1.000745e-05
-1.932770e-05
-2.784097e-05
-3.910796e-05
-4.929070e-05
-5.853331e-05
-6.827249e-05
-7.764406e-05
-8.647420e-05
-9.419027e-05
-9.923052e-05
-1.017746e-04
-1.031975e-04
-1.040711e-04
-1.045139e-04
-1.046136e-04
0.000000e+00
-1.358573e-05
-2.404081e-05
-3.550957e-05
-4.952645e-05
-6.244508e-05
-7.497176e-05
-8.785705e-05
-1.002410e-04
-1.123613e-04
-1.235657e-04
-1.318293e-04
-1.367682e-04
-1.392729e-04
-1.402805e-04
-1.405128e-04
-1.405149e-04
0.000000e+00
1.149261e-05
1.901684e-05
2.980287e-05
4.399853e-05
5.989668e-05
7.950160e-05
1.029694e-04
1.292349e-04
1.587190e-04
1.914470e-04
2.262179e-04
2.624286e-04
3.015323e-04
3.471983e-04
3.997975e-04
4.528881e-04
0.000000e+00
6.480013e-06
1.468508e-05
2.417610e-05
3.785189e-05
5.430781e-05
7.389369e-05
9.728316e-05
1.238884e-04
1.535713e-04
1.865555e-04
2.224074e-04
2.603404e-04
3.004570e-04
3.442198e-04
3.942927e-04
4.458542e-04
0.000000e+00
3.160215e-06
1.070339e-05
1.991827e-05
3.306980e-05
4.997785e-05
6.984322e-05
9.321325e-05
1.201260e-04
1.501649e-04
1.835167e-04
2.201715e-04
2.593048e-04
2.997861e-04
3.403796e-04
3.867262e-04
4.362276e-04
0.000000e+00
1.946739e-06
8.635053e-06
1.805003e-05
3.116161e-05
4.810823e-05
6.816728e-05
9.166957e-05
1.187310e-04
1.490745e-04
1.826991e-04
2.194640e-04
2.587741e-04
2.988744e-04
3.373041e-04
3.794191e-04
4.254030e-04
0.000000e+00
1.622309e-06
8.013620e-06
1.746031e-05
3.067016e-05
4.751429e-05
6.764016e-05
9.124069e-05
1.183652e-04
1.489195e-04
1.827498e-04
2.194531e-04
2.584977e-04
2.983880e-04
3.361830e-04
3.751009e-04
4.167047e-04
0.000000e+00
1.963487e-06
8.649914e-06
1.805743e-05
3.114022e-05
4.803964e-05
6.808366e-05
9.157617e-05
1.186645e-04
1.493209e-04
1.834059e-04
2.202221e-04
2.590110e-04
2.983234e-04
3.364745e-04
3.740657e-04
4.118802e-04
0.000000e+00
3.185704e-06
1.072978e-05
1.993693e-05
3.304112e-05
4.987174e-05
6.970753e-05
9.302762e-05
1.199752e-04
1.505919e-04
1.848260e-04
2.217063e-04
2.600488e-04
2.987187e-04
3.366215e-04
3.737290e-04
4.099932e-04
0.000000e+00
6.509821e-06
1.472572e-05
2.420884e-05
3.784338e-05
5.422302e-05
7.373690e-05
9.705136e-05
1.237302e-04
1.539692e-04
1.876981e-04
2.237346e-04
2.611293e-04
2.991224e-04
3.366968e-04
3.735258e-04
4.095861e-04
0.000000e+00
1.152229e-05
1.906339e-05
2.984217e-05
4.400082e-05
5.984349e-05
7.934873e-05
1.027125e-04
1.291471e-04
1.590573e-04
1.918209e-04
2.262299e-04
2.623120e-04
2.995664e-04
3.368211e-04
3.734786e-04
4.095740e-04


2.803808e+00
2.676275e+00
2.742205e+00
2.753879e+00
2.793713e+00
3.056426e+00
3.320650e+00
3.639375e+00
4.094940e+00
4.705515e+00
5.506590e+00
6.338754e+00
6.881967e+00
6.738101e+00
5.753411e+00
4.821109e+00
4.413800e+00
4.288375e+00
4.278847e+00
4.253005e+00
4.245258e+00
4.412465e+00
4.583787e+00
4.789984e+00
5.096789e+00
5.514562e+00
6.066199e+00
6.642514e+00
6.976839e+00
6.619784e+00
5.441685e+00
4.320270e+00
6.323463e+00
6.253717e+00
6.224876e+00
6.165953e+00
6.138233e+00
6.196663e+00
6.246149e+00
6.310096e+00
6.414557e+00
6.558646e+00
6.759945e+00
6.978274e+00
7.062536e+00
6.634636e+00
5.551006e+00
4.616000e+00
7.268658e+00
7.238639e+00
7.216167e+00
7.164269e+00
7.143195e+00
7.143437e+00
7.130266e+00
7.112107e+00
7.090289e+00
7.061339e+00
7.039692e+00
7.039228e+00
7.023433e+00
6.779227e+00
6.215627e+00
5.738768e+00
7.268083e+00
7.237312e+00
7.213753e+00
7.160147e+00
7.136382e+00
7.132893e+00
7.112098e+00
7.077518e+00
7.033802e+00
6.985637e+00
6.945224e+00
6.936216e+00
6.971506e+00
6.964012e+00
6.849922e+00
6.734495e+00
6.321299e+00
6.249313e+00
6.216841e+00
6.152313e+00
6.116756e+00
6.166605e+00
6.197005e+00
6.222978e+00
6.300638e+00
6.449750e+00
6.643947e+00
6.836613e+00
7.015657e+00
7.162824e+00
7.246779e+00
7.278981e+00
4.411044e+00
4.282709e+00
4.269210e+00
4.236600e+00
4.220986e+00
4.384636e+00
4.542561e+00
4.728369e+00
5.081733e+00
5.623159e+00
6.237791e+00
6.754070e+00
7.105776e+00
7.328038e+00
7.456174e+00
7.511702e+00
2.802173e+00
2.672574e+00
2.736401e+00
2.744280e+00
2.780993e+00
3.050829e+00
3.320037e+00
3.652819e+00
4.233596e+00
5.077366e+00
5.993113e+00
6.722095e+00
7.173306e+00
7.418571e+00
7.541796e+00
7.592422e+00


-6.206842e-01
-2.200322e-01
-2.504379e-01
-2.729919e-01
-1.687336e-01
-2.093094e-01
-2.121712e-01
-1.807443e-01
-1.793227e-01
-1.933478e-01
-2.307145e-01
-2.488121e-01
-1.579829e-01
1.027227e-01
4.961001e-01
-6.858523e-01
5.538354e-01
4.151211e-01
3.263324e-01
2.628923e-01
3.044711e-01
2.686964e-01
2.539736e-01
2.624898e-01
2.615101e-01
2.697967e-01
2.999417e-01
3.870932e-01
5.685325e-01
7.970733e-01
7.410100e-01
-1.215593e+00
8.137761e-01
6.615872e-01
5.089571e-01
4.526107e-01
4.422127e-01
4.142594e-01
4.052799e-01
4.072060e-01
4.124118e-01
4.311898e-01
4.668097e-01
5.160048e-01
5.354138e-01
4.223965e-01
1.576726e-01
-3.179795e-01
8.621227e-01
7.302044e-01
5.682576e-01
4.828675e-01
4.412263e-01
4.203905e-01
4.146376e-01
4.157531e-01
4.153972e-01
4.040719e-01
3.694757e-01
2.926781e-01
1.416391e-01
-5.453310e-02
-5.968719e-02
4.677319e-02
8.630029e-01
7.312163e-01
5.689128e-01
4.813759e-01
4.356791e-01
4.068428e-01
3.880891e-01
3.707303e-01
3.409077e-01
2.821079e-01
1.856490e-01
5.725271e-02
-7.199297e-02
-9.368484e-02
1.156212e-01
4.699530e-01
8.158606e-01
6.641074e-01
5.109840e-01
4.511531e-01
4.334417e-01
3.898830e-01
3.551006e-01
3.195518e-01
2.591178e-01
1.704284e-01
7.096787e-02
2.067906e-03
1.929513e-02
1.829761e-01
4.867368e-01
8.169987e-01
5.553064e-01
4.169923e-01
3.276367e-01
2.633319e-01
3.024954e-01
2.576472e-01
2.299609e-01
2.228602e-01
1.781314e-01
1.084491e-01
7.282691e-02
1.350443e-01
3.032510e-01
5.477291e-01
8.026045e-01
9.676173e-01
-6.228892e-01
-2.215578e-01
-2.530131e-01
-2.744290e-01
-1.659152e-01
-2.063062e-01
-2.010410e-01
-1.439178e-01
-1.319281e-01
-1.294360e-01
-2.148986e-02
2.547968e-01
5.918894e-01
8.451851e-01
9.693518e-01
9.993963e-01
1 2 19 18
2 3 20 19
3 4 21 20
4 5 22 21
5 6 23 22
6 7 24 23
7 8 25 24
8 9 26 25
9 10 27 26
10 11 28 27
11 12 29 28
12 13 30 29
13 14 31 30
14 15 32 31
15 16 33 32
16 17 34 33
18 19 36 35
19 20 37 36
20 21 38 37
21 22 39 38
22 23 40 39
23 24 41 40
24 25 42 41
25 26 43 42
26 27 44 43
27 28 45 44
28 29 46 45
29 30 47 46
30 31 48 47
31 32 49 48
32 33 50 49
33 34 51 50
35 36 53 52
36 37 54 53
37 38 55 54
38 39 56 55
39 40 57 56
40 41 58 57
41 42 59 58
42 43 60 59
43 44 61 60
44 45 62 61
45 46 63 62
46 47 64 63
47 48 65 64
48 49 66 65
49 50 67 66
50 51 68 67
52 53 70 69
53 54 71 70
54 55 72 71
55 56 73 72
56 57 74 73
57 58 75 74
58 59 76 75
59 60 77 76
60 61 78 77
61 62 79 78
62 63 80 79
63 64 81 80
64 65 82 81
65 66 83 82
66 67 84 83
67 68 85 84
69 70 87 86
70 71 88 87
71 72 89 88
72 73 90 89
73 74 91 90
74 75 92 91
75 76 93 92
76 77 94 93
77 78 95 94
78 79 96 95
79 80 97 96
80 81 98 97
81 82 99 98
82 83 100 99
83 84 101 100
84 85 102 101
86 87 104 103
87 88 105 104
88 89 106 105
89 90 107 106
90 91 108 107
91 92 109 108
92 93 110 109
93 94 111 110
94 95 112 111
95 96 113 112
96 97 114 113
97 98 115 114
98 99 116 115
99 100 117 116
100 101 118 117
101 102 119 118
103 104 121 120
104 105 122 121
105 106 123 122
106 107 124 123
107 108 125 124
108 109 126 125
109 110 127 126
110 111 128 127
111 112 129 128
112 113 130 129
113 114 131 130
114 115 132 131
115 116 133 132
116 117 134 133
117 118 135 134
118 119 136 135
120 121 138 137
121 122 139 138
122 123 140 139
123 124 141 140
124 125 142 141
125 126 143 142
126 127 144 143
127 128 145 144
128 129 146 145
129 130 147 146
130 131 148 147
131 132 149 148
132 133 150 149
133 134 151 150
134 135 152 151
135 136 153 152
