TITLE = "Solution"
VARIABLES = x, y, u, v, psiu, psiv, t, stress
ZONE T="structure" N=153 E=128 F=FEBLOCK ET=QUADRILATERAL VARLOCATION=([7,8]=cellcentered)
0.000000e+00
1.250000e+01
2.500000e+01
3.750000e+01
5.000000e+01
6.250000e+01
7.500000e+01
8.750000e+01
1.000000e+02
1.125000e+02
1.250000e+02
1.375000e+02
1.500000e+02
1.625000e+02
1.750000e+02
1.875000e+02
2.000000e+02
0.000000e+00
1.250000e+01
2.500000e+01
3.750000e+01
5.000000e+01
6.250000e+01
7.500000e+01
8.750000e+01
1.000000e+02
1.125000e+02
1.250000e+02
1.375000e+02
1.500000e+02
1.625000e+02
1.750000e+02
1.875000e+02
2.000000e+02
0.000000e+00
1.250000e+01
2.500000e+01
3.750000e+01
5.000000e+01
6.250000e+01
7.500000e+01
8.750000e+01
1.000000e+02
1.125000e+02
1.250000e+02
1.375000e+02
1.500000e+02
1.625000e+02
1.750000e+02
1.875000e+02
2.000000e+02
0.000000e+00
1.250000e+01
2.500000e+01
3.750000e+01
5.000000e+01
6.250000e+01
7.500000e+01
8.750000e+01
1.000000e+02
1.125000e+02
1.250000e+02
1.375000e+02
1.500000e+02
1.625000e+02
1.750000e+02
1.875000e+02
2.000000e+02
0.000000e+00
1.250000e+01
2.500000e+01
3.750000e+01
5.000000e+01
6.250000e+01
7.500000e+01
8.750000e+01
1.000000e+02
1.125000e+02
1.250000e+02
1.375000e+02
1.500000e+02
1.625000e+02
1.750000e+02
1.875000e+02
2.000000e+02
0.000000e+00
1.250000e+01
2.500000e+01
3.750000e+01
5.000000e+01
6.250000e+01
7.500000e+01
8.750000e+01
1.000000e+02
1.125000e+02
1.250000e+02
1.375000e+02
1.500000e+02
1.625000e+02
1.750000e+02
1.875000e+02
2.000000e+02
0.000000e+00
1.250000e+01
2.500000e+01
3.750000e+01
5.000000e+01
6.250000e+01
7.500000e+01
8.750000e+01
1.000000e+02
1.125000e+02
1.250000e+02
1.375000e+02
1.500000e+02
1.625000e+02
1.750000e+02
1.875000e+02
2.000000e+02
0.000000e+00
1.250000e+01
2.500000e+01
3.750000e+01
5.000000e+01
6.250000e+01
7.500000e+01
8.750000e+01
1.000000e+02
1.125000e+02
1.250000e+02
1.375000e+02
1.500000e+02
1.625000e+02
1.750000e+02
1.875000e+02
2.000000e+02
0.000000e+00
1.250000e+01
2.500000e+01
3.750000e+01
5.000000e+01
6.250000e+01
7.500000e+01
8.750000e+01
1.000000e+02
1.125000e+02
1.250000e+02
1.375000e+02
1.500000e+02
1.625000e+02
1.750000e+02
1.875000e+02
2.000000e+02
0.000000e+00
0.000000e+00
0.000000e+00
0.000000e+00
0.000000e+00
0.000000e+00
0.000000e+00
0.000000e+00
0.000000e+00
0.000000e+00
0.000000e+00
0.000000e+00
0.000000e+00
0.000000e+00
0.000000e+00
0.000000e+00
0.000000e+00
1.250000e+01
1.250000e+01
1.250000e+01
1.250000e+01
1.250000e+01
1.250000e+01
1.250000e+01
1.250000e+01
1.250000e+01
1.250000e+01
1.250000e+01
1.250000e+01
1.250000e+01
1.250000e+01
1.250000e+01
1.250000e+01
1.250000e+01
2.500000e+01
2.500000e+01
2.500000e+01
2.500000e+01
2.500000e+01
2.500000e+01
2.500000e+01
2.500000e+01
2.500000e+01
2.500000e+01
2.500000e+01
2.500000e+01
2.500000e+01
2.500000e+01
2.500000e+01
2.500000e+01
2.500000e+01
3.750000e+01
3.750000e+01
3.750000e+01
3.750000e+01
3.750000e+01
3.750000e+01
3.750000e+01
3.750000e+01
3.750000e+01
3.750000e+01
3.750000e+01
3.750000e+01
3.750000e+01
3.750000e+01
3.750000e+01
3.750000e+01
3.750000e+01
5.000000e+01
5.000000e+01
5.000000e+01
5.000000e+01
5.000000e+01
5.000000e+01
5.000000e+01
5.000000e+01
5.000000e+01
5.000000e+01
5.000000e+01
5.000000e+01
5.000000e+01
5.000000e+01
5.000000e+01
5.000000e+01
5.000000e+01
6.250000e+01
6.250000e+01
6.250000e+01
6.250000e+01
6.250000e+01
6.250000e+01
6.250000e+01
6.250000e+01
6.250000e+01
6.250000e+01
6.250000e+01
6.250000e+01
6.250000e+01
6.250000e+01
6.250000e+01
6.250000e+01
6.250000e+01
7.500000e+01
7.500000e+01
7.500000e+01
7.500000e+01
7.500000e+01
7.500000e+01
7.500000e+01
7.500000e+01
7.500000e+01
7.500000e+01
7.500000e+01
7.500000e+01
7.500000e+01
7.500000e+01
7.500000e+01
7.500000e+01
7.500000e+01
8.750000e+01
8.750000e+01
8.750000e+01
8.750000e+01
8.750000e+01
8.750000e+01
8.750000e+01
8.750000e+01
8.750000e+01
8.750000e+01
8.750000e+01
8.750000e+01
8.750000e+01
8.750000e+01
8.750000e+01
8.750000e+01
8.750000e+01
1.000000e+02
1.000000e+02
1.000000e+02
1.000000e+02
1.000000e+02
1.000000e+02
1.000000e+02
1.000000e+02
1.000000e+02
1.000000e+02
1.000000e+02
1.000000e+02
1.000000e+02
1.000000e+02
1.000000e+02
1.000000e+02
1.000000e+02
0.000000e+00
-7.105769e-02
-1.308397e-01
-1.858470e-01
-2.370740e-01
-2.844129e-01
-3.277620e-01
-3.670877e-01
-4.024473e-01
-4.340035e-01
-4.620693e-01
-4.871931e-01
-5.103187e-01
-5.330762e-01
-5.582772e-01
-5.892273e-01
-6.124519e-01
0.000000e+00
-4.243440e-02
-8.814921e-02
-1.303639e-01
-1.692566e-01
-2.049752e-01
-2.375937e-01
-2.671559e-01
-2.937150e-01
-3.173529e-01
-3.381896e-01
-3.563752e-01
-3.720258e-01
-3.849802e-01
-3.941177e-01
-3.961205e-01
-4.033010e-01
0.000000e+00
-2.653727e-02
-5.456726e-02
-8.253131e-02
-1.086349e-01
-1.326016e-01
-1.544120e-01
-1.740908e-01
-1.916429e-01
-2.070389e-01
-2.201960e-01
-2.309304e-01
-2.388595e-01
-2.432857e-01
-2.434086e-01
-2.416404e-01
-2.489639e-01
0.000000e+00
-1.280853e-02
-2.636807e-02
-4.001324e-02
-5.306048e-02
-6.507779e-02
-7.597030e-02
-8.570628e-02
-9.423001e-02
-1.014306e-01
-1.071239e-01
-1.110414e-01
-1.128622e-01
-1.124368e-01
-1.106891e-01
-1.111670e-01
-1.166201e-01
0.000000e+00
-1.179902e-05
-2.682289e-05
-4.179742e-05
-4.974466e-05
-3.510409e-05
3.300991e-05
2.100178e-04
5.868444e-04
1.298927e-03
2.522963e-03
4.436460e-03
7.087382e-03
1.008306e-02
1.215238e-02
1.158483e-02
7.974382e-03
0.000000e+00
1.279037e-02
2.632592e-02
3.994582e-02
5.297662e-02
6.500959e-02
7.599676e-02
8.599188e-02
9.508161e-02
1.033714e-01
1.109695e-01
1.179323e-01
1.241387e-01
1.291155e-01
1.320431e-01
1.322753e-01
1.304428e-01
0.000000e+00
2.653429e-02
5.455818e-02
8.251324e-02
1.086067e-01
1.325665e-01
1.543829e-01
1.741003e-01
1.917595e-01
2.073919e-01
2.210112e-01
2.325841e-01
2.419774e-01
2.489222e-01
2.530906e-01
2.544441e-01
2.540168e-01
0.000000e+00
4.245181e-02
8.818706e-02
1.304243e-01
1.693375e-01
2.050618e-01
2.376423e-01
2.670670e-01
2.932911e-01
3.162388e-01
3.358013e-01
3.518433e-01
3.642365e-01
3.729400e-01
3.781318e-01
3.803458e-01
3.807524e-01
0.000000e+00
7.108680e-02
1.309165e-01
1.859908e-01
2.373038e-01
2.847361e-01
3.281476e-01
3.674119e-01
4.023979e-01
4.329237e-01
4.587247e-01
4.794567e-01
4.947794e-01
5.045723e-01
5.093082e-01
5.104772e-01
5.104547e-01
0.000000e+00
-4.301318e-02
-8.443985e-02
-1.381192e-01
-2.039994e-01
-2.819574e-01
-3.711392e-01
-4.705469e-01
-5.791234e-01
-6.958257e-01
-8.196902e-01
-9.499502e-01
-1.086292e+00
-1.229442e+00
-1.383116e+00
-1.558947e+00
-1.811584e+00
0.000000e+00
-2.647970e-02
-6.969452e-02
-1.240395e-01
-1.909965e-01
-2.700183e-01
-3.602805e-01
-4.607608e-01
-5.703896e-01
-6.881052e-01
-8.129174e-01
-9.440243e-01
-1.081063e+00
-1.224743e+00
-1.378356e+00
-1.553120e+00
-1.767224e+00
0.000000e+00
-1.998128e-02
-5.947232e-02
-1.140179e-01
-1.816079e-01
-2.614431e-01
-3.525350e-01
-4.538513e-01
-5.643299e-01
-6.829241e-01
-8.086628e-01
-9.407717e-01
-1.078922e+00
-1.223707e+00
-1.377453e+00
-1.543047e+00
-1.703308e+00
0.000000e+00
-1.721844e-02
-5.438989e-02
-1.081355e-01
-1.759698e-01
-2.562965e-01
-3.479563e-01
-4.498778e-01
-5.610188e-01
-6.803610e-01
-8.069544e-01
-9.400095e-01
-1.079042e+00
-1.223986e+00
-1.374657e+00
-1.526815e+00
-1.666988e+00
0.000000e+00
-1.642252e-02
-5.285171e-02
-1.062589e-01
-1.741118e-01
-2.546383e-01
-3.465617e-01
-4.488113e-01
-5.603648e-01
-6.802206e-01
-8.074074e-01
-9.410107e-01
-1.080167e+00
-1.223850e+00
-1.369909e+00
-1.513349e+00
-1.645493e+00
0.000000e+00
-1.720822e-02
-5.438262e-02
-1.081484e-01
-1.760334e-01
-2.564640e-01
-3.483146e-01
-4.505563e-01
-5.621887e-01
-6.822050e-01
-8.095712e-01
-9.431809e-01
-1.081742e+00
-1.223490e+00
-1.365703e+00
-1.504224e+00
-1.633548e+00
0.000000e+00
-1.996461e-02
-5.946027e-02
-1.140395e-01
-1.817150e-01
-2.617265e-01
-3.531425e-01
-4.550035e-01
-5.663191e-01
-6.860653e-01
-8.131382e-01
-9.462615e-01
-1.083831e+00
-1.223722e+00
-1.363178e+00
-1.499041e+00
-1.628279e+00
0.000000e+00
-2.646407e-02
-6.968403e-02
-1.240682e-01
-1.911251e-01
-2.703515e-01
-3.609877e-01
-4.620925e-01
-5.726747e-01
-6.916913e-01
-8.179935e-01
-9.502137e-01
-1.086611e+00
-1.224945e+00
-1.362546e+00
-1.496898e+00
-1.627042e+00
0.000000e+00
-4.300672e-02
-8.444076e-02
-1.381636e-01
-2.041485e-01
-2.823135e-01
-3.718628e-01
-4.718671e-01
-5.813243e-01
-6.991736e-01
-8.242383e-01
-9.551204e-01
-1.090068e+00
-1.226888e+00
-1.363083e+00
-1.496506e+00
-1.627061e+00


0.000000e+00
3.602682e-11
7.450870e-11
1.086020e-10
1.374082e-10
1.608105e-10
1.792451e-10
1.933761e-10
2.039487e-10
2.116509e-10
2.171387e-10
2.209897e-10
2.237354e-10
2.258689e-10
2.278527e-10
2.302975e-10
2.332306e-10
0.000000e+00
2.450148e-11
5.774141e-11
8.482788e-11
1.065590e-10
1.237360e-10
1.369941e-10
1.469932e-10
1.543332e-10
1.595578e-10
1.631431e-10
1.654707e-10
1.668464e-10
1.675238e-10
1.682104e-10
1.702103e-10
1.732301e-10
0.000000e+00
1.824256e-11
4.010744e-11
5.837907e-11
7.306564e-11
8.440467e-11
9.294920e-11
9.922494e-11
1.037060e-10
1.067637e-10
1.087210e-10
1.098286e-10
1.103228e-10
1.105132e-10
1.109954e-10
1.125615e-10
1.150058e-10
0.000000e+00
9.763990e-12
2.000623e-11
2.914602e-11
3.662498e-11
4.234277e-11
4.656664e-11
4.959813e-11
5.169166e-11
5.304576e-11
5.383202e-11
5.420788e-11
5.436050e-11
5.452940e-11
5.495172e-11
5.590430e-11
5.741050e-11
0.000000e+00
-9.016486e-15
-2.478851e-14
-4.630917e-14
-7.676191e-14
-1.219123e-13
-1.817491e-13
-2.698703e-13
-3.866083e-13
-5.343303e-13
-7.032819e-13
-8.490691e-13
-9.100050e-13
-8.118475e-13
-5.529528e-13
-9.426740e-14
6.900838e-13
0.000000e+00
-9.787043e-12
-2.005229e-11
-2.922698e-11
-3.675008e-11
-4.253383e-11
-4.685406e-11
-5.001918e-11
-5.229392e-11
-5.388127e-11
-5.493902e-11
-5.559112e-11
-5.592646e-11
-5.603820e-11
-5.603270e-11
-5.591933e-11
-5.558241e-11
0.000000e+00
-1.825148e-11
-4.013493e-11
-5.843166e-11
-7.315160e-11
-8.453037e-11
-9.311772e-11
-9.944367e-11
-1.039832e-10
-1.071144e-10
-1.091775e-10
-1.104474e-10
-1.111757e-10
-1.115667e-10
-1.117770e-10
-1.118495e-10
-1.117546e-10
0.000000e+00
-2.451066e-11
-5.776308e-11
-8.486624e-11
-1.066070e-10
-1.237921e-10
-1.370499e-10
-1.470289e-10
-1.543225e-10
-1.594712e-10
-1.629554e-10
-1.651990e-10
-1.665715e-10
-1.673680e-10
-1.678085e-10
-1.680091e-10
-1.680364e-10
0.000000e+00
-3.604454e-11
-7.454033e-11
-1.086380e-10
-1.374413e-10
-1.608284e-10
-1.792156e-10
-1.932692e-10
-2.037121e-10
-2.112259e-10
-2.164586e-10
-2.199530e-10
-2.221893e-10
-2.235273e-10
-2.242320e-10
-2.245043e-10
-2.245465e-10
0.000000e+00
3.272571e-11
5.882365e-11
8.621708e-11
1.191031e-10
1.578218e-10
2.015795e-10
2.493517e-10
3.001587e-10
3.531841e-10
4.078108e-10
4.636223e-10
5.204362e-10
5.786450e-10
6.397979e-10
7.047015e-10
7.704493e-10
0.000000e+00
1.759423e-11
4.309742e-11
7.232637e-11
1.077128e-10
1.488263e-10
1.946987e-10
2.442252e-10
2.964406e-10
3.505787e-10
4.060475e-10
4.624705e-10
5.196904e-10
5.778799e-10
6.377948e-10
7.008915e-10
7.655670e-10
0.000000e+00
8.676937e-12
3.074998e-11
6.148086e-11
9.890147e-11
1.419988e-10
1.895529e-10
2.404485e-10
2.937591e-10
3.487521e-10
4.048802e-10
4.617888e-10
5.192895e-10
5.772804e-10
6.358346e-10
6.968414e-10
7.597823e-10
0.000000e+00
4.935279e-12
2.492210e-11
5.579433e-11
9.428009e-11
1.384658e-10
1.869340e-10
2.385592e-10
2.924479e-10
3.478982e-10
4.043798e-10
4.615256e-10
5.190887e-10
5.768047e-10
6.346177e-10
6.939631e-10
7.547106e-10
0.000000e+00
3.985938e-12
2.333160e-11
5.407448e-11
9.285851e-11
1.373924e-10
1.861536e-10
2.380138e-10
2.920979e-10
3.477015e-10
4.043003e-10
4.614985e-10
5.190022e-10
5.765488e-10
6.340454e-10
6.923147e-10
7.511021e-10
0.000000e+00
4.943748e-12
2.493367e-11
5.581112e-11
9.430129e-11
1.384974e-10
1.869845e-10
2.386413e-10
2.925789e-10
3.480817e-10
4.046009e-10
4.617146e-10
5.191118e-10
5.765429e-10
6.339133e-10
6.915192e-10
7.490236e-10
0.000000e+00
8.688635e-12
3.076791e-11
6.151134e-11
9.893847e-11
1.420626e-10
1.896563e-10
2.406123e-10
2.940186e-10
3.491118e-10
4.053248e-10
4.622014e-10
5.194087e-10
5.767060e-10
6.339530e-10
6.911655e-10
7.480522e-10
0.000000e+00
1.761455e-11
4.312759e-11
7.237847e-11
1.077739e-10
1.489228e-10
1.948442e-10
2.444454e-10
2.967684e-10
3.510245e-10
4.065950e-10
4.629968e-10
5.198729e-10
5.769466e-10
6.340426e-10
6.910309e-10
7.477276e-10
0.000000e+00
3.275092e-11
5.886722e-11
8.628267e-11
1.191876e-10
1.579348e-10
2.017378e-10
2.495746e-10
3.004683e-10
3.535897e-10
4.082903e-10
4.640514e-10
5.204756e-10
5.772595e-10
6.341705e-10
6.910221e-10
7.476756e-10


2.076245e-01
2.076245e-01
2.076245e-01
2.076245e-01
2.076245e-01
2.076245e-01
2.076245e-01
2.076245e-01
2.076245e-01
2.076245e-01
2.076245e-01
2.076245e-01
2.076245e-01
2.076245e-01
2.076245e-01
2.076245e-01
2.076245e-01
2.076245e-01
2.076245e-01
2.076245e-01
2.076245e-01
2.076245e-01
2.076245e-01
2.076245e-01
2.076245e-01
2.076245e-01
2.076245e-01
2.076245e-01
2.076245e-01
2.076245e-01
2.076245e-01
2.076245e-01
2.076245e-01
2.076245e-01
2.076245e-01
2.076245e-01
2.076245e-01
2.076245e-01
2.076245e-01
2.076245e-01
2.076245e-01
2.076245e-01
2.076245e-01
2.076245e-01
2.076245e-01
2.076245e-01
2.076245e-01
2.076245e-01
2.076245e-01
2.076245e-01
2.076245e-01
2.076245e-01
2.076245e-01
2.076245e-01
2.076245e-01
2.076245e-01
2.076245e-01
2.076245e-01
2.076245e-01
2.076245e-01
2.076245e-01
2.076245e-01
2.076245e-01
2.076245e-01
2.076245e-01
2.076245e-01
2.076245e-01
2.076245e-01
2.076245e-01
2.076245e-01
2.076245e-01
2.076245e-01
2.076245e-01
2.076245e-01
2.076245e-01
2.076245e-01
2.076245e-01
2.076245e-01
2.076245e-01
2.076245e-01
2.076245e-01
2.076245e-01
2.076245e-01
2.076245e-01
2.076245e-01
2.076245e-01
2.076245e-01
2.076245e-01
2.076245e-01
2.076245e-01
2.076245e-01
2.076245e-01
2.076245e-01
2.076245e-01
2.076245e-01
2.076245e-01
2.076245e-01
2.076245e-01
2.076245e-01
2.076245e-01
2.076245e-01
2.076245e-01
2.076245e-01
2.076245e-01
2.076245e-01
2.076245e-01
2.076245e-01
2.076245e-01
2.076245e-01
2.076245e-01
2.076245e-01
2.076245e-01
2.076245e-01
2.076245e-01
2.076245e-01
2.076245e-01
2.076245e-01
2.076245e-01
2.076245e-01
2.076245e-01
2.076245e-01
2.076245e-01
2.076245e-01
2.076245e-01
2.076245e-01
2.076245e-01
2.076245e-01
2.076245e-01


9.886402e-01
9.902511e-01
9.917413e-01
9.928884e-01
9.939533e-01
9.949351e-01
9.958296e-01
9.966264e-01
9.973169e-01
9.978944e-01
9.983537e-01
9.986901e-01
9.988992e-01
9.989738e-01
9.990276e-01
9.957078e-01
9.957023e-01
9.949641e-01
9.954391e-01
9.960590e-01
9.966369e-01
9.971622e-01
9.976377e-01
9.980684e-01
9.984583e-01
9.988115e-01
9.991320e-01
9.994222e-01
9.996754e-01
9.998412e-01
9.994219e-01
9.937390e-01
9.985068e-01
9.980828e-01
9.979683e-01
9.981293e-01
9.983411e-01
9.985463e-01
9.987368e-01
9.989167e-01
9.990911e-01
9.992611e-01
9.994198e-01
9.995427e-01
9.995684e-01
9.993470e-01
9.985441e-01
9.970998e-01
9.996961e-01
9.993869e-01
9.991958e-01
9.991474e-01
9.991667e-01
9.991992e-01
9.992316e-01
9.992633e-01
9.992944e-01
9.993204e-01
9.993277e-01
9.992890e-01
9.991662e-01
9.989458e-01
9.987590e-01
9.987117e-01
9.996972e-01
9.993885e-01
9.991973e-01
9.991471e-01
9.991619e-01
9.991853e-01
9.992016e-01
9.992071e-01
9.991996e-01
9.991757e-01
9.991311e-01
9.990668e-01
9.990057e-01
9.990178e-01
9.991908e-01
9.994901e-01
9.985089e-01
9.980860e-01
9.979714e-01
9.981294e-01
9.983329e-01
9.985209e-01
9.986800e-01
9.988078e-01
9.989035e-01
9.989680e-01
9.990088e-01
9.990487e-01
9.991324e-01
9.993079e-01
9.995716e-01
9.998442e-01
9.957019e-01
9.949638e-01
9.954384e-01
9.960572e-01
9.966324e-01
9.971518e-01
9.976163e-01
9.980275e-01
9.983858e-01
9.986921e-01
9.989514e-01
9.991778e-01
9.993959e-01
9.996245e-01
9.998383e-01
9.999729e-01
9.886324e-01
9.902389e-01
9.917264e-01
9.928718e-01
9.939383e-01
9.949297e-01
9.958481e-01
9.966915e-01
9.974599e-01
9.981519e-01
9.987592e-01
9.992631e-01
9.996379e-01
9.998692e-01
9.999744e-01
9.999995e-01
1 2 19 18
2 3 20 19
3 4 21 20
4 5 22 21
5 6 23 22
6 7 24 23
7 8 25 24
8 9 26 25
9 10 27 26
10 11 28 27
11 12 29 28
12 13 30 29
13 14 31 30
14 15 32 31
15 16 33 32
16 17 34 33
18 19 36 35
19 20 37 36
20 21 38 37
21 22 39 38
22 23 40 39
23 24 41 40
24 25 42 41
25 26 43 42
26 27 44 43
27 28 45 44
28 29 46 45
29 30 47 46
30 31 48 47
31 32 49 48
32 33 50 49
33 34 51 50
35 36 53 52
36 37 54 53
37 38 55 54
38 39 56 55
39 40 57 56
40 41 58 57
41 42 59 58
42 43 60 59
43 44 61 60
44 45 62 61
45 46 63 62
46 47 64 63
47 48 65 64
48 49 66 65
49 50 67 66
50 51 68 67
52 53 70 69
53 54 71 70
54 55 72 71
55 56 73 72
56 57 74 73
57 58 75 74
58 59 76 75
59 60 77 76
60 61 78 77
61 62 79 78
62 63 80 79
63 64 81 80
64 65 82 81
65 66 83 82
66 67 84 83
67 68 85 84
69 70 87 86
70 71 88 87
71 72 89 88
72 73 90 89
73 74 91 90
74 75 92 91
75 76 93 92
76 77 94 93
77 78 95 94
78 79 96 95
79 80 97 96
80 81 98 97
81 82 99 98
82 83 100 99
83 84 101 100
84 85 102 101
86 87 104 103
87 88 105 104
88 89 106 105
89 90 107 106
90 91 108 107
91 92 109 108
92 93 110 109
93 94 111 110
94 95 112 111
95 96 113 112
96 97 114 113
97 98 115 114
98 99 116 115
99 100 117 116
100 101 118 117
101 102 119 118
103 104 121 120
104 105 122 121
105 106 123 122
106 107 124 123
107 108 125 124
108 109 126 125
109 110 127 126
110 111 128 127
111 112 129 128
112 113 130 129
113 114 131 130
114 115 132 131
115 116 133 132
116 117 134 133
117 118 135 134
118 119 136 135
120 121 138 137
121 122 139 138
122 123 140 139
123 124 141 140
124 125 142 141
125 126 143 142
126 127 144 143
127 128 145 144
128 129 146 145
129 130 147 146
130 131 148 147
131 132 149 148
132 133 150 149
133 134 151 150
134 135 152 151
135 136 153 152
