TITLE = "Solution"
VARIABLES = x, y, u, v, psiu, psiv, t, stress
ZONE T="structure" N=153 E=128 F=FEBLOCK ET=QUADRILATERAL VARLOCATION=([7,8]=cellcentered)
0.000000e+00
1.250000e+01
2.500000e+01
3.750000e+01
5.000000e+01
6.250000e+01
7.500000e+01
8.750000e+01
1.000000e+02
1.125000e+02
1.250000e+02
1.375000e+02
1.500000e+02
1.625000e+02
1.750000e+02
1.875000e+02
2.000000e+02
0.000000e+00
1.250000e+01
2.500000e+01
3.750000e+01
5.000000e+01
6.250000e+01
7.500000e+01
8.750000e+01
1.000000e+02
1.125000e+02
1.250000e+02
1.375000e+02
1.500000e+02
1.625000e+02
1.750000e+02
1.875000e+02
2.000000e+02
0.000000e+00
1.250000e+01
2.500000e+01
3.750000e+01
5.000000e+01
6.250000e+01
7.500000e+01
8.750000e+01
1.000000e+02
1.125000e+02
1.250000e+02
1.375000e+02
1.500000e+02
1.625000e+02
1.750000e+02
1.875000e+02
2.000000e+02
0.000000e+00
1.250000e+01
2.500000e+01
3.750000e+01
5.000000e+01
6.250000e+01
7.500000e+01
8.750000e+01
1.000000e+02
1.125000e+02
1.250000e+02
1.375000e+02
1.500000e+02
1.625000e+02
1.750000e+02
1.875000e+02
2.000000e+02
0.000000e+00
1.250000e+01
2.500000e+01
3.750000e+01
5.000000e+01
6.250000e+01
7.500000e+01
8.750000e+01
1.000000e+02
1.125000e+02
1.250000e+02
1.375000e+02
1.500000e+02
1.625000e+02
1.750000e+02
1.875000e+02
2.000000e+02
0.000000e+00
1.250000e+01
2.500000e+01
3.750000e+01
5.000000e+01
6.250000e+01
7.500000e+01
8.750000e+01
1.000000e+02
1.125000e+02
1.250000e+02
1.375000e+02
1.500000e+02
1.625000e+02
1.750000e+02
1.875000e+02
2.000000e+02
0.000000e+00
1.250000e+01
2.500000e+01
3.750000e+01
5.000000e+01
6.250000e+01
7.500000e+01
8.750000e+01
1.000000e+02
1.125000e+02
1.250000e+02
1.375000e+02
1.500000e+02
1.625000e+02
1.750000e+02
1.875000e+02
2.000000e+02
0.000000e+00
1.250000e+01
2.500000e+01
3.750000e+01
5.000000e+01
6.250000e+01
7.500000e+01
8.750000e+01
1.000000e+02
1.125000e+02
1.250000e+02
1.375000e+02
1.500000e+02
1.625000e+02
1.750000e+02
1.875000e+02
2.000000e+02
0.000000e+00
1.250000e+01
2.500000e+01
3.750000e+01
5.000000e+01
6.250000e+01
7.500000e+01
8.750000e+01
1.000000e+02
1.125000e+02
1.250000e+02
1.375000e+02
1.500000e+02
1.625000e+02
1.750000e+02
1.875000e+02
2.000000e+02
0.000000e+00
0.000000e+00
0.000000e+00
0.000000e+00
0.000000e+00
0.000000e+00
0.000000e+00
0.000000e+00
0.000000e+00
0.000000e+00
0.000000e+00
0.000000e+00
0.000000e+00
0.000000e+00
0.000000e+00
0.000000e+00
0.000000e+00
1.250000e+01
1.250000e+01
1.250000e+01
1.250000e+01
1.250000e+01
1.250000e+01
1.250000e+01
1.250000e+01
1.250000e+01
1.250000e+01
1.250000e+01
1.250000e+01
1.250000e+01
1.250000e+01
1.250000e+01
1.250000e+01
1.250000e+01
2.500000e+01
2.500000e+01
2.500000e+01
2.500000e+01
2.500000e+01
2.500000e+01
2.500000e+01
2.500000e+01
2.500000e+01
2.500000e+01
2.500000e+01
2.500000e+01
2.500000e+01
2.500000e+01
2.500000e+01
2.500000e+01
2.500000e+01
3.750000e+01
3.750000e+01
3.750000e+01
3.750000e+01
3.750000e+01
3.750000e+01
3.750000e+01
3.750000e+01
3.750000e+01
3.750000e+01
3.750000e+01
3.750000e+01
3.750000e+01
3.750000e+01
3.750000e+01
3.750000e+01
3.750000e+01
5.000000e+01
5.000000e+01
5.000000e+01
5.000000e+01
5.000000e+01
5.000000e+01
5.000000e+01
5.000000e+01
5.000000e+01
5.000000e+01
5.000000e+01
5.000000e+01
5.000000e+01
5.000000e+01
5.000000e+01
5.000000e+01
5.000000e+01
6.250000e+01
6.250000e+01
6.250000e+01
6.250000e+01
6.250000e+01
6.250000e+01
6.250000e+01
6.250000e+01
6.250000e+01
6.250000e+01
6.250000e+01
6.250000e+01
6.250000e+01
6.250000e+01
6.250000e+01
6.250000e+01
6.250000e+01
7.500000e+01
7.500000e+01
7.500000e+01
7.500000e+01
7.500000e+01
7.500000e+01
7.500000e+01
7.500000e+01
7.500000e+01
7.500000e+01
7.500000e+01
7.500000e+01
7.500000e+01
7.500000e+01
7.500000e+01
7.500000e+01
7.500000e+01
8.750000e+01
8.750000e+01
8.750000e+01
8.750000e+01
8.750000e+01
8.750000e+01
8.750000e+01
8.750000e+01
8.750000e+01
8.750000e+01
8.750000e+01
8.750000e+01
8.750000e+01
8.750000e+01
8.750000e+01
8.750000e+01
8.750000e+01
1.000000e+02
1.000000e+02
1.000000e+02
1.000000e+02
1.000000e+02
1.000000e+02
1.000000e+02
1.000000e+02
1.000000e+02
1.000000e+02
1.000000e+02
1.000000e+02
1.000000e+02
1.000000e+02
1.000000e+02
1.000000e+02
1.000000e+02
0.000000e+00
-8.529015e-01
-1.533923e+00
-2.201307e+00
-2.880937e+00
-3.541708e+00
-4.198062e+00
-4.855145e+00
-5.507934e+00
-6.155850e+00
-6.794989e+00
-7.415429e+00
-8.012077e+00
-8.595156e+00
-9.185677e+00
-9.810268e+00
-1.023907e+01
0.000000e+00
-4.594717e-01
-9.545157e-01
-1.448862e+00
-1.957567e+00
-2.452473e+00
-2.943133e+00
-3.433957e+00
-3.920775e+00
-4.402012e+00
-4.872709e+00
-5.320445e+00
-5.729387e+00
-6.077291e+00
-6.313727e+00
-6.367347e+00
-6.512229e+00
0.000000e+00
-2.484955e-01
-5.269233e-01
-8.455231e-01
-1.181109e+00
-1.513258e+00
-1.845175e+00
-2.175873e+00
-2.501037e+00
-2.816319e+00
-3.113063e+00
-3.376194e+00
-3.584924e+00
-3.711603e+00
-3.729033e+00
-3.697587e+00
-3.847573e+00
0.000000e+00
-1.081292e-01
-2.332287e-01
-3.840940e-01
-5.475102e-01
-7.149214e-01
-8.831243e-01
-1.048687e+00
-1.207743e+00
-1.354699e+00
-1.480650e+00
-1.573213e+00
-1.618338e+00
-1.606941e+00
-1.560201e+00
-1.566300e+00
-1.688267e+00
0.000000e+00
-6.752015e-04
-1.373791e-03
-1.964662e-03
-2.197169e-03
-1.617552e-03
5.648836e-04
5.678295e-03
1.596057e-02
3.500685e-02
6.784543e-02
1.198841e-01
1.933972e-01
2.788612e-01
3.418837e-01
3.355470e-01
2.473744e-01
0.000000e+00
1.069798e-01
2.308630e-01
3.806187e-01
5.434255e-01
7.114687e-01
8.828025e-01
1.056177e+00
1.231359e+00
1.408391e+00
1.586224e+00
1.761517e+00
1.926359e+00
2.064020e+00
2.148635e+00
2.159717e+00
2.112766e+00
0.000000e+00
2.479013e-01
5.256153e-01
8.434021e-01
1.178230e+00
1.509945e+00
1.842111e+00
2.174729e+00
2.505203e+00
2.830762e+00
3.143796e+00
3.431071e+00
3.676759e+00
3.864479e+00
3.979545e+00
4.017927e+00
4.007110e+00
0.000000e+00
4.595732e-01
9.545825e-01
1.448744e+00
1.957102e+00
2.451248e+00
2.940096e+00
3.427778e+00
3.909858e+00
4.381116e+00
4.827179e+00
5.223315e+00
5.545095e+00
5.777407e+00
5.917860e+00
5.978055e+00
5.989225e+00
0.000000e+00
8.534866e-01
1.535244e+00
2.203509e+00
2.884143e+00
3.545669e+00
4.201712e+00
4.856835e+00
5.504546e+00
6.136160e+00
6.728055e+00
7.241190e+00
7.637956e+00
7.897150e+00
8.023169e+00
8.053697e+00
8.052744e+00
0.000000e+00
-5.258599e-01
-1.091995e+00
-1.843338e+00
-2.762272e+00
-3.847705e+00
-5.106661e+00
-6.538728e+00
-8.142232e+00
-9.916066e+00
-1.185556e+01
-1.395322e+01
-1.620526e+01
-1.862137e+01
-2.126375e+01
-2.434687e+01
-2.889650e+01
0.000000e+00
-3.334135e-01
-9.247287e-01
-1.667491e+00
-2.587241e+00
-3.675635e+00
-4.935040e+00
-6.367945e+00
-7.973327e+00
-9.750009e+00
-1.169512e+01
-1.380234e+01
-1.606717e+01
-1.850189e+01
-2.116186e+01
-2.424066e+01
-2.803833e+01
0.000000e+00
-2.748682e-01
-8.147906e-01
-1.549875e+00
-2.465178e+00
-3.553446e+00
-4.814014e+00
-6.249038e+00
-7.858201e+00
-9.641307e+00
-1.159684e+01
-1.371981e+01
-1.600734e+01
-1.847187e+01
-2.114733e+01
-2.405144e+01
-2.680727e+01
0.000000e+00
-2.717529e-01
-7.736699e-01
-1.488678e+00
-2.395827e+00
-3.481847e+00
-4.744010e+00
-6.182694e+00
-7.798257e+00
-9.591527e+00
-1.156140e+01
-1.370257e+01
-1.600890e+01
-1.847802e+01
-2.108993e+01
-2.371723e+01
-2.604467e+01
0.000000e+00
-2.755863e-01
-7.661076e-01
-1.472062e+00
-2.374800e+00
-3.460490e+00
-4.724889e+00
-6.167730e+00
-7.790099e+00
-9.593509e+00
-1.157629e+01
-1.372993e+01
-1.603864e+01
-1.847579e+01
-2.097713e+01
-2.340334e+01
-2.553070e+01
0.000000e+00
-2.716007e-01
-7.738756e-01
-1.489819e+00
-2.398753e+00
-3.487813e+00
-4.754716e+00
-6.200642e+00
-7.827417e+00
-9.637110e+00
-1.162707e+01
-1.378369e+01
-1.607918e+01
-1.846683e+01
-2.086930e+01
-2.317040e+01
-2.522125e+01
0.000000e+00
-2.745950e-01
-8.150802e-01
-1.551641e+00
-2.469823e+00
-3.563043e+00
-4.831433e+00
-6.278533e+00
-7.906515e+00
-9.717435e+00
-1.170742e+01
-1.385797e+01
-1.613197e+01
-1.847228e+01
-2.080174e+01
-2.303222e+01
-2.508135e+01
0.000000e+00
-3.331392e-01
-9.250325e-01
-1.669418e+00
-2.592388e+00
-3.686312e+00
-4.954540e+00
-6.401266e+00
-8.028145e+00
-9.836082e+00
-1.181901e+01
-1.395511e+01
-1.620338e+01
-1.850419e+01
-2.078417e+01
-2.297417e+01
-2.504898e+01
0.000000e+00
-5.257382e-01
-1.092431e+00
-1.845435e+00
-2.767617e+00
-3.858503e+00
-5.126119e+00
-6.571887e+00
-8.196184e+00
-9.998001e+00
-1.196703e+01
-1.407892e+01
-1.629379e+01
-1.855580e+01
-2.079829e+01
-2.296339e+01
-2.504985e+01


0.000000e+00
1.157444e-05
2.187208e-05
3.208329e-05
4.353271e-05
5.471078e-05
6.505144e-05
7.484651e-05
8.396896e-05
9.185578e-05
9.798032e-05
1.022574e-04
1.051323e-04
1.073270e-04
1.093286e-04
1.119285e-04
1.151366e-04
0.000000e+00
8.528497e-06
1.765188e-05
2.530279e-05
3.414632e-05
4.276126e-05
5.046218e-05
5.771832e-05
6.450213e-05
7.021687e-05
7.437636e-05
7.693426e-05
7.817621e-05
7.841609e-05
7.859379e-05
8.070187e-05
8.427151e-05
0.000000e+00
6.516617e-06
1.273235e-05
1.801153e-05
2.397415e-05
2.960752e-05
3.465437e-05
3.934105e-05
4.357045e-05
4.699626e-05
4.937579e-05
5.069289e-05
5.112413e-05
5.104581e-05
5.127040e-05
5.319037e-05
5.646816e-05
0.000000e+00
3.277180e-06
5.980149e-06
9.059309e-06
1.195681e-05
1.463972e-05
1.715688e-05
1.943419e-05
2.137120e-05
2.289569e-05
2.394086e-05
2.450988e-05
2.475094e-05
2.497512e-05
2.551541e-05
2.680415e-05
2.884379e-05
0.000000e+00
-1.058360e-08
-2.186849e-08
-3.284504e-08
-4.352861e-08
-5.494012e-08
-6.924757e-08
-9.737606e-08
-1.623459e-07
-2.844299e-07
-4.503025e-07
-6.001640e-07
-6.270607e-07
-4.168112e-07
-3.711204e-08
4.556380e-07
1.341098e-06
0.000000e+00
-3.296182e-06
-6.017661e-06
-9.116507e-06
-1.203418e-05
-1.473422e-05
-1.726563e-05
-1.956769e-05
-2.157237e-05
-2.322902e-05
-2.447569e-05
-2.527195e-05
-2.564563e-05
-2.571745e-05
-2.571187e-05
-2.569586e-05
-2.542179e-05
0.000000e+00
-6.525934e-06
-1.275309e-05
-1.805043e-05
-2.403556e-05
-2.968215e-05
-3.473728e-05
-3.943598e-05
-4.362880e-05
-4.690785e-05
-4.909707e-05
-5.036206e-05
-5.101526e-05
-5.134993e-05
-5.156861e-05
-5.170098e-05
-5.164971e-05
0.000000e+00
-8.527842e-06
-1.765153e-05
-2.531069e-05
-3.416917e-05
-4.278614e-05
-5.049108e-05
-5.777746e-05
-6.449760e-05
-6.985425e-05
-7.341356e-05
-7.547383e-05
-7.661711e-05
-7.727397e-05
-7.766565e-05
-7.786335e-05
-7.789739e-05
0.000000e+00
-1.157254e-05
-2.185810e-05
-3.205711e-05
-4.349474e-05
-5.464735e-05
-6.496213e-05
-7.475326e-05
-8.379088e-05
-9.128784e-05
-9.671005e-05
-1.002085e-04
-1.023105e-04
-1.035053e-04
-1.041130e-04
-1.043341e-04
-1.043681e-04
0.000000e+00
9.997477e-06
1.693496e-05
2.587557e-05
3.780690e-05
5.178917e-05
6.826822e-05
8.748079e-05
1.089171e-04
1.319879e-04
1.563165e-04
1.817224e-04
2.081922e-04
2.361777e-04
2.679545e-04
3.048715e-04
3.425466e-04
0.000000e+00
5.324426e-06
1.265770e-05
2.110878e-05
3.265874e-05
4.693804e-05
6.378933e-05
8.325700e-05
1.051270e-04
1.289424e-04
1.541883e-04
1.804389e-04
2.075068e-04
2.356509e-04
2.657762e-04
3.003752e-04
3.369186e-04
0.000000e+00
2.395484e-06
9.036855e-06
1.759288e-05
2.891196e-05
4.341909e-05
6.061744e-05
8.034416e-05
1.025610e-04
1.269166e-04
1.528114e-04
1.796835e-04
2.072243e-04
2.351841e-04
2.632817e-04
2.949470e-04
3.295216e-04
0.000000e+00
1.390221e-06
7.277348e-06
1.594248e-05
2.738382e-05
4.194116e-05
5.926966e-05
7.918046e-05
1.015767e-04
1.261212e-04
1.522376e-04
1.793406e-04
2.069842e-04
2.346718e-04
2.617032e-04
2.909550e-04
3.229848e-04
0.000000e+00
1.176544e-06
6.760715e-06
1.538380e-05
2.695953e-05
4.150319e-05
5.886019e-05
7.886073e-05
1.013480e-04
1.259636e-04
1.521334e-04
1.792498e-04
2.068000e-04
2.342831e-04
2.612807e-04
2.892469e-04
3.186444e-04
0.000000e+00
1.392122e-06
7.274181e-06
1.592927e-05
2.736009e-05
4.190570e-05
5.922845e-05
7.917577e-05
1.016758e-04
1.263402e-04
1.525035e-04
1.795152e-04
2.068818e-04
2.342133e-04
2.613593e-04
2.887748e-04
3.163627e-04
0.000000e+00
2.398535e-06
9.032333e-06
1.757360e-05
2.887638e-05
4.336363e-05
6.055078e-05
8.034108e-05
1.027405e-04
1.273146e-04
1.533164e-04
1.800859e-04
2.071964e-04
2.343714e-04
2.614808e-04
2.885784e-04
3.153873e-04
0.000000e+00
5.328622e-06
1.265712e-05
2.109605e-05
3.262823e-05
4.688413e-05
6.372950e-05
8.326433e-05
1.052956e-04
1.292936e-04
1.546506e-04
1.808780e-04
2.076162e-04
2.345814e-04
2.615776e-04
2.884762e-04
3.150939e-04
0.000000e+00
1.000231e-05
1.693696e-05
2.587079e-05
3.778471e-05
5.174100e-05
6.822464e-05
8.749825e-05
1.090003e-04
1.320873e-04
1.564387e-04
1.818840e-04
2.081379e-04
2.348365e-04
2.616833e-04
2.884655e-04
3.150557e-04


2.277001e+00
2.194816e+00
2.328127e+00
2.521770e+00
2.668731e+00
2.928270e+00
3.258041e+00
3.638133e+00
4.096632e+00
4.593176e+00
5.034829e+00
5.348476e+00
5.469081e+00
5.212217e+00
4.565098e+00
4.033701e+00
3.228063e+00
3.146909e+00
3.217037e+00
3.338685e+00
3.431975e+00
3.616080e+00
3.855661e+00
4.134575e+00
4.477677e+00
4.855527e+00
5.194434e+00
5.432175e+00
5.498912e+00
5.195807e+00
4.530139e+00
3.985551e+00
4.559809e+00
4.505353e+00
4.520035e+00
4.552622e+00
4.577723e+00
4.657655e+00
4.763058e+00
4.888640e+00
5.052307e+00
5.240838e+00
5.414084e+00
5.534338e+00
5.545912e+00
5.281636e+00
4.738743e+00
4.318348e+00
5.352525e+00
5.322191e+00
5.309970e+00
5.293564e+00
5.289484e+00
5.305420e+00
5.326663e+00
5.354324e+00
5.398559e+00
5.457617e+00
5.517686e+00
5.564025e+00
5.566905e+00
5.429887e+00
5.145331e+00
4.924786e+00
5.352542e+00
5.322057e+00
5.309507e+00
5.292578e+00
5.287459e+00
5.301064e+00
5.318457e+00
5.341612e+00
5.381051e+00
5.434581e+00
5.490180e+00
5.539829e+00
5.573028e+00
5.550814e+00
5.464058e+00
5.391991e+00
4.559623e+00
4.504684e+00
4.518406e+00
4.549729e+00
4.572466e+00
4.647418e+00
4.746780e+00
4.869532e+00
5.032350e+00
5.214824e+00
5.377158e+00
5.499852e+00
5.585100e+00
5.630835e+00
5.639316e+00
5.634790e+00
3.227282e+00
3.145405e+00
3.214309e+00
3.334820e+00
3.426398e+00
3.607741e+00
3.849675e+00
4.144748e+00
4.511149e+00
4.898428e+00
5.225381e+00
5.454332e+00
5.597171e+00
5.679304e+00
5.720698e+00
5.736563e+00
2.275693e+00
2.192778e+00
2.324986e+00
2.518128e+00
2.665008e+00
2.925663e+00
3.267377e+00
3.681645e+00
4.185136e+00
4.705816e+00
5.136958e+00
5.431365e+00
5.607072e+00
5.703506e+00
5.751834e+00
5.771645e+00


-5.167528e-01
-2.211797e-01
-1.834624e-01
-2.378541e-01
-1.736691e-01
-1.576210e-01
-1.607798e-01
-1.459088e-01
-1.260016e-01
-8.707167e-02
-3.875732e-03
1.163917e-01
2.513630e-01
4.091910e-01
5.890475e-01
-5.184223e-01
5.243963e-01
4.004833e-01
3.519464e-01
3.031709e-01
3.231991e-01
3.215743e-01
3.128094e-01
3.171952e-01
3.329502e-01
3.741170e-01
4.606799e-01
5.931742e-01
7.525254e-01
8.887871e-01
7.604718e-01
-1.274653e+00
8.306253e-01
7.223153e-01
6.269858e-01
5.818844e-01
5.712008e-01
5.590010e-01
5.498145e-01
5.489209e-01
5.574324e-01
5.824487e-01
6.292032e-01
6.840368e-01
7.012860e-01
5.995364e-01
2.847640e-01
-2.695700e-01
9.152971e-01
8.219817e-01
7.291234e-01
6.762407e-01
6.538818e-01
6.424604e-01
6.341571e-01
6.253816e-01
6.127023e-01
5.945363e-01
5.681201e-01
5.203205e-01
4.270592e-01
2.984626e-01
2.455402e-01
2.665617e-01
9.158623e-01
8.226353e-01
7.295950e-01
6.756387e-01
6.507883e-01
6.347400e-01
6.182102e-01
5.950796e-01
5.588237e-01
5.062829e-01
4.392374e-01
3.635059e-01
2.985454e-01
3.032118e-01
4.385759e-01
6.565211e-01
8.319588e-01
7.239230e-01
6.283776e-01
5.814328e-01
5.662406e-01
5.452900e-01
5.195351e-01
4.887280e-01
4.478888e-01
4.008490e-01
3.596403e-01
3.417097e-01
3.757418e-01
4.939801e-01
6.872333e-01
8.881609e-01
5.253538e-01
4.017818e-01
3.533130e-01
3.038967e-01
3.221671e-01
3.171751e-01
3.000164e-01
2.868123e-01
2.761710e-01
2.860878e-01
3.378840e-01
4.328005e-01
5.637103e-01
7.237605e-01
8.809526e-01
9.804413e-01
-5.179446e-01
-2.225663e-01
-1.848773e-01
-2.393474e-01
-1.740705e-01
-1.544625e-01
-1.531395e-01
-1.317854e-01
-8.531474e-02
2.819736e-02
2.382085e-01
5.025946e-01
7.431421e-01
9.052310e-01
9.814603e-01
9.996310e-01
1 2 19 18
2 3 20 19
3 4 21 20
4 5 22 21
5 6 23 22
6 7 24 23
7 8 25 24
8 9 26 25
9 10 27 26
10 11 28 27
11 12 29 28
12 13 30 29
13 14 31 30
14 15 32 31
15 16 33 32
16 17 34 33
18 19 36 35
19 20 37 36
20 21 38 37
21 22 39 38
22 23 40 39
23 24 41 40
24 25 42 41
25 26 43 42
26 27 44 43
27 28 45 44
28 29 46 45
29 30 47 46
30 31 48 47
31 32 49 48
32 33 50 49
33 34 51 50
35 36 53 52
36 37 54 53
37 38 55 54
38 39 56 55
39 40 57 56
40 41 58 57
41 42 59 58
42 43 60 59
43 44 61 60
44 45 62 61
45 46 63 62
46 47 64 63
47 48 65 64
48 49 66 65
49 50 67 66
50 51 68 67
52 53 70 69
53 54 71 70
54 55 72 71
55 56 73 72
56 57 74 73
57 58 75 74
58 59 76 75
59 60 77 76
60 61 78 77
61 62 79 78
62 63 80 79
63 64 81 80
64 65 82 81
65 66 83 82
66 67 84 83
67 68 85 84
69 70 87 86
70 71 88 87
71 72 89 88
72 73 90 89
73 74 91 90
74 75 92 91
75 76 93 92
76 77 94 93
77 78 95 94
78 79 96 95
79 80 97 96
80 81 98 97
81 82 99 98
82 83 100 99
83 84 101 100
84 85 102 101
86 87 104 103
87 88 105 104
88 89 106 105
89 90 107 106
90 91 108 107
91 92 109 108
92 93 110 109
93 94 111 110
94 95 112 111
95 96 113 112
96 97 114 113
97 98 115 114
98 99 116 115
99 100 117 116
100 101 118 117
101 102 119 118
103 104 121 120
104 105 122 121
105 106 123 122
106 107 124 123
107 108 125 124
108 109 126 125
109 110 127 126
110 111 128 127
111 112 129 128
112 113 130 129
113 114 131 130
114 115 132 131
115 116 133 132
116 117 134 133
117 118 135 134
118 119 136 135
120 121 138 137
121 122 139 138
122 123 140 139
123 124 141 140
124 125 142 141
125 126 143 142
126 127 144 143
127 128 145 144
128 129 146 145
129 130 147 146
130 131 148 147
131 132 149 148
132 133 150 149
133 134 151 150
134 135 152 151
135 136 153 152
