TITLE = "Solution"
VARIABLES = x, y, u, v, psiu, psiv, t, stress
ZONE T="structure" N=153 E=128 F=FEBLOCK ET=QUADRILATERAL VARLOCATION=([7,8]=cellcentered)
0.000000e+00
1.250000e+01
2.500000e+01
3.750000e+01
5.000000e+01
6.250000e+01
7.500000e+01
8.750000e+01
1.000000e+02
1.125000e+02
1.250000e+02
1.375000e+02
1.500000e+02
1.625000e+02
1.750000e+02
1.875000e+02
2.000000e+02
0.000000e+00
1.250000e+01
2.500000e+01
3.750000e+01
5.000000e+01
6.250000e+01
7.500000e+01
8.750000e+01
1.000000e+02
1.125000e+02
1.250000e+02
1.375000e+02
1.500000e+02
1.625000e+02
1.750000e+02
1.875000e+02
2.000000e+02
0.000000e+00
1.250000e+01
2.500000e+01
3.750000e+01
5.000000e+01
6.250000e+01
7.500000e+01
8.750000e+01
1.000000e+02
1.125000e+02
1.250000e+02
1.375000e+02
1.500000e+02
1.625000e+02
1.750000e+02
1.875000e+02
2.000000e+02
0.000000e+00
1.250000e+01
2.500000e+01
3.750000e+01
5.000000e+01
6.250000e+01
7.500000e+01
8.750000e+01
1.000000e+02
1.125000e+02
1.250000e+02
1.375000e+02
1.500000e+02
1.625000e+02
1.750000e+02
1.875000e+02
2.000000e+02
0.000000e+00
1.250000e+01
2.500000e+01
3.750000e+01
5.000000e+01
6.250000e+01
7.500000e+01
8.750000e+01
1.000000e+02
1.125000e+02
1.250000e+02
1.375000e+02
1.500000e+02
1.625000e+02
1.750000e+02
1.875000e+02
2.000000e+02
0.000000e+00
1.250000e+01
2.500000e+01
3.750000e+01
5.000000e+01
6.250000e+01
7.500000e+01
8.750000e+01
1.000000e+02
1.125000e+02
1.250000e+02
1.375000e+02
1.500000e+02
1.625000e+02
1.750000e+02
1.875000e+02
2.000000e+02
0.000000e+00
1.250000e+01
2.500000e+01
3.750000e+01
5.000000e+01
6.250000e+01
7.500000e+01
8.750000e+01
1.000000e+02
1.125000e+02
1.250000e+02
1.375000e+02
1.500000e+02
1.625000e+02
1.750000e+02
1.875000e+02
2.000000e+02
0.000000e+00
1.250000e+01
2.500000e+01
3.750000e+01
5.000000e+01
6.250000e+01
7.500000e+01
8.750000e+01
1.000000e+02
1.125000e+02
1.250000e+02
1.375000e+02
1.500000e+02
1.625000e+02
1.750000e+02
1.875000e+02
2.000000e+02
0.000000e+00
1.250000e+01
2.500000e+01
3.750000e+01
5.000000e+01
6.250000e+01
7.500000e+01
8.750000e+01
1.000000e+02
1.125000e+02
1.250000e+02
1.375000e+02
1.500000e+02
1.625000e+02
1.750000e+02
1.875000e+02
2.000000e+02
0.000000e+00
0.000000e+00
0.000000e+00
0.000000e+00
0.000000e+00
0.000000e+00
0.000000e+00
0.000000e+00
0.000000e+00
0.000000e+00
0.000000e+00
0.000000e+00
0.000000e+00
0.000000e+00
0.000000e+00
0.000000e+00
0.000000e+00
1.250000e+01
1.250000e+01
1.250000e+01
1.250000e+01
1.250000e+01
1.250000e+01
1.250000e+01
1.250000e+01
1.250000e+01
1.250000e+01
1.250000e+01
1.250000e+01
1.250000e+01
1.250000e+01
1.250000e+01
1.250000e+01
1.250000e+01
2.500000e+01
2.500000e+01
2.500000e+01
2.500000e+01
2.500000e+01
2.500000e+01
2.500000e+01
2.500000e+01
2.500000e+01
2.500000e+01
2.500000e+01
2.500000e+01
2.500000e+01
2.500000e+01
2.500000e+01
2.500000e+01
2.500000e+01
3.750000e+01
3.750000e+01
3.750000e+01
3.750000e+01
3.750000e+01
3.750000e+01
3.750000e+01
3.750000e+01
3.750000e+01
3.750000e+01
3.750000e+01
3.750000e+01
3.750000e+01
3.750000e+01
3.750000e+01
3.750000e+01
3.750000e+01
5.000000e+01
5.000000e+01
5.000000e+01
5.000000e+01
5.000000e+01
5.000000e+01
5.000000e+01
5.000000e+01
5.000000e+01
5.000000e+01
5.000000e+01
5.000000e+01
5.000000e+01
5.000000e+01
5.000000e+01
5.000000e+01
5.000000e+01
6.250000e+01
6.250000e+01
6.250000e+01
6.250000e+01
6.250000e+01
6.250000e+01
6.250000e+01
6.250000e+01
6.250000e+01
6.250000e+01
6.250000e+01
6.250000e+01
6.250000e+01
6.250000e+01
6.250000e+01
6.250000e+01
6.250000e+01
7.500000e+01
7.500000e+01
7.500000e+01
7.500000e+01
7.500000e+01
7.500000e+01
7.500000e+01
7.500000e+01
7.500000e+01
7.500000e+01
7.500000e+01
7.500000e+01
7.500000e+01
7.500000e+01
7.500000e+01
7.500000e+01
7.500000e+01
8.750000e+01
8.750000e+01
8.750000e+01
8.750000e+01
8.750000e+01
8.750000e+01
8.750000e+01
8.750000e+01
8.750000e+01
8.750000e+01
8.750000e+01
8.750000e+01
8.750000e+01
8.750000e+01
8.750000e+01
8.750000e+01
8.750000e+01
1.000000e+02
1.000000e+02
1.000000e+02
1.000000e+02
1.000000e+02
1.000000e+02
1.000000e+02
1.000000e+02
1.000000e+02
1.000000e+02
1.000000e+02
1.000000e+02
1.000000e+02
1.000000e+02
1.000000e+02
1.000000e+02
1.000000e+02
0.000000e+00
-8.376709e-01
-1.514951e+00
-2.174255e+00
-2.846502e+00
-3.503983e+00
-4.153896e+00
-4.802110e+00
-5.444321e+00
-6.073748e+00
-6.681150e+00
-7.258069e+00
-7.805495e+00
-8.340172e+00
-8.892013e+00
-9.497918e+00
-9.922525e+00
0.000000e+00
-4.594873e-01
-9.553882e-01
-1.446518e+00
-1.949931e+00
-2.442478e+00
-2.928398e+00
-3.412462e+00
-3.891491e+00
-4.359662e+00
-4.807960e+00
-5.224805e+00
-5.598851e+00
-5.913775e+00
-6.128692e+00
-6.176604e+00
-6.316613e+00
0.000000e+00
-2.560898e-01
-5.399405e-01
-8.590004e-01
-1.192464e+00
-1.522990e+00
-1.851123e+00
-2.176432e+00
-2.494810e+00
-2.799882e+00
-3.081719e+00
-3.326576e+00
-3.516968e+00
-3.629627e+00
-3.641715e+00
-3.609698e+00
-3.755607e+00
0.000000e+00
-1.133718e-01
-2.432305e-01
-3.957942e-01
-5.598622e-01
-7.264551e-01
-8.925745e-01
-1.055190e+00
-1.210278e+00
-1.351979e+00
-1.471753e+00
-1.558529e+00
-1.600288e+00
-1.589891e+00
-1.547635e+00
-1.554827e+00
-1.670935e+00
0.000000e+00
-5.743702e-04
-1.192625e-03
-1.748009e-03
-2.030508e-03
-1.650890e-03
9.366336e-05
4.447274e-03
1.353769e-02
3.069818e-02
6.044853e-02
1.075218e-01
1.736832e-01
2.499388e-01
3.051470e-01
2.971547e-01
2.152240e-01
0.000000e+00
1.124011e-01
2.411884e-01
3.927287e-01
5.561354e-01
7.230542e-01
8.916121e-01
1.060792e+00
1.229940e+00
1.398396e+00
1.564816e+00
1.726311e+00
1.876226e+00
2.000081e+00
2.075295e+00
2.084147e+00
2.041105e+00
0.000000e+00
2.555984e-01
5.388372e-01
8.571903e-01
1.189934e+00
1.519910e+00
1.848087e+00
2.174917e+00
2.497462e+00
2.810487e+00
3.105458e+00
3.371221e+00
3.595508e+00
3.765400e+00
3.868947e+00
3.903253e+00
3.893313e+00
0.000000e+00
4.595931e-01
9.554921e-01
1.446535e+00
1.949678e+00
2.441480e+00
2.925902e+00
3.407457e+00
3.881619e+00
4.338221e+00
4.760492e+00
5.127737e+00
5.422008e+00
5.632890e+00
5.759931e+00
5.814306e+00
5.824373e+00
0.000000e+00
8.381509e-01
1.516098e+00
2.176279e+00
2.849522e+00
3.507766e+00
4.157905e+00
4.805226e+00
5.442445e+00
6.053857e+00
6.613361e+00
7.088653e+00
7.451636e+00
7.687352e+00
7.801764e+00
7.829592e+00
7.828800e+00
0.000000e+00
-5.153504e-01
-1.062285e+00
-1.787695e+00
-2.679122e+00
-3.736296e+00
-4.964485e+00
-6.363740e+00
-7.931097e+00
-9.661667e+00
-1.154728e+01
-1.357869e+01
-1.575181e+01
-1.807776e+01
-2.062132e+01
-2.359632e+01
-2.801060e+01
0.000000e+00
-3.249844e-01
-8.955805e-01
-1.613661e+00
-2.505249e+00
-3.565384e+00
-4.794865e+00
-6.195404e+00
-7.765756e+00
-9.501878e+00
-1.139638e+01
-1.343961e+01
-1.562604e+01
-1.796830e+01
-2.052387e+01
-2.349005e+01
-2.717350e+01
0.000000e+00
-2.639157e-01
-7.847938e-01
-1.495742e+00
-2.383601e+00
-3.444048e+00
-4.675187e+00
-6.078417e+00
-7.653404e+00
-9.397245e+00
-1.130358e+01
-1.336349e+01
-1.557235e+01
-1.794181e+01
-2.050853e+01
-2.330146e+01
-2.596025e+01
0.000000e+00
-2.555848e-01
-7.402561e-01
-1.432392e+00
-2.313776e+00
-3.372666e+00
-4.605776e+00
-6.013225e+00
-7.594973e+00
-9.348956e+00
-1.126939e+01
-1.334710e+01
-1.557408e+01
-1.794764e+01
-2.045225e+01
-2.297583e+01
-2.522267e+01
0.000000e+00
-2.573796e-01
-7.305173e-01
-1.414472e+00
-2.292106e+00
-3.350925e+00
-4.586284e+00
-5.998002e+00
-7.586452e+00
-9.350033e+00
-1.128250e+01
-1.337181e+01
-1.560102e+01
-1.794500e+01
-2.034649e+01
-2.268047e+01
-2.474281e+01
0.000000e+00
-2.553956e-01
-7.403120e-01
-1.433200e+00
-2.316084e+00
-3.377570e+00
-4.614917e+00
-6.029238e+00
-7.621815e+00
-9.391302e+00
-1.133015e+01
-1.342159e+01
-1.563806e+01
-1.793647e+01
-2.024742e+01
-2.246673e+01
-2.446015e+01
0.000000e+00
-2.635894e-01
-7.848496e-01
-1.496984e+00
-2.387267e+00
-3.451969e+00
-4.690132e+00
-6.104861e+00
-7.698101e+00
-9.468289e+00
-1.140626e+01
-1.349090e+01
-1.568664e+01
-1.794146e+01
-2.018604e+01
-2.234135e+01
-2.433313e+01
0.000000e+00
-3.246553e-01
-8.956381e-01
-1.615020e+00
-2.509311e+00
-3.574237e+00
-4.811724e+00
-6.225435e+00
-7.816547e+00
-9.582230e+00
-1.151159e+01
-1.358108e+01
-1.575213e+01
-1.797053e+01
-2.017021e+01
-2.228887e+01
-2.430364e+01
0.000000e+00
-5.151572e-01
-1.062473e+00
-1.789224e+00
-2.683362e+00
-3.745301e+00
-4.981489e+00
-6.393764e+00
-7.980785e+00
-9.737402e+00
-1.165033e+01
-1.369519e+01
-1.583462e+01
-1.801742e+01
-2.018305e+01
-2.227916e+01
-2.430436e+01


0.000000e+00
1.065655e-05
2.054433e-05
3.009189e-05
4.037812e-05
5.044139e-05
5.968423e-05
6.812006e-05
7.555370e-05
8.157133e-05
8.598121e-05
8.897768e-05
9.100624e-05
9.259306e-05
9.412430e-05
9.625470e-05
9.899700e-05
0.000000e+00
7.841902e-06
1.657160e-05
2.376542e-05
3.162834e-05
3.933328e-05
4.624264e-05
5.246982e-05
5.791353e-05
6.217635e-05
6.509172e-05
6.684414e-05
6.771508e-05
6.790698e-05
6.808917e-05
6.981284e-05
7.275973e-05
0.000000e+00
5.934884e-06
1.180966e-05
1.676689e-05
2.207297e-05
2.710057e-05
3.159235e-05
3.558369e-05
3.897786e-05
4.155948e-05
4.325361e-05
4.415981e-05
4.445681e-05
4.442491e-05
4.464617e-05
4.614305e-05
4.869713e-05
0.000000e+00
2.970631e-06
5.534524e-06
8.359224e-06
1.098925e-05
1.340099e-05
1.560225e-05
1.753888e-05
1.913182e-05
2.032945e-05
2.111101e-05
2.151611e-05
2.168399e-05
2.185478e-05
2.225949e-05
2.319002e-05
2.469090e-05
0.000000e+00
-7.659438e-09
-1.576413e-08
-2.386569e-08
-3.218776e-08
-4.160125e-08
-5.547818e-08
-8.343343e-08
-1.395264e-07
-2.305167e-07
-3.438114e-07
-4.394073e-07
-4.452648e-07
-2.884005e-07
-2.285065e-08
3.212216e-07
9.605615e-07
0.000000e+00
-2.984298e-06
-5.561598e-06
-8.401130e-06
-1.104628e-05
-1.347196e-05
-1.568948e-05
-1.765739e-05
-1.931329e-05
-2.061736e-05
-2.154602e-05
-2.210724e-05
-2.235738e-05
-2.240116e-05
-2.239604e-05
-2.237893e-05
-2.217091e-05
0.000000e+00
-5.941162e-06
-1.182551e-05
-1.679657e-05
-2.211764e-05
-2.715788e-05
-3.166432e-05
-3.566080e-05
-3.901510e-05
-4.150487e-05
-4.311473e-05
-4.403307e-05
-4.450406e-05
-4.474423e-05
-4.490004e-05
-4.498991e-05
-4.494539e-05
0.000000e+00
-7.841038e-06
-1.657379e-05
-2.377560e-05
-3.164755e-05
-3.936007e-05
-4.628821e-05
-5.252026e-05
-5.785967e-05
-6.185345e-05
-6.442754e-05
-6.593161e-05
-6.678327e-05
-6.727511e-05
-6.756620e-05
-6.771185e-05
-6.773591e-05
0.000000e+00
-1.065651e-05
-2.053852e-05
-3.008063e-05
-4.035895e-05
-5.041070e-05
-5.964948e-05
-6.806628e-05
-7.537033e-05
-8.107521e-05
-8.504996e-05
-8.759264e-05
-8.913422e-05
-9.002447e-05
-9.048666e-05
-9.065945e-05
-9.068722e-05
0.000000e+00
9.273811e-06
1.582534e-05
2.399537e-05
3.485245e-05
4.772044e-05
6.273465e-05
7.994865e-05
9.892978e-05
1.192014e-04
1.404984e-04
1.626711e-04
1.856420e-04
2.097226e-04
2.367041e-04
2.678095e-04
2.997308e-04
0.000000e+00
4.863113e-06
1.171021e-05
1.962024e-05
3.023144e-05
4.334836e-05
5.878028e-05
7.641172e-05
9.596334e-05
1.169784e-04
1.390215e-04
1.617897e-04
1.851572e-04
2.093069e-04
2.349429e-04
2.640853e-04
2.949852e-04
0.000000e+00
2.150627e-06
8.313766e-06
1.640519e-05
2.690677e-05
4.022316e-05
5.599654e-05
7.397274e-05
9.393904e-05
1.154737e-04
1.380500e-04
1.612707e-04
1.849533e-04
2.089475e-04
2.330490e-04
2.598523e-04
2.890648e-04
0.000000e+00
1.236300e-06
6.707402e-06
1.486940e-05
2.551898e-05
3.891654e-05
5.481546e-05
7.296060e-05
9.310047e-05
1.148223e-04
1.376089e-04
1.610261e-04
1.847818e-04
2.085563e-04
2.319281e-04
2.569418e-04
2.840592e-04
0.000000e+00
1.051548e-06
6.246154e-06
1.435137e-05
2.512346e-05
3.853810e-05
5.446848e-05
7.268014e-05
9.288818e-05
1.146695e-04
1.375120e-04
1.609552e-04
1.846495e-04
2.082769e-04
2.316227e-04
2.557193e-04
2.808208e-04
0.000000e+00
1.237104e-06
6.704536e-06
1.486036e-05
2.550240e-05
3.889275e-05
5.479651e-05
7.297863e-05
9.318637e-05
1.149726e-04
1.377799e-04
1.611340e-04
1.847006e-04
2.082358e-04
2.316718e-04
2.553458e-04
2.791289e-04
0.000000e+00
2.151721e-06
8.309496e-06
1.639194e-05
2.688175e-05
4.018633e-05
5.596848e-05
7.400978e-05
9.409707e-05
1.157521e-04
1.383827e-04
1.615337e-04
1.849183e-04
2.083536e-04
2.317632e-04
2.551859e-04
2.783996e-04
0.000000e+00
4.865337e-06
1.170944e-05
1.961174e-05
3.021129e-05
4.331833e-05
5.876283e-05
7.645550e-05
9.611258e-05
1.172373e-04
1.393532e-04
1.621037e-04
1.852231e-04
2.085120e-04
2.318383e-04
2.551080e-04
2.781745e-04
0.000000e+00
9.277536e-06
1.582820e-05
2.399342e-05
3.484012e-05
4.770236e-05
6.273299e-05
7.998170e-05
9.899304e-05
1.192937e-04
1.406399e-04
1.628339e-04
1.856103e-04
2.087058e-04
2.319204e-04
2.551008e-04
2.781436e-04


2.206077e+00
2.142750e+00
2.284018e+00
2.502053e+00
2.671226e+00
2.921700e+00
3.248193e+00
3.618226e+00
4.014853e+00
4.394349e+00
4.702637e+00
4.908045e+00
4.974111e+00
4.767682e+00
4.292103e+00
3.912052e+00
2.973636e+00
2.910276e+00
2.993879e+00
3.141557e+00
3.257941e+00
3.441035e+00
3.685034e+00
3.964525e+00
4.268501e+00
4.563029e+00
4.803466e+00
4.961070e+00
4.995074e+00
4.765824e+00
4.289403e+00
3.911932e+00
4.090315e+00
4.044366e+00
4.069958e+00
4.123601e+00
4.166120e+00
4.251078e+00
4.367446e+00
4.504445e+00
4.659706e+00
4.815080e+00
4.943838e+00
5.026604e+00
5.029417e+00
4.837404e+00
4.457522e+00
4.169612e+00
4.781578e+00
4.753832e+00
4.746998e+00
4.743716e+00
4.749023e+00
4.771636e+00
4.804686e+00
4.847227e+00
4.900973e+00
4.959384e+00
5.010861e+00
5.046456e+00
5.047474e+00
4.948887e+00
4.749408e+00
4.597868e+00
4.781621e+00
4.753771e+00
4.746716e+00
4.743002e+00
4.747385e+00
4.768285e+00
4.798934e+00
4.838608e+00
4.888844e+00
4.943281e+00
4.992199e+00
5.031059e+00
5.054077e+00
5.036193e+00
4.973392e+00
4.922545e+00
4.090190e+00
4.043905e+00
4.068861e+00
4.121415e+00
4.161806e+00
4.243586e+00
4.357185e+00
4.492604e+00
4.645075e+00
4.793993e+00
4.915948e+00
5.003700e+00
5.062229e+00
5.091848e+00
5.095704e+00
5.091535e+00
2.972902e+00
2.909004e+00
2.991758e+00
3.138271e+00
3.252929e+00
3.435293e+00
3.683637e+00
3.973641e+00
4.287316e+00
4.582031e+00
4.814360e+00
4.972006e+00
5.069166e+00
5.124528e+00
5.152155e+00
5.162684e+00
2.204774e+00
2.140841e+00
2.281280e+00
2.498470e+00
2.667008e+00
2.919945e+00
3.257929e+00
3.649613e+00
4.067550e+00
4.454595e+00
4.755583e+00
4.955891e+00
5.074990e+00
5.140618e+00
5.173647e+00
5.187254e+00


-4.824221e-01
-2.137719e-01
-1.604271e-01
-2.116296e-01
-1.618032e-01
-1.350014e-01
-1.292438e-01
-1.087278e-01
-6.314425e-02
1.717188e-02
1.318288e-01
2.587756e-01
3.768078e-01
4.910286e-01
6.177204e-01
-4.725201e-01
5.189751e-01
3.993289e-01
3.622997e-01
3.205087e-01
3.350122e-01
3.405397e-01
3.382271e-01
3.474424e-01
3.774641e-01
4.388087e-01
5.367739e-01
6.630785e-01
8.004922e-01
9.091503e-01
7.733332e-01
-1.224727e+00
8.319791e-01
7.340735e-01
6.514515e-01
6.118928e-01
6.020211e-01
5.941488e-01
5.881855e-01
5.897663e-01
6.037032e-01
6.355913e-01
6.853511e-01
7.373260e-01
7.519737e-01
6.571695e-01
3.501940e-01
-1.911022e-01
9.272781e-01
8.453652e-01
7.686716e-01
7.251505e-01
7.067242e-01
6.969523e-01
6.883187e-01
6.782376e-01
6.662857e-01
6.527978e-01
6.345052e-01
5.982460e-01
5.225574e-01
4.118457e-01
3.530469e-01
3.596869e-01
9.277867e-01
8.459877e-01
7.691910e-01
7.248656e-01
7.044779e-01
6.908615e-01
6.750651e-01
6.523614e-01
6.199964e-01
5.774615e-01
5.259039e-01
4.684096e-01
4.195199e-01
4.251975e-01
5.350410e-01
7.135966e-01
8.331592e-01
7.355697e-01
6.528567e-01
6.119487e-01
5.985532e-01
5.833220e-01
5.629123e-01
5.385511e-01
5.104017e-01
4.816611e-01
4.586095e-01
4.525879e-01
4.862491e-01
5.857096e-01
7.441452e-01
9.081846e-01
5.198036e-01
4.004901e-01
3.634930e-01
3.213596e-01
3.347192e-01
3.370741e-01
3.270850e-01
3.224950e-01
3.330573e-01
3.695624e-01
4.363901e-01
5.282569e-01
6.415029e-01
7.742147e-01
9.027810e-01
9.839626e-01
-4.833750e-01
-2.150741e-01
-1.619878e-01
-2.131893e-01
-1.621680e-01
-1.334128e-01
-1.247466e-01
-9.424114e-02
-1.659268e-02
1.316078e-01
3.466737e-01
5.842688e-01
7.881507e-01
9.222788e-01
9.847971e-01
9.996930e-01
1 2 19 18
2 3 20 19
3 4 21 20
4 5 22 21
5 6 23 22
6 7 24 23
7 8 25 24
8 9 26 25
9 10 27 26
10 11 28 27
11 12 29 28
12 13 30 29
13 14 31 30
14 15 32 31
15 16 33 32
16 17 34 33
18 19 36 35
19 20 37 36
20 21 38 37
21 22 39 38
22 23 40 39
23 24 41 40
24 25 42 41
25 26 43 42
26 27 44 43
27 28 45 44
28 29 46 45
29 30 47 46
30 31 48 47
31 32 49 48
32 33 50 49
33 34 51 50
35 36 53 52
36 37 54 53
37 38 55 54
38 39 56 55
39 40 57 56
40 41 58 57
41 42 59 58
42 43 60 59
43 44 61 60
44 45 62 61
45 46 63 62
46 47 64 63
47 48 65 64
48 49 66 65
49 50 67 66
50 51 68 67
52 53 70 69
53 54 71 70
54 55 72 71
55 56 73 72
56 57 74 73
57 58 75 74
58 59 76 75
59 60 77 76
60 61 78 77
61 62 79 78
62 63 80 79
63 64 81 80
64 65 82 81
65 66 83 82
66 67 84 83
67 68 85 84
69 70 87 86
70 71 88 87
71 72 89 88
72 73 90 89
73 74 91 90
74 75 92 91
75 76 93 92
76 77 94 93
77 78 95 94
78 79 96 95
79 80 97 96
80 81 98 97
81 82 99 98
82 83 100 99
83 84 101 100
84 85 102 101
86 87 104 103
87 88 105 104
88 89 106 105
89 90 107 106
90 91 108 107
91 92 109 108
92 93 110 109
93 94 111 110
94 95 112 111
95 96 113 112
96 97 114 113
97 98 115 114
98 99 116 115
99 100 117 116
100 101 118 117
101 102 119 118
103 104 121 120
104 105 122 121
105 106 123 122
106 107 124 123
107 108 125 124
108 109 126 125
109 110 127 126
110 111 128 127
111 112 129 128
112 113 130 129
113 114 131 130
114 115 132 131
115 116 133 132
116 117 134 133
117 118 135 134
118 119 136 135
120 121 138 137
121 122 139 138
122 123 140 139
123 124 141 140
124 125 142 141
125 126 143 142
126 127 144 143
127 128 145 144
128 129 146 145
129 130 147 146
130 131 148 147
131 132 149 148
132 133 150 149
133 134 151 150
134 135 152 151
135 136 153 152
