TITLE = "Solution"
VARIABLES = x, y, u, v, psiu, psiv, t, stress
ZONE T="structure" N=153 E=128 F=FEBLOCK ET=QUADRILATERAL VARLOCATION=([7,8]=cellcentered)
0.000000e+00
1.250000e+01
2.500000e+01
3.750000e+01
5.000000e+01
6.250000e+01
7.500000e+01
8.750000e+01
1.000000e+02
1.125000e+02
1.250000e+02
1.375000e+02
1.500000e+02
1.625000e+02
1.750000e+02
1.875000e+02
2.000000e+02
0.000000e+00
1.250000e+01
2.500000e+01
3.750000e+01
5.000000e+01
6.250000e+01
7.500000e+01
8.750000e+01
1.000000e+02
1.125000e+02
1.250000e+02
1.375000e+02
1.500000e+02
1.625000e+02
1.750000e+02
1.875000e+02
2.000000e+02
0.000000e+00
1.250000e+01
2.500000e+01
3.750000e+01
5.000000e+01
6.250000e+01
7.500000e+01
8.750000e+01
1.000000e+02
1.125000e+02
1.250000e+02
1.375000e+02
1.500000e+02
1.625000e+02
1.750000e+02
1.875000e+02
2.000000e+02
0.000000e+00
1.250000e+01
2.500000e+01
3.750000e+01
5.000000e+01
6.250000e+01
7.500000e+01
8.750000e+01
1.000000e+02
1.125000e+02
1.250000e+02
1.375000e+02
1.500000e+02
1.625000e+02
1.750000e+02
1.875000e+02
2.000000e+02
0.000000e+00
1.250000e+01
2.500000e+01
3.750000e+01
5.000000e+01
6.250000e+01
7.500000e+01
8.750000e+01
1.000000e+02
1.125000e+02
1.250000e+02
1.375000e+02
1.500000e+02
1.625000e+02
1.750000e+02
1.875000e+02
2.000000e+02
0.000000e+00
1.250000e+01
2.500000e+01
3.750000e+01
5.000000e+01
6.250000e+01
7.500000e+01
8.750000e+01
1.000000e+02
1.125000e+02
1.250000e+02
1.375000e+02
1.500000e+02
1.625000e+02
1.750000e+02
1.875000e+02
2.000000e+02
0.000000e+00
1.250000e+01
2.500000e+01
3.750000e+01
5.000000e+01
6.250000e+01
7.500000e+01
8.750000e+01
1.000000e+02
1.125000e+02
1.250000e+02
1.375000e+02
1.500000e+02
1.625000e+02
1.750000e+02
1.875000e+02
2.000000e+02
0.000000e+00
1.250000e+01
2.500000e+01
3.750000e+01
5.000000e+01
6.250000e+01
7.500000e+01
8.750000e+01
1.000000e+02
1.125000e+02
1.250000e+02
1.375000e+02
1.500000e+02
1.625000e+02
1.750000e+02
1.875000e+02
2.000000e+02
0.000000e+00
1.250000e+01
2.500000e+01
3.750000e+01
5.000000e+01
6.250000e+01
7.500000e+01
8.750000e+01
1.000000e+02
1.125000e+02
1.250000e+02
1.375000e+02
1.500000e+02
1.625000e+02
1.750000e+02
1.875000e+02
2.000000e+02
0.000000e+00
0.000000e+00
0.000000e+00
0.000000e+00
0.000000e+00
0.000000e+00
0.000000e+00
0.000000e+00
0.000000e+00
0.000000e+00
0.000000e+00
0.000000e+00
0.000000e+00
0.000000e+00
0.000000e+00
0.000000e+00
0.000000e+00
1.250000e+01
1.250000e+01
1.250000e+01
1.250000e+01
1.250000e+01
1.250000e+01
1.250000e+01
1.250000e+01
1.250000e+01
1.250000e+01
1.250000e+01
1.250000e+01
1.250000e+01
1.250000e+01
1.250000e+01
1.250000e+01
1.250000e+01
2.500000e+01
2.500000e+01
2.500000e+01
2.500000e+01
2.500000e+01
2.500000e+01
2.500000e+01
2.500000e+01
2.500000e+01
2.500000e+01
2.500000e+01
2.500000e+01
2.500000e+01
2.500000e+01
2.500000e+01
2.500000e+01
2.500000e+01
3.750000e+01
3.750000e+01
3.750000e+01
3.750000e+01
3.750000e+01
3.750000e+01
3.750000e+01
3.750000e+01
3.750000e+01
3.750000e+01
3.750000e+01
3.750000e+01
3.750000e+01
3.750000e+01
3.750000e+01
3.750000e+01
3.750000e+01
5.000000e+01
5.000000e+01
5.000000e+01
5.000000e+01
5.000000e+01
5.000000e+01
5.000000e+01
5.000000e+01
5.000000e+01
5.000000e+01
5.000000e+01
5.000000e+01
5.000000e+01
5.000000e+01
5.000000e+01
5.000000e+01
5.000000e+01
6.250000e+01
6.250000e+01
6.250000e+01
6.250000e+01
6.250000e+01
6.250000e+01
6.250000e+01
6.250000e+01
6.250000e+01
6.250000e+01
6.250000e+01
6.250000e+01
6.250000e+01
6.250000e+01
6.250000e+01
6.250000e+01
6.250000e+01
7.500000e+01
7.500000e+01
7.500000e+01
7.500000e+01
7.500000e+01
7.500000e+01
7.500000e+01
7.500000e+01
7.500000e+01
7.500000e+01
7.500000e+01
7.500000e+01
7.500000e+01
7.500000e+01
7.500000e+01
7.500000e+01
7.500000e+01
8.750000e+01
8.750000e+01
8.750000e+01
8.750000e+01
8.750000e+01
8.750000e+01
8.750000e+01
8.750000e+01
8.750000e+01
8.750000e+01
8.750000e+01
8.750000e+01
8.750000e+01
8.750000e+01
8.750000e+01
8.750000e+01
8.750000e+01
1.000000e+02
1.000000e+02
1.000000e+02
1.000000e+02
1.000000e+02
1.000000e+02
1.000000e+02
1.000000e+02
1.000000e+02
1.000000e+02
1.000000e+02
1.000000e+02
1.000000e+02
1.000000e+02
1.000000e+02
1.000000e+02
1.000000e+02
0.000000e+00
-6.885113e-02
-1.267768e-01
-1.800759e-01
-2.297121e-01
-2.755809e-01
-3.175838e-01
-3.556882e-01
-3.899496e-01
-4.205258e-01
-4.477200e-01
-4.720635e-01
-4.944709e-01
-5.165216e-01
-5.409399e-01
-5.709287e-01
-5.934321e-01
0.000000e+00
-4.111670e-02
-8.541194e-02
-1.263158e-01
-1.640007e-01
-1.986100e-01
-2.302156e-01
-2.588597e-01
-2.845940e-01
-3.074978e-01
-3.276873e-01
-3.453081e-01
-3.604726e-01
-3.730247e-01
-3.818784e-01
-3.838190e-01
-3.907765e-01
0.000000e+00
-2.571323e-02
-5.287282e-02
-7.996850e-02
-1.052615e-01
-1.284839e-01
-1.496170e-01
-1.686846e-01
-1.856916e-01
-2.006094e-01
-2.133580e-01
-2.237590e-01
-2.314418e-01
-2.357306e-01
-2.358496e-01
-2.341363e-01
-2.412324e-01
0.000000e+00
-1.241080e-02
-2.554928e-02
-3.877073e-02
-5.141281e-02
-6.305693e-02
-7.361117e-02
-8.304479e-02
-9.130380e-02
-9.828073e-02
-1.037973e-01
-1.075930e-01
-1.093573e-01
-1.089452e-01
-1.072517e-01
-1.077148e-01
-1.129986e-01
0.000000e+00
-1.143247e-05
-2.598961e-05
-4.049894e-05
-4.819920e-05
-3.401317e-05
3.198556e-05
2.034962e-04
5.686196e-04
1.258587e-03
2.444607e-03
4.298675e-03
6.867263e-03
9.769896e-03
1.177495e-02
1.122502e-02
7.726710e-03
0.000000e+00
1.239321e-02
2.550845e-02
3.870541e-02
5.133156e-02
6.299085e-02
7.363681e-02
8.332152e-02
9.212896e-02
1.001613e-01
1.075234e-01
1.142699e-01
1.202836e-01
1.251058e-01
1.279425e-01
1.281675e-01
1.263919e-01
0.000000e+00
2.571034e-02
5.286402e-02
7.995100e-02
1.052341e-01
1.284499e-01
1.495888e-01
1.686938e-01
1.858046e-01
2.009516e-01
2.141479e-01
2.253613e-01
2.344629e-01
2.411920e-01
2.452310e-01
2.465424e-01
2.461284e-01
0.000000e+00
4.113356e-02
8.544861e-02
1.263742e-01
1.640791e-01
1.986940e-01
2.302627e-01
2.587736e-01
2.841832e-01
3.064182e-01
3.253732e-01
3.409170e-01
3.529253e-01
3.613584e-01
3.663890e-01
3.685342e-01
3.689282e-01
0.000000e+00
6.887933e-02
1.268512e-01
1.802152e-01
2.299348e-01
2.758941e-01
3.179574e-01
3.560023e-01
3.899018e-01
4.194796e-01
4.444792e-01
4.645674e-01
4.794142e-01
4.889029e-01
4.934918e-01
4.946245e-01
4.946026e-01
0.000000e+00
-4.167748e-02
-8.181770e-02
-1.338301e-01
-1.976645e-01
-2.732015e-01
-3.596139e-01
-4.559346e-01
-5.611393e-01
-6.742174e-01
-7.942354e-01
-9.204501e-01
-1.052557e+00
-1.191262e+00
-1.340164e+00
-1.510534e+00
-1.755325e+00
0.000000e+00
-2.565742e-02
-6.753026e-02
-1.201876e-01
-1.850653e-01
-2.616332e-01
-3.490925e-01
-4.464523e-01
-5.526767e-01
-6.667367e-01
-7.876729e-01
-9.147083e-01
-1.047491e+00
-1.186709e+00
-1.335552e+00
-1.504889e+00
-1.712343e+00
0.000000e+00
-1.936079e-02
-5.762548e-02
-1.104772e-01
-1.759683e-01
-2.533243e-01
-3.415875e-01
-4.397575e-01
-5.468052e-01
-6.617165e-01
-7.835505e-01
-9.115567e-01
-1.045417e+00
-1.185705e+00
-1.334676e+00
-1.495129e+00
-1.650413e+00
0.000000e+00
-1.668373e-02
-5.270088e-02
-1.047775e-01
-1.705053e-01
-2.483375e-01
-3.371510e-01
-4.359073e-01
-5.435969e-01
-6.592330e-01
-7.818951e-01
-9.108182e-01
-1.045533e+00
-1.185976e+00
-1.331967e+00
-1.479400e+00
-1.615220e+00
0.000000e+00
-1.591252e-02
-5.121046e-02
-1.029592e-01
-1.687050e-01
-2.467308e-01
-3.357997e-01
-4.348739e-01
-5.429632e-01
-6.590969e-01
-7.823340e-01
-9.117883e-01
-1.046623e+00
-1.185844e+00
-1.327367e+00
-1.466353e+00
-1.594393e+00
0.000000e+00
-1.667383e-02
-5.269383e-02
-1.047900e-01
-1.705669e-01
-2.484998e-01
-3.374981e-01
-4.365648e-01
-5.447305e-01
-6.610198e-01
-7.844306e-01
-9.138911e-01
-1.048149e+00
-1.185495e+00
-1.323292e+00
-1.457511e+00
-1.582819e+00
0.000000e+00
-1.934463e-02
-5.761381e-02
-1.104981e-01
-1.760721e-01
-2.535989e-01
-3.421761e-01
-4.408739e-01
-5.487326e-01
-6.647601e-01
-7.878869e-01
-9.168761e-01
-1.050174e+00
-1.185720e+00
-1.320846e+00
-1.452489e+00
-1.577713e+00
0.000000e+00
-2.564227e-02
-6.752009e-02
-1.202154e-01
-1.851900e-01
-2.619561e-01
-3.497776e-01
-4.477428e-01
-5.548908e-01
-6.702115e-01
-7.925914e-01
-9.207055e-01
-1.052867e+00
-1.186905e+00
-1.320233e+00
-1.450413e+00
-1.576515e+00
0.000000e+00
-4.167122e-02
-8.181858e-02
-1.338731e-01
-1.978090e-01
-2.735466e-01
-3.603150e-01
-4.572137e-01
-5.632719e-01
-6.774614e-01
-7.986422e-01
-9.254598e-01
-1.056216e+00
-1.188787e+00
-1.320753e+00
-1.450033e+00
-1.576534e+00


0.000000e+00
9.584047e-08
1.920319e-07
2.813684e-07
3.651541e-07
4.429156e-07
5.143262e-07
5.793651e-07
6.381624e-07
6.909642e-07
7.381197e-07
7.800178e-07
8.168858e-07
8.484335e-07
8.742546e-07
8.963189e-07
9.159507e-07
0.000000e+00
5.389429e-08
1.311478e-07
2.006176e-07
2.643189e-07
3.230431e-07
3.767361e-07
4.253976e-07
4.690661e-07
5.077721e-07
5.415036e-07
5.701607e-07
5.935975e-07
6.122961e-07
6.293753e-07
6.496455e-07
6.705075e-07
0.000000e+00
3.395420e-08
8.287510e-08
1.287792e-07
1.715764e-07
2.109422e-07
2.467212e-07
2.788697e-07
3.073383e-07
3.320307e-07
3.528052e-07
3.695609e-07
3.825602e-07
3.931369e-07
4.042925e-07
4.193644e-07
4.367783e-07
0.000000e+00
1.658559e-08
3.972844e-08
6.220955e-08
8.360979e-08
1.032717e-07
1.209824e-07
1.366606e-07
1.502139e-07
1.615242e-07
1.704931e-07
1.771736e-07
1.820168e-07
1.861639e-07
1.915069e-07
2.002916e-07
2.123814e-07
0.000000e+00
1.738315e-11
2.153736e-11
-9.125582e-12
-1.041068e-10
-3.104740e-10
-6.972405e-10
-1.356251e-09
-2.394074e-09
-3.905513e-09
-5.915507e-09
-8.282046e-09
-1.058248e-08
-1.204194e-08
-1.146694e-08
-7.332102e-09
6.101166e-10
0.000000e+00
-1.655311e-08
-3.968481e-08
-6.221115e-08
-8.376142e-08
-1.037570e-07
-1.221027e-07
-1.388763e-07
-1.541747e-07
-1.680578e-07
-1.804979e-07
-1.913253e-07
-2.001933e-07
-2.065847e-07
-2.098600e-07
-2.092356e-07
-2.048851e-07
0.000000e+00
-3.393374e-08
-8.284487e-08
-1.287612e-07
-1.716121e-07
-2.111103e-07
-2.471588e-07
-2.797969e-07
-3.090812e-07
-3.350289e-07
-3.575765e-07
-3.765452e-07
-3.916338e-07
-4.024888e-07
-4.089303e-07
-4.110754e-07
-4.097908e-07
0.000000e+00
-5.391480e-08
-1.311886e-07
-2.006546e-07
-2.643122e-07
-3.229245e-07
-3.763938e-07
-4.246587e-07
-4.676804e-07
-5.054036e-07
-5.377417e-07
-5.645664e-07
-5.857106e-07
-6.010333e-07
-6.106695e-07
-6.154072e-07
-6.165518e-07
0.000000e+00
-9.595377e-08
-1.922326e-07
-2.816168e-07
-3.653664e-07
-4.429175e-07
-5.137875e-07
-5.777152e-07
-6.344905e-07
-6.839214e-07
-7.258566e-07
-7.602286e-07
-7.870955e-07
-8.066778e-07
-8.194330e-07
-8.260268e-07
-8.281449e-07
0.000000e+00
8.676258e-08
1.692727e-07
2.618633e-07
3.722941e-07
5.017044e-07
6.492470e-07
8.135600e-07
9.930730e-07
1.186262e-06
1.391819e-06
1.608941e-06
1.838066e-06
2.082488e-06
2.348244e-06
2.630537e-06
2.910610e-06
0.000000e+00
5.248987e-08
1.326824e-07
2.259941e-07
3.385691e-07
4.705755e-07
6.209069e-07
7.880234e-07
9.703143e-07
1.166233e-06
1.374451e-06
1.594099e-06
1.825200e-06
2.069202e-06
2.328489e-06
2.603623e-06
2.880010e-06
0.000000e+00
3.344235e-08
1.033485e-07
1.965533e-07
3.107457e-07
4.450027e-07
5.977614e-07
7.673612e-07
9.521637e-07
1.150616e-06
1.361340e-06
1.583257e-06
1.815623e-06
2.057754e-06
2.309252e-06
2.574339e-06
2.841818e-06
0.000000e+00
2.454180e-08
8.791462e-08
1.793842e-07
2.943221e-07
4.299741e-07
5.843135e-07
7.555741e-07
9.420947e-07
1.142294e-06
1.354682e-06
1.577840e-06
1.810272e-06
2.050106e-06
2.295839e-06
2.550702e-06
2.804856e-06
0.000000e+00
2.198359e-08
8.323443e-08
1.738609e-07
2.890000e-07
4.252110e-07
5.802328e-07
7.522517e-07
9.395857e-07
1.140594e-06
1.353632e-06
1.576966e-06
1.808599e-06
2.046052e-06
2.286886e-06
2.532601e-06
2.773648e-06
0.000000e+00
2.456162e-08
8.798899e-08
1.795681e-07
2.946877e-07
4.306195e-07
5.853609e-07
7.571526e-07
9.442944e-07
1.145071e-06
1.357690e-06
1.580187e-06
1.810273e-06
2.045129e-06
2.281704e-06
2.519780e-06
2.751266e-06
0.000000e+00
3.347432e-08
1.034781e-07
1.968756e-07
3.113869e-07
4.461359e-07
5.996027e-07
7.701389e-07
9.560378e-07
1.155512e-06
1.366643e-06
1.587307e-06
1.815059e-06
2.046953e-06
2.279737e-06
2.512097e-06
2.737630e-06
0.000000e+00
5.253046e-08
1.328468e-07
2.263911e-07
3.393515e-07
4.719513e-07
6.231332e-07
7.913660e-07
9.749459e-07
1.172026e-06
1.380591e-06
1.598403e-06
1.822927e-06
2.051273e-06
2.280443e-06
2.508643e-06
2.731120e-06
0.000000e+00
8.682984e-08
1.694648e-07
2.622915e-07
3.731087e-07
5.031041e-07
6.514666e-07
8.168213e-07
9.974705e-07
1.191537e-06
1.396956e-06
1.611431e-06
1.832405e-06
2.057103e-06
2.282886e-06
2.508081e-06
2.729222e-06


2.011774e-01
2.011774e-01
2.011773e-01
2.011771e-01
2.011770e-01
2.011768e-01
2.011767e-01
2.011765e-01
2.011764e-01
2.011763e-01
2.011762e-01
2.011762e-01
2.011761e-01
2.011762e-01
2.011763e-01
2.011763e-01
2.011771e-01
2.011771e-01
2.011771e-01
2.011769e-01
2.011768e-01
2.011767e-01
2.011765e-01
2.011764e-01
2.011763e-01
2.011763e-01
2.011762e-01
2.011761e-01
2.011761e-01
2.011762e-01
2.011763e-01
2.011764e-01
2.011766e-01
2.011766e-01
2.011766e-01
2.011766e-01
2.011765e-01
2.011764e-01
2.011764e-01
2.011763e-01
2.011762e-01
2.011762e-01
2.011761e-01
2.011761e-01
2.011761e-01
2.011762e-01
2.011763e-01
2.011763e-01
2.011763e-01
2.011763e-01
2.011763e-01
2.011763e-01
2.011763e-01
2.011762e-01
2.011762e-01
2.011762e-01
2.011762e-01
2.011761e-01
2.011761e-01
2.011761e-01
2.011761e-01
2.011762e-01
2.011762e-01
2.011762e-01
2.011763e-01
2.011763e-01
2.011763e-01
2.011763e-01
2.011763e-01
2.011762e-01
2.011762e-01
2.011762e-01
2.011762e-01
2.011762e-01
2.011761e-01
2.011761e-01
2.011761e-01
2.011761e-01
2.011761e-01
2.011761e-01
2.011766e-01
2.011766e-01
2.011766e-01
2.011766e-01
2.011765e-01
2.011764e-01
2.011764e-01
2.011763e-01
2.011763e-01
2.011762e-01
2.011762e-01
2.011761e-01
2.011761e-01
2.011761e-01
2.011761e-01
2.011761e-01
2.011771e-01
2.011771e-01
2.011771e-01
2.011769e-01
2.011768e-01
2.011767e-01
2.011766e-01
2.011764e-01
2.011764e-01
2.011763e-01
2.011762e-01
2.011761e-01
2.011761e-01
2.011761e-01
2.011760e-01
2.011760e-01
2.011774e-01
2.011774e-01
2.011773e-01
2.011771e-01
2.011770e-01
2.011768e-01
2.011767e-01
2.011765e-01
2.011764e-01
2.011763e-01
2.011762e-01
2.011761e-01
2.011761e-01
2.011760e-01
2.011760e-01
2.011760e-01


9.893347e-01
9.908471e-01
9.922462e-01
9.933233e-01
9.943230e-01
9.952448e-01
9.960846e-01
9.968326e-01
9.974810e-01
9.980232e-01
9.984543e-01
9.987702e-01
9.989665e-01
9.990365e-01
9.990871e-01
9.959702e-01
9.959651e-01
9.952720e-01
9.957180e-01
9.962999e-01
9.968426e-01
9.973357e-01
9.977821e-01
9.981865e-01
9.985526e-01
9.988842e-01
9.991851e-01
9.994576e-01
9.996953e-01
9.998509e-01
9.994573e-01
9.941219e-01
9.985981e-01
9.982000e-01
9.980925e-01
9.982437e-01
9.984426e-01
9.986352e-01
9.988140e-01
9.989830e-01
9.991467e-01
9.993063e-01
9.994553e-01
9.995707e-01
9.995948e-01
9.993870e-01
9.986331e-01
9.972772e-01
9.997147e-01
9.994244e-01
9.992450e-01
9.991995e-01
9.992177e-01
9.992482e-01
9.992786e-01
9.993084e-01
9.993376e-01
9.993620e-01
9.993688e-01
9.993325e-01
9.992172e-01
9.990103e-01
9.988349e-01
9.987904e-01
9.997157e-01
9.994259e-01
9.992464e-01
9.991992e-01
9.992132e-01
9.992352e-01
9.992504e-01
9.992556e-01
9.992485e-01
9.992261e-01
9.991842e-01
9.991239e-01
9.990665e-01
9.990779e-01
9.992402e-01
9.995213e-01
9.986001e-01
9.982030e-01
9.980954e-01
9.982437e-01
9.984348e-01
9.986113e-01
9.987607e-01
9.988807e-01
9.989706e-01
9.990311e-01
9.990694e-01
9.991068e-01
9.991854e-01
9.993502e-01
9.995978e-01
9.998537e-01
9.959647e-01
9.952718e-01
9.957173e-01
9.962983e-01
9.968383e-01
9.973260e-01
9.977620e-01
9.981481e-01
9.984845e-01
9.987721e-01
9.990155e-01
9.992281e-01
9.994328e-01
9.996475e-01
9.998482e-01
9.999746e-01
9.893274e-01
9.908357e-01
9.922323e-01
9.933076e-01
9.943089e-01
9.952397e-01
9.961020e-01
9.968938e-01
9.976152e-01
9.982649e-01
9.988351e-01
9.993081e-01
9.996600e-01
9.998772e-01
9.999759e-01
9.999995e-01
1 2 19 18
2 3 20 19
3 4 21 20
4 5 22 21
5 6 23 22
6 7 24 23
7 8 25 24
8 9 26 25
9 10 27 26
10 11 28 27
11 12 29 28
12 13 30 29
13 14 31 30
14 15 32 31
15 16 33 32
16 17 34 33
18 19 36 35
19 20 37 36
20 21 38 37
21 22 39 38
22 23 40 39
23 24 41 40
24 25 42 41
25 26 43 42
26 27 44 43
27 28 45 44
28 29 46 45
29 30 47 46
30 31 48 47
31 32 49 48
32 33 50 49
33 34 51 50
35 36 53 52
36 37 54 53
37 38 55 54
38 39 56 55
39 40 57 56
40 41 58 57
41 42 59 58
42 43 60 59
43 44 61 60
44 45 62 61
45 46 63 62
46 47 64 63
47 48 65 64
48 49 66 65
49 50 67 66
50 51 68 67
52 53 70 69
53 54 71 70
54 55 72 71
55 56 73 72
56 57 74 73
57 58 75 74
58 59 76 75
59 60 77 76
60 61 78 77
61 62 79 78
62 63 80 79
63 64 81 80
64 65 82 81
65 66 83 82
66 67 84 83
67 68 85 84
69 70 87 86
70 71 88 87
71 72 89 88
72 73 90 89
73 74 91 90
74 75 92 91
75 76 93 92
76 77 94 93
77 78 95 94
78 79 96 95
79 80 97 96
80 81 98 97
81 82 99 98
82 83 100 99
83 84 101 100
84 85 102 101
86 87 104 103
87 88 105 104
88 89 106 105
89 90 107 106
90 91 108 107
91 92 109 108
92 93 110 109
93 94 111 110
94 95 112 111
95 96 113 112
96 97 114 113
97 98 115 114
98 99 116 115
99 100 117 116
100 101 118 117
101 102 119 118
103 104 121 120
104 105 122 121
105 106 123 122
106 107 124 123
107 108 125 124
108 109 126 125
109 110 127 126
110 111 128 127
111 112 129 128
112 113 130 129
113 114 131 130
114 115 132 131
115 116 133 132
116 117 134 133
117 118 135 134
118 119 136 135
120 121 138 137
121 122 139 138
122 123 140 139
123 124 141 140
124 125 142 141
125 126 143 142
126 127 144 143
127 128 145 144
128 129 146 145
129 130 147 146
130 131 148 147
131 132 149 148
132 133 150 149
133 134 151 150
134 135 152 151
135 136 153 152
