TITLE = "Solution"
VARIABLES = x, y, u, v, psiu, psiv, t, stress
ZONE T="structure" N=153 E=128 F=FEBLOCK ET=QUADRILATERAL VARLOCATION=([7,8]=cellcentered)
0.000000e+00
1.250000e+01
2.500000e+01
3.750000e+01
5.000000e+01
6.250000e+01
7.500000e+01
8.750000e+01
1.000000e+02
1.125000e+02
1.250000e+02
1.375000e+02
1.500000e+02
1.625000e+02
1.750000e+02
1.875000e+02
2.000000e+02
0.000000e+00
1.250000e+01
2.500000e+01
3.750000e+01
5.000000e+01
6.250000e+01
7.500000e+01
8.750000e+01
1.000000e+02
1.125000e+02
1.250000e+02
1.375000e+02
1.500000e+02
1.625000e+02
1.750000e+02
1.875000e+02
2.000000e+02
0.000000e+00
1.250000e+01
2.500000e+01
3.750000e+01
5.000000e+01
6.250000e+01
7.500000e+01
8.750000e+01
1.000000e+02
1.125000e+02
1.250000e+02
1.375000e+02
1.500000e+02
1.625000e+02
1.750000e+02
1.875000e+02
2.000000e+02
0.000000e+00
1.250000e+01
2.500000e+01
3.750000e+01
5.000000e+01
6.250000e+01
7.500000e+01
8.750000e+01
1.000000e+02
1.125000e+02
1.250000e+02
1.375000e+02
1.500000e+02
1.625000e+02
1.750000e+02
1.875000e+02
2.000000e+02
0.000000e+00
1.250000e+01
2.500000e+01
3.750000e+01
5.000000e+01
6.250000e+01
7.500000e+01
8.750000e+01
1.000000e+02
1.125000e+02
1.250000e+02
1.375000e+02
1.500000e+02
1.625000e+02
1.750000e+02
1.875000e+02
2.000000e+02
0.000000e+00
1.250000e+01
2.500000e+01
3.750000e+01
5.000000e+01
6.250000e+01
7.500000e+01
8.750000e+01
1.000000e+02
1.125000e+02
1.250000e+02
1.375000e+02
1.500000e+02
1.625000e+02
1.750000e+02
1.875000e+02
2.000000e+02
0.000000e+00
1.250000e+01
2.500000e+01
3.750000e+01
5.000000e+01
6.250000e+01
7.500000e+01
8.750000e+01
1.000000e+02
1.125000e+02
1.250000e+02
1.375000e+02
1.500000e+02
1.625000e+02
1.750000e+02
1.875000e+02
2.000000e+02
0.000000e+00
1.250000e+01
2.500000e+01
3.750000e+01
5.000000e+01
6.250000e+01
7.500000e+01
8.750000e+01
1.000000e+02
1.125000e+02
1.250000e+02
1.375000e+02
1.500000e+02
1.625000e+02
1.750000e+02
1.875000e+02
2.000000e+02
0.000000e+00
1.250000e+01
2.500000e+01
3.750000e+01
5.000000e+01
6.250000e+01
7.500000e+01
8.750000e+01
1.000000e+02
1.125000e+02
1.250000e+02
1.375000e+02
1.500000e+02
1.625000e+02
1.750000e+02
1.875000e+02
2.000000e+02
0.000000e+00
0.000000e+00
0.000000e+00
0.000000e+00
0.000000e+00
0.000000e+00
0.000000e+00
0.000000e+00
0.000000e+00
0.000000e+00
0.000000e+00
0.000000e+00
0.000000e+00
0.000000e+00
0.000000e+00
0.000000e+00
0.000000e+00
1.250000e+01
1.250000e+01
1.250000e+01
1.250000e+01
1.250000e+01
1.250000e+01
1.250000e+01
1.250000e+01
1.250000e+01
1.250000e+01
1.250000e+01
1.250000e+01
1.250000e+01
1.250000e+01
1.250000e+01
1.250000e+01
1.250000e+01
2.500000e+01
2.500000e+01
2.500000e+01
2.500000e+01
2.500000e+01
2.500000e+01
2.500000e+01
2.500000e+01
2.500000e+01
2.500000e+01
2.500000e+01
2.500000e+01
2.500000e+01
2.500000e+01
2.500000e+01
2.500000e+01
2.500000e+01
3.750000e+01
3.750000e+01
3.750000e+01
3.750000e+01
3.750000e+01
3.750000e+01
3.750000e+01
3.750000e+01
3.750000e+01
3.750000e+01
3.750000e+01
3.750000e+01
3.750000e+01
3.750000e+01
3.750000e+01
3.750000e+01
3.750000e+01
5.000000e+01
5.000000e+01
5.000000e+01
5.000000e+01
5.000000e+01
5.000000e+01
5.000000e+01
5.000000e+01
5.000000e+01
5.000000e+01
5.000000e+01
5.000000e+01
5.000000e+01
5.000000e+01
5.000000e+01
5.000000e+01
5.000000e+01
6.250000e+01
6.250000e+01
6.250000e+01
6.250000e+01
6.250000e+01
6.250000e+01
6.250000e+01
6.250000e+01
6.250000e+01
6.250000e+01
6.250000e+01
6.250000e+01
6.250000e+01
6.250000e+01
6.250000e+01
6.250000e+01
6.250000e+01
7.500000e+01
7.500000e+01
7.500000e+01
7.500000e+01
7.500000e+01
7.500000e+01
7.500000e+01
7.500000e+01
7.500000e+01
7.500000e+01
7.500000e+01
7.500000e+01
7.500000e+01
7.500000e+01
7.500000e+01
7.500000e+01
7.500000e+01
8.750000e+01
8.750000e+01
8.750000e+01
8.750000e+01
8.750000e+01
8.750000e+01
8.750000e+01
8.750000e+01
8.750000e+01
8.750000e+01
8.750000e+01
8.750000e+01
8.750000e+01
8.750000e+01
8.750000e+01
8.750000e+01
8.750000e+01
1.000000e+02
1.000000e+02
1.000000e+02
1.000000e+02
1.000000e+02
1.000000e+02
1.000000e+02
1.000000e+02
1.000000e+02
1.000000e+02
1.000000e+02
1.000000e+02
1.000000e+02
1.000000e+02
1.000000e+02
1.000000e+02
1.000000e+02
0.000000e+00
-6.973488e-02
-1.284040e-01
-1.823872e-01
-2.326607e-01
-2.791183e-01
-3.216604e-01
-3.602540e-01
-3.949552e-01
-4.259240e-01
-4.534673e-01
-4.781235e-01
-5.008185e-01
-5.231524e-01
-5.478842e-01
-5.782581e-01
-6.010503e-01
0.000000e+00
-4.164444e-02
-8.650822e-02
-1.279371e-01
-1.661057e-01
-2.011593e-01
-2.331706e-01
-2.621825e-01
-2.882472e-01
-3.114450e-01
-3.318938e-01
-3.497408e-01
-3.651001e-01
-3.778133e-01
-3.867807e-01
-3.887462e-01
-3.957930e-01
0.000000e+00
-2.604325e-02
-5.355143e-02
-8.099491e-02
-1.066125e-01
-1.301331e-01
-1.515375e-01
-1.708499e-01
-1.880752e-01
-2.031846e-01
-2.160968e-01
-2.266314e-01
-2.344129e-01
-2.387567e-01
-2.388772e-01
-2.371420e-01
-2.443292e-01
0.000000e+00
-1.257008e-02
-2.587720e-02
-3.926835e-02
-5.207270e-02
-6.386630e-02
-7.455604e-02
-8.411077e-02
-9.247581e-02
-9.954232e-02
-1.051297e-01
-1.089742e-01
-1.107611e-01
-1.103437e-01
-1.086285e-01
-1.090975e-01
-1.144491e-01
0.000000e+00
-1.157935e-05
-2.632352e-05
-4.101926e-05
-4.881854e-05
-3.445051e-05
3.239547e-05
2.061082e-04
5.759196e-04
1.274746e-03
2.475995e-03
4.353869e-03
6.955440e-03
9.895344e-03
1.192614e-02
1.136916e-02
7.825927e-03
0.000000e+00
1.255227e-02
2.583584e-02
3.920219e-02
5.199041e-02
6.379937e-02
7.458200e-02
8.439105e-02
9.331156e-02
1.014470e-01
1.089037e-01
1.157368e-01
1.218277e-01
1.267119e-01
1.295850e-01
1.298129e-01
1.280145e-01
0.000000e+00
2.604033e-02
5.354252e-02
8.097718e-02
1.065848e-01
1.300986e-01
1.515089e-01
1.708592e-01
1.881897e-01
2.035311e-01
2.168969e-01
2.282542e-01
2.374727e-01
2.442882e-01
2.483790e-01
2.497073e-01
2.492880e-01
0.000000e+00
4.166153e-02
8.654537e-02
1.279963e-01
1.661851e-01
2.012444e-01
2.332184e-01
2.620953e-01
2.878311e-01
3.103516e-01
3.295500e-01
3.452933e-01
3.574558e-01
3.659973e-01
3.710924e-01
3.732652e-01
3.736642e-01
0.000000e+00
6.976345e-02
1.284794e-01
1.825284e-01
2.328862e-01
2.794355e-01
3.220387e-01
3.605721e-01
3.949068e-01
4.248644e-01
4.501850e-01
4.705311e-01
4.855685e-01
4.951791e-01
4.998269e-01
5.009741e-01
5.009520e-01
0.000000e+00
-4.221244e-02
-8.286792e-02
-1.355479e-01
-2.002018e-01
-2.767084e-01
-3.642301e-01
-4.617872e-01
-5.683424e-01
-6.828721e-01
-8.044308e-01
-9.322658e-01
-1.066069e+00
-1.206555e+00
-1.357367e+00
-1.529925e+00
-1.777859e+00
0.000000e+00
-2.598675e-02
-6.839708e-02
-1.217304e-01
-1.874409e-01
-2.649916e-01
-3.535735e-01
-4.521832e-01
-5.597711e-01
-6.752954e-01
-7.977841e-01
-9.264502e-01
-1.060938e+00
-1.201943e+00
-1.352697e+00
-1.524207e+00
-1.734325e+00
0.000000e+00
-1.960930e-02
-5.836518e-02
-1.118953e-01
-1.782271e-01
-2.565761e-01
-3.459722e-01
-4.454024e-01
-5.538243e-01
-6.702107e-01
-7.936086e-01
-9.232581e-01
-1.058837e+00
-1.200926e+00
-1.351810e+00
-1.514322e+00
-1.671599e+00
0.000000e+00
-1.689789e-02
-5.337737e-02
-1.061224e-01
-1.726940e-01
-2.515252e-01
-3.414787e-01
-4.415028e-01
-5.505748e-01
-6.676953e-01
-7.919320e-01
-9.225101e-01
-1.058954e+00
-1.201201e+00
-1.349066e+00
-1.498391e+00
-1.635955e+00
0.000000e+00
-1.611679e-02
-5.186782e-02
-1.042808e-01
-1.708705e-01
-2.498979e-01
-3.401101e-01
-4.404561e-01
-5.499330e-01
-6.675575e-01
-7.923766e-01
-9.234928e-01
-1.060059e+00
-1.201067e+00
-1.344407e+00
-1.485177e+00
-1.614860e+00
0.000000e+00
-1.688786e-02
-5.337023e-02
-1.061351e-01
-1.727564e-01
-2.516896e-01
-3.418303e-01
-4.421687e-01
-5.517229e-01
-6.695050e-01
-7.945001e-01
-9.256225e-01
-1.061604e+00
-1.200713e+00
-1.340279e+00
-1.476222e+00
-1.603137e+00
0.000000e+00
-1.959294e-02
-5.835335e-02
-1.119165e-01
-1.783322e-01
-2.568542e-01
-3.465684e-01
-4.465331e-01
-5.557765e-01
-6.732934e-01
-7.980007e-01
-9.286458e-01
-1.063655e+00
-1.200941e+00
-1.337801e+00
-1.471135e+00
-1.597967e+00
0.000000e+00
-2.597141e-02
-6.838678e-02
-1.217585e-01
-1.875671e-01
-2.653186e-01
-3.542675e-01
-4.534902e-01
-5.620137e-01
-6.788147e-01
-8.027657e-01
-9.325244e-01
-1.066383e+00
-1.202141e+00
-1.337181e+00
-1.469032e+00
-1.596753e+00
0.000000e+00
-4.220610e-02
-8.286880e-02
-1.355915e-01
-2.003481e-01
-2.770579e-01
-3.649401e-01
-4.630827e-01
-5.705023e-01
-6.861577e-01
-8.088941e-01
-9.373397e-01
-1.069775e+00
-1.204048e+00
-1.337708e+00
-1.468647e+00
-1.596772e+00


0.000000e+00
9.831657e-08
1.969931e-07
2.886377e-07
3.745881e-07
4.543588e-07
5.276146e-07
5.943342e-07
6.546509e-07
7.088173e-07
7.571914e-07
8.001723e-07
8.379932e-07
8.703562e-07
8.968446e-07
9.194792e-07
9.396183e-07
0.000000e+00
5.528661e-08
1.345359e-07
2.058005e-07
2.711476e-07
3.313891e-07
3.864695e-07
4.363885e-07
4.811854e-07
5.208918e-07
5.554950e-07
5.848927e-07
6.089352e-07
6.281171e-07
6.456377e-07
6.664318e-07
6.878329e-07
0.000000e+00
3.483133e-08
8.501607e-08
1.321061e-07
1.760090e-07
2.163920e-07
2.530954e-07
2.860747e-07
3.152790e-07
3.406095e-07
3.619210e-07
3.791097e-07
3.924449e-07
4.032949e-07
4.147389e-07
4.302003e-07
4.480643e-07
0.000000e+00
1.701403e-08
4.075474e-08
6.381665e-08
8.576980e-08
1.059398e-07
1.241081e-07
1.401914e-07
1.540949e-07
1.656975e-07
1.748982e-07
1.817513e-07
1.867197e-07
1.909740e-07
1.964551e-07
2.054668e-07
2.178691e-07
0.000000e+00
1.783280e-11
2.209483e-11
-9.360087e-12
-1.067955e-10
-3.184956e-10
-7.152574e-10
-1.391299e-09
-2.455944e-09
-4.006446e-09
-6.068389e-09
-8.496095e-09
-1.085599e-08
-1.235317e-08
-1.176332e-08
-7.521621e-09
6.258563e-10
0.000000e+00
-1.698070e-08
-4.070999e-08
-6.381829e-08
-8.592534e-08
-1.064376e-07
-1.252573e-07
-1.424644e-07
-1.581581e-07
-1.724000e-07
-1.851616e-07
-1.962688e-07
-2.053660e-07
-2.119226e-07
-2.152826e-07
-2.146420e-07
-2.101791e-07
0.000000e+00
-3.481035e-08
-8.498505e-08
-1.320876e-07
-1.760456e-07
-2.165644e-07
-2.535443e-07
-2.870259e-07
-3.170669e-07
-3.436852e-07
-3.668155e-07
-3.862744e-07
-4.017530e-07
-4.128886e-07
-4.194966e-07
-4.216971e-07
-4.203793e-07
0.000000e+00
-5.530766e-08
-1.345778e-07
-2.058384e-07
-2.711407e-07
-3.312675e-07
-3.861184e-07
-4.356305e-07
-4.797640e-07
-5.184620e-07
-5.516359e-07
-5.791538e-07
-6.008444e-07
-6.165632e-07
-6.264485e-07
-6.313086e-07
-6.324828e-07
0.000000e+00
-9.843280e-08
-1.971990e-07
-2.888925e-07
-3.748059e-07
-4.543607e-07
-5.270620e-07
-5.926416e-07
-6.508841e-07
-7.015924e-07
-7.446113e-07
-7.798717e-07
-8.074329e-07
-8.275214e-07
-8.406062e-07
-8.473704e-07
-8.495432e-07
0.000000e+00
8.900415e-08
1.736460e-07
2.686290e-07
3.819130e-07
5.146670e-07
6.660219e-07
8.345803e-07
1.018732e-06
1.216912e-06
1.427781e-06
1.650513e-06
1.885558e-06
2.136297e-06
2.408920e-06
2.698507e-06
2.985818e-06
0.000000e+00
5.384602e-08
1.361105e-07
2.318331e-07
3.473167e-07
4.827338e-07
6.369494e-07
8.083839e-07
9.953849e-07
1.196366e-06
1.409964e-06
1.635288e-06
1.872360e-06
2.122667e-06
2.388654e-06
2.670898e-06
2.954427e-06
0.000000e+00
3.430641e-08
1.060188e-07
2.016316e-07
3.187744e-07
4.565002e-07
6.132058e-07
7.871878e-07
9.767652e-07
1.180345e-06
1.396515e-06
1.624165e-06
1.862535e-06
2.110924e-06
2.368920e-06
2.640857e-06
2.915247e-06
0.000000e+00
2.517593e-08
9.018611e-08
1.840189e-07
3.019265e-07
4.410833e-07
5.994105e-07
7.750960e-07
9.664360e-07
1.171808e-06
1.389684e-06
1.618609e-06
1.857047e-06
2.103077e-06
2.355160e-06
2.616609e-06
2.877330e-06
0.000000e+00
2.255163e-08
8.538501e-08
1.783529e-07
2.964669e-07
4.361972e-07
5.952243e-07
7.716878e-07
9.638622e-07
1.170064e-06
1.388607e-06
1.617712e-06
1.855330e-06
2.098919e-06
2.345976e-06
2.598040e-06
2.845316e-06
0.000000e+00
2.519627e-08
9.026240e-08
1.842076e-07
3.023016e-07
4.417454e-07
6.004849e-07
7.767153e-07
9.686926e-07
1.174657e-06
1.392770e-06
1.621016e-06
1.857047e-06
2.097971e-06
2.340660e-06
2.584888e-06
2.822356e-06
0.000000e+00
3.433921e-08
1.061517e-07
2.019623e-07
3.194322e-07
4.576627e-07
6.150947e-07
7.900372e-07
9.807395e-07
1.185367e-06
1.401954e-06
1.628320e-06
1.861957e-06
2.099843e-06
2.338643e-06
2.577007e-06
2.808367e-06
0.000000e+00
5.388765e-08
1.362791e-07
2.322403e-07
3.481193e-07
4.841451e-07
6.392333e-07
8.118129e-07
1.000136e-06
1.202309e-06
1.416263e-06
1.639702e-06
1.870028e-06
2.104275e-06
2.339366e-06
2.573463e-06
2.801689e-06
0.000000e+00
8.907315e-08
1.738432e-07
2.690683e-07
3.827487e-07
5.161029e-07
6.682988e-07
8.379260e-07
1.023243e-06
1.222324e-06
1.433051e-06
1.653067e-06
1.879751e-06
2.110255e-06
2.341872e-06
2.572886e-06
2.799742e-06


2.037594e-01
2.037594e-01
2.037594e-01
2.037594e-01
2.037594e-01
2.037593e-01
2.037593e-01
2.037593e-01
2.037593e-01
2.037593e-01
2.037593e-01
2.037593e-01
2.037593e-01
2.037593e-01
2.037593e-01
2.037593e-01
2.037594e-01
2.037594e-01
2.037594e-01
2.037594e-01
2.037593e-01
2.037593e-01
2.037593e-01
2.037593e-01
2.037593e-01
2.037593e-01
2.037593e-01
2.037593e-01
2.037593e-01
2.037593e-01
2.037593e-01
2.037593e-01
2.037593e-01
2.037593e-01
2.037593e-01
2.037593e-01
2.037593e-01
2.037593e-01
2.037593e-01
2.037593e-01
2.037593e-01
2.037593e-01
2.037593e-01
2.037593e-01
2.037593e-01
2.037593e-01
2.037593e-01
2.037593e-01
2.037593e-01
2.037593e-01
2.037593e-01
2.037593e-01
2.037593e-01
2.037593e-01
2.037593e-01
2.037593e-01
2.037593e-01
2.037593e-01
2.037593e-01
2.037593e-01
2.037593e-01
2.037593e-01
2.037593e-01
2.037593e-01
2.037593e-01
2.037593e-01
2.037593e-01
2.037593e-01
2.037593e-01
2.037593e-01
2.037593e-01
2.037593e-01
2.037593e-01
2.037593e-01
2.037593e-01
2.037593e-01
2.037593e-01
2.037593e-01
2.037593e-01
2.037593e-01
2.037593e-01
2.037593e-01
2.037593e-01
2.037593e-01
2.037593e-01
2.037593e-01
2.037593e-01
2.037593e-01
2.037593e-01
2.037593e-01
2.037593e-01
2.037593e-01
2.037593e-01
2.037593e-01
2.037593e-01
2.037593e-01
2.037594e-01
2.037594e-01
2.037594e-01
2.037594e-01
2.037593e-01
2.037593e-01
2.037593e-01
2.037593e-01
2.037593e-01
2.037593e-01
2.037593e-01
2.037593e-01
2.037593e-01
2.037593e-01
2.037593e-01
2.037593e-01
2.037594e-01
2.037594e-01
2.037594e-01
2.037594e-01
2.037594e-01
2.037593e-01
2.037593e-01
2.037593e-01
2.037593e-01
2.037593e-01
2.037593e-01
2.037593e-01
2.037593e-01
2.037593e-01
2.037593e-01
2.037593e-01


9.890592e-01
9.906107e-01
9.920459e-01
9.931508e-01
9.941763e-01
9.951219e-01
9.959835e-01
9.967508e-01
9.974159e-01
9.979721e-01
9.984144e-01
9.987384e-01
9.989398e-01
9.990116e-01
9.990635e-01
9.958661e-01
9.958609e-01
9.951499e-01
9.956073e-01
9.962043e-01
9.967610e-01
9.972669e-01
9.977248e-01
9.981396e-01
9.985152e-01
9.988554e-01
9.991640e-01
9.994435e-01
9.996874e-01
9.998471e-01
9.994433e-01
9.939700e-01
9.985618e-01
9.981535e-01
9.980432e-01
9.981983e-01
9.984023e-01
9.985999e-01
9.987834e-01
9.989567e-01
9.991246e-01
9.992883e-01
9.994412e-01
9.995596e-01
9.995843e-01
9.993711e-01
9.985978e-01
9.972068e-01
9.997073e-01
9.994095e-01
9.992255e-01
9.991788e-01
9.991975e-01
9.992287e-01
9.992600e-01
9.992905e-01
9.993204e-01
9.993455e-01
9.993525e-01
9.993152e-01
9.991970e-01
9.989847e-01
9.988047e-01
9.987592e-01
9.997084e-01
9.994110e-01
9.992269e-01
9.991785e-01
9.991928e-01
9.992154e-01
9.992310e-01
9.992363e-01
9.992291e-01
9.992061e-01
9.991631e-01
9.991013e-01
9.990423e-01
9.990540e-01
9.992206e-01
9.995089e-01
9.985639e-01
9.981566e-01
9.980462e-01
9.981984e-01
9.983944e-01
9.985755e-01
9.987286e-01
9.988518e-01
9.989440e-01
9.990061e-01
9.990454e-01
9.990837e-01
9.991644e-01
9.993334e-01
9.995874e-01
9.998499e-01
9.958605e-01
9.951496e-01
9.956067e-01
9.962026e-01
9.967566e-01
9.972569e-01
9.977042e-01
9.981002e-01
9.984453e-01
9.987403e-01
9.989900e-01
9.992081e-01
9.994182e-01
9.996383e-01
9.998442e-01
9.999739e-01
9.890517e-01
9.905990e-01
9.920316e-01
9.931347e-01
9.941619e-01
9.951167e-01
9.960013e-01
9.968135e-01
9.975536e-01
9.982201e-01
9.988050e-01
9.992903e-01
9.996513e-01
9.998740e-01
9.999753e-01
9.999995e-01
1 2 19 18
2 3 20 19
3 4 21 20
4 5 22 21
5 6 23 22
6 7 24 23
7 8 25 24
8 9 26 25
9 10 27 26
10 11 28 27
11 12 29 28
12 13 30 29
13 14 31 30
14 15 32 31
15 16 33 32
16 17 34 33
18 19 36 35
19 20 37 36
20 21 38 37
21 22 39 38
22 23 40 39
23 24 41 40
24 25 42 41
25 26 43 42
26 27 44 43
27 28 45 44
28 29 46 45
29 30 47 46
30 31 48 47
31 32 49 48
32 33 50 49
33 34 51 50
35 36 53 52
36 37 54 53
37 38 55 54
38 39 56 55
39 40 57 56
40 41 58 57
41 42 59 58
42 43 60 59
43 44 61 60
44 45 62 61
45 46 63 62
46 47 64 63
47 48 65 64
48 49 66 65
49 50 67 66
50 51 68 67
52 53 70 69
53 54 71 70
54 55 72 71
55 56 73 72
56 57 74 73
57 58 75 74
58 59 76 75
59 60 77 76
60 61 78 77
61 62 79 78
62 63 80 79
63 64 81 80
64 65 82 81
65 66 83 82
66 67 84 83
67 68 85 84
69 70 87 86
70 71 88 87
71 72 89 88
72 73 90 89
73 74 91 90
74 75 92 91
75 76 93 92
76 77 94 93
77 78 95 94
78 79 96 95
79 80 97 96
80 81 98 97
81 82 99 98
82 83 100 99
83 84 101 100
84 85 102 101
86 87 104 103
87 88 105 104
88 89 106 105
89 90 107 106
90 91 108 107
91 92 109 108
92 93 110 109
93 94 111 110
94 95 112 111
95 96 113 112
96 97 114 113
97 98 115 114
98 99 116 115
99 100 117 116
100 101 118 117
101 102 119 118
103 104 121 120
104 105 122 121
105 106 123 122
106 107 124 123
107 108 125 124
108 109 126 125
109 110 127 126
110 111 128 127
111 112 129 128
112 113 130 129
113 114 131 130
114 115 132 131
115 116 133 132
116 117 134 133
117 118 135 134
118 119 136 135
120 121 138 137
121 122 139 138
122 123 140 139
123 124 141 140
124 125 142 141
125 126 143 142
126 127 144 143
127 128 145 144
128 129 146 145
129 130 147 146
130 131 148 147
131 132 149 148
132 133 150 149
133 134 151 150
134 135 152 151
135 136 153 152
