TITLE = "Solution"
VARIABLES = x, y, u, v, psiu, psiv, t, stress
ZONE T="structure" N=153 E=128 F=FEBLOCK ET=QUADRILATERAL VARLOCATION=([7,8]=cellcentered)
0.000000e+00
1.250000e+01
2.500000e+01
3.750000e+01
5.000000e+01
6.250000e+01
7.500000e+01
8.750000e+01
1.000000e+02
1.125000e+02
1.250000e+02
1.375000e+02
1.500000e+02
1.625000e+02
1.750000e+02
1.875000e+02
2.000000e+02
0.000000e+00
1.250000e+01
2.500000e+01
3.750000e+01
5.000000e+01
6.250000e+01
7.500000e+01
8.750000e+01
1.000000e+02
1.125000e+02
1.250000e+02
1.375000e+02
1.500000e+02
1.625000e+02
1.750000e+02
1.875000e+02
2.000000e+02
0.000000e+00
1.250000e+01
2.500000e+01
3.750000e+01
5.000000e+01
6.250000e+01
7.500000e+01
8.750000e+01
1.000000e+02
1.125000e+02
1.250000e+02
1.375000e+02
1.500000e+02
1.625000e+02
1.750000e+02
1.875000e+02
2.000000e+02
0.000000e+00
1.250000e+01
2.500000e+01
3.750000e+01
5.000000e+01
6.250000e+01
7.500000e+01
8.750000e+01
1.000000e+02
1.125000e+02
1.250000e+02
1.375000e+02
1.500000e+02
1.625000e+02
1.750000e+02
1.875000e+02
2.000000e+02
0.000000e+00
1.250000e+01
2.500000e+01
3.750000e+01
5.000000e+01
6.250000e+01
7.500000e+01
8.750000e+01
1.000000e+02
1.125000e+02
1.250000e+02
1.375000e+02
1.500000e+02
1.625000e+02
1.750000e+02
1.875000e+02
2.000000e+02
0.000000e+00
1.250000e+01
2.500000e+01
3.750000e+01
5.000000e+01
6.250000e+01
7.500000e+01
8.750000e+01
1.000000e+02
1.125000e+02
1.250000e+02
1.375000e+02
1.500000e+02
1.625000e+02
1.750000e+02
1.875000e+02
2.000000e+02
0.000000e+00
1.250000e+01
2.500000e+01
3.750000e+01
5.000000e+01
6.250000e+01
7.500000e+01
8.750000e+01
1.000000e+02
1.125000e+02
1.250000e+02
1.375000e+02
1.500000e+02
1.625000e+02
1.750000e+02
1.875000e+02
2.000000e+02
0.000000e+00
1.250000e+01
2.500000e+01
3.750000e+01
5.000000e+01
6.250000e+01
7.500000e+01
8.750000e+01
1.000000e+02
1.125000e+02
1.250000e+02
1.375000e+02
1.500000e+02
1.625000e+02
1.750000e+02
1.875000e+02
2.000000e+02
0.000000e+00
1.250000e+01
2.500000e+01
3.750000e+01
5.000000e+01
6.250000e+01
7.500000e+01
8.750000e+01
1.000000e+02
1.125000e+02
1.250000e+02
1.375000e+02
1.500000e+02
1.625000e+02
1.750000e+02
1.875000e+02
2.000000e+02
0.000000e+00
0.000000e+00
0.000000e+00
0.000000e+00
0.000000e+00
0.000000e+00
0.000000e+00
0.000000e+00
0.000000e+00
0.000000e+00
0.000000e+00
0.000000e+00
0.000000e+00
0.000000e+00
0.000000e+00
0.000000e+00
0.000000e+00
1.250000e+01
1.250000e+01
1.250000e+01
1.250000e+01
1.250000e+01
1.250000e+01
1.250000e+01
1.250000e+01
1.250000e+01
1.250000e+01
1.250000e+01
1.250000e+01
1.250000e+01
1.250000e+01
1.250000e+01
1.250000e+01
1.250000e+01
2.500000e+01
2.500000e+01
2.500000e+01
2.500000e+01
2.500000e+01
2.500000e+01
2.500000e+01
2.500000e+01
2.500000e+01
2.500000e+01
2.500000e+01
2.500000e+01
2.500000e+01
2.500000e+01
2.500000e+01
2.500000e+01
2.500000e+01
3.750000e+01
3.750000e+01
3.750000e+01
3.750000e+01
3.750000e+01
3.750000e+01
3.750000e+01
3.750000e+01
3.750000e+01
3.750000e+01
3.750000e+01
3.750000e+01
3.750000e+01
3.750000e+01
3.750000e+01
3.750000e+01
3.750000e+01
5.000000e+01
5.000000e+01
5.000000e+01
5.000000e+01
5.000000e+01
5.000000e+01
5.000000e+01
5.000000e+01
5.000000e+01
5.000000e+01
5.000000e+01
5.000000e+01
5.000000e+01
5.000000e+01
5.000000e+01
5.000000e+01
5.000000e+01
6.250000e+01
6.250000e+01
6.250000e+01
6.250000e+01
6.250000e+01
6.250000e+01
6.250000e+01
6.250000e+01
6.250000e+01
6.250000e+01
6.250000e+01
6.250000e+01
6.250000e+01
6.250000e+01
6.250000e+01
6.250000e+01
6.250000e+01
7.500000e+01
7.500000e+01
7.500000e+01
7.500000e+01
7.500000e+01
7.500000e+01
7.500000e+01
7.500000e+01
7.500000e+01
7.500000e+01
7.500000e+01
7.500000e+01
7.500000e+01
7.500000e+01
7.500000e+01
7.500000e+01
7.500000e+01
8.750000e+01
8.750000e+01
8.750000e+01
8.750000e+01
8.750000e+01
8.750000e+01
8.750000e+01
8.750000e+01
8.750000e+01
8.750000e+01
8.750000e+01
8.750000e+01
8.750000e+01
8.750000e+01
8.750000e+01
8.750000e+01
8.750000e+01
1.000000e+02
1.000000e+02
1.000000e+02
1.000000e+02
1.000000e+02
1.000000e+02
1.000000e+02
1.000000e+02
1.000000e+02
1.000000e+02
1.000000e+02
1.000000e+02
1.000000e+02
1.000000e+02
1.000000e+02
1.000000e+02
1.000000e+02
0.000000e+00
-6.786816e-02
-1.249668e-01
-1.775050e-01
-2.264326e-01
-2.716464e-01
-3.130496e-01
-3.506099e-01
-3.843820e-01
-4.145216e-01
-4.413274e-01
-4.653233e-01
-4.874106e-01
-5.091464e-01
-5.332160e-01
-5.627766e-01
-5.849585e-01
0.000000e+00
-4.052970e-02
-8.419257e-02
-1.245124e-01
-1.616593e-01
-1.957745e-01
-2.269287e-01
-2.551639e-01
-2.805307e-01
-3.031074e-01
-3.230086e-01
-3.403777e-01
-3.553257e-01
-3.676985e-01
-3.764258e-01
-3.783386e-01
-3.851967e-01
0.000000e+00
-2.534615e-02
-5.211800e-02
-7.882686e-02
-1.037587e-01
-1.266496e-01
-1.474809e-01
-1.662763e-01
-1.830404e-01
-1.977452e-01
-2.103116e-01
-2.205642e-01
-2.281373e-01
-2.323647e-01
-2.324821e-01
-2.307933e-01
-2.377880e-01
0.000000e+00
-1.223363e-02
-2.518455e-02
-3.821724e-02
-5.067882e-02
-6.215669e-02
-7.256023e-02
-8.185914e-02
-9.000021e-02
-9.687751e-02
-1.023153e-01
-1.060568e-01
-1.077959e-01
-1.073896e-01
-1.057204e-01
-1.061769e-01
-1.113852e-01
0.000000e+00
-1.126909e-05
-2.561823e-05
-3.992021e-05
-4.751037e-05
-3.352676e-05
3.152961e-05
2.005911e-04
5.605002e-04
1.240614e-03
2.409696e-03
4.237284e-03
6.769188e-03
9.630366e-03
1.160678e-02
1.106471e-02
7.616355e-03
0.000000e+00
1.221629e-02
2.514429e-02
3.815285e-02
5.059873e-02
6.209155e-02
7.258550e-02
8.213192e-02
9.081359e-02
9.873119e-02
1.059882e-01
1.126384e-01
1.185661e-01
1.233195e-01
1.261157e-01
1.263375e-01
1.245872e-01
0.000000e+00
2.534330e-02
5.210933e-02
7.880960e-02
1.037317e-01
1.266160e-01
1.474531e-01
1.662853e-01
1.831518e-01
1.980824e-01
2.110903e-01
2.221436e-01
2.311152e-01
2.377482e-01
2.417294e-01
2.430222e-01
2.426140e-01
0.000000e+00
4.054633e-02
8.422872e-02
1.245701e-01
1.617366e-01
1.958572e-01
2.269752e-01
2.550790e-01
2.801257e-01
3.020433e-01
3.207275e-01
3.360493e-01
3.478861e-01
3.561988e-01
3.611575e-01
3.632721e-01
3.636605e-01
0.000000e+00
6.789596e-02
1.250402e-01
1.776424e-01
2.266520e-01
2.719551e-01
3.134178e-01
3.509195e-01
3.843349e-01
4.134903e-01
4.381329e-01
4.579342e-01
4.725690e-01
4.819222e-01
4.864455e-01
4.875620e-01
4.875405e-01
0.000000e+00
-4.108246e-02
-8.064959e-02
-1.319193e-01
-1.948424e-01
-2.693009e-01
-3.544795e-01
-4.494249e-01
-5.531275e-01
-6.645911e-01
-7.828954e-01
-9.073080e-01
-1.037529e+00
-1.174253e+00
-1.321029e+00
-1.488966e+00
-1.730262e+00
0.000000e+00
-2.529111e-02
-6.656611e-02
-1.184717e-01
-1.824231e-01
-2.578978e-01
-3.441083e-01
-4.400781e-01
-5.447858e-01
-6.572172e-01
-7.764267e-01
-9.016482e-01
-1.032535e+00
-1.169765e+00
-1.316483e+00
-1.483401e+00
-1.687894e+00
0.000000e+00
-1.908436e-02
-5.680274e-02
-1.088999e-01
-1.734560e-01
-2.497075e-01
-3.367105e-01
-4.334788e-01
-5.389981e-01
-6.522687e-01
-7.723631e-01
-8.985415e-01
-1.030491e+00
-1.168775e+00
-1.315620e+00
-1.473781e+00
-1.626847e+00
0.000000e+00
-1.644552e-02
-5.194844e-02
-1.032815e-01
-1.680710e-01
-2.447919e-01
-3.323373e-01
-4.296836e-01
-5.358357e-01
-6.498207e-01
-7.707313e-01
-8.978136e-01
-1.030605e+00
-1.169043e+00
-1.312949e+00
-1.458277e+00
-1.592157e+00
0.000000e+00
-1.568531e-02
-5.047929e-02
-1.014892e-01
-1.662963e-01
-2.432082e-01
-3.310053e-01
-4.286650e-01
-5.352110e-01
-6.496865e-01
-7.711640e-01
-8.987699e-01
-1.031680e+00
-1.168912e+00
-1.308415e+00
-1.445416e+00
-1.571628e+00
0.000000e+00
-1.643576e-02
-5.194149e-02
-1.032939e-01
-1.681317e-01
-2.449519e-01
-3.326795e-01
-4.303318e-01
-5.369531e-01
-6.515819e-01
-7.732307e-01
-9.008426e-01
-1.033183e+00
-1.168568e+00
-1.304397e+00
-1.436701e+00
-1.560219e+00
0.000000e+00
-1.906844e-02
-5.679123e-02
-1.089205e-01
-1.735583e-01
-2.499782e-01
-3.372907e-01
-4.345793e-01
-5.408980e-01
-6.552688e-01
-7.766375e-01
-9.037850e-01
-1.035179e+00
-1.168790e+00
-1.301986e+00
-1.431750e+00
-1.555186e+00
0.000000e+00
-2.527618e-02
-6.655609e-02
-1.184991e-01
-1.825460e-01
-2.582160e-01
-3.447837e-01
-4.413501e-01
-5.469683e-01
-6.606423e-01
-7.812749e-01
-9.075597e-01
-1.037834e+00
-1.169958e+00
-1.301382e+00
-1.429704e+00
-1.554005e+00
0.000000e+00
-4.107629e-02
-8.065045e-02
-1.319617e-01
-1.949848e-01
-2.696410e-01
-3.551706e-01
-4.506858e-01
-5.552296e-01
-6.677887e-01
-7.872393e-01
-9.122461e-01
-1.041135e+00
-1.171814e+00
-1.301895e+00
-1.429329e+00
-1.554024e+00


0.000000e+00
9.312390e-08
1.865889e-07
2.733932e-07
3.548039e-07
4.303610e-07
4.997471e-07
5.629421e-07
6.200723e-07
6.713770e-07
7.171953e-07
7.579052e-07
7.937278e-07
8.243809e-07
8.494697e-07
8.709084e-07
8.899836e-07
0.000000e+00
5.236680e-08
1.274307e-07
1.949315e-07
2.568271e-07
3.138865e-07
3.660573e-07
4.133392e-07
4.557695e-07
4.933781e-07
5.261531e-07
5.539975e-07
5.767697e-07
5.949380e-07
6.115329e-07
6.312283e-07
6.514988e-07
0.000000e+00
3.299194e-08
8.052632e-08
1.251293e-07
1.667134e-07
2.049633e-07
2.397279e-07
2.709649e-07
2.986263e-07
3.226186e-07
3.428040e-07
3.590846e-07
3.717152e-07
3.819919e-07
3.928311e-07
4.074757e-07
4.243958e-07
0.000000e+00
1.611559e-08
3.860252e-08
6.044644e-08
8.124008e-08
1.003446e-07
1.175532e-07
1.327869e-07
1.459559e-07
1.569455e-07
1.656601e-07
1.721511e-07
1.768569e-07
1.808865e-07
1.860779e-07
1.946135e-07
2.063605e-07
0.000000e+00
1.688966e-11
2.092540e-11
-8.868754e-12
-1.011573e-10
-3.016735e-10
-6.774732e-10
-1.317796e-09
-2.326190e-09
-3.794768e-09
-5.747762e-09
-8.047188e-09
-1.028238e-08
-1.170045e-08
-1.114174e-08
-7.124150e-09
5.928534e-10
0.000000e+00
-1.608403e-08
-3.856014e-08
-6.044800e-08
-8.138741e-08
-1.008161e-07
-1.186417e-07
-1.349398e-07
-1.498044e-07
-1.632938e-07
-1.753812e-07
-1.859015e-07
-1.945180e-07
-2.007281e-07
-2.039106e-07
-2.033039e-07
-1.990767e-07
0.000000e+00
-3.297207e-08
-8.049695e-08
-1.251118e-07
-1.667480e-07
-2.051266e-07
-2.401531e-07
-2.718659e-07
-3.003198e-07
-3.255318e-07
-3.474400e-07
-3.658707e-07
-3.805315e-07
-3.910787e-07
-3.973375e-07
-3.994218e-07
-3.981736e-07
0.000000e+00
-5.238673e-08
-1.274704e-07
-1.949674e-07
-2.568205e-07
-3.137713e-07
-3.657247e-07
-4.126213e-07
-4.544232e-07
-4.910767e-07
-5.224979e-07
-5.485619e-07
-5.691064e-07
-5.839947e-07
-5.933576e-07
-5.979610e-07
-5.990731e-07
0.000000e+00
-9.323400e-08
-1.867840e-07
-2.736345e-07
-3.550101e-07
-4.303628e-07
-4.992237e-07
-5.613390e-07
-6.165045e-07
-6.645338e-07
-7.052799e-07
-7.386773e-07
-7.647823e-07
-7.838093e-07
-7.962028e-07
-8.026096e-07
-8.046676e-07
0.000000e+00
8.430333e-08
1.644745e-07
2.544405e-07
3.617408e-07
4.874826e-07
6.308427e-07
7.904976e-07
9.649217e-07
1.152634e-06
1.352364e-06
1.563330e-06
1.785959e-06
2.023452e-06
2.281673e-06
2.555963e-06
2.828096e-06
0.000000e+00
5.100201e-08
1.289213e-07
2.195880e-07
3.289718e-07
4.572361e-07
6.033060e-07
7.656851e-07
9.428083e-07
1.133173e-06
1.335488e-06
1.548909e-06
1.773458e-06
2.010543e-06
2.262479e-06
2.529813e-06
2.798364e-06
0.000000e+00
3.249432e-08
1.004189e-07
1.909816e-07
3.019371e-07
4.323883e-07
5.808167e-07
7.456087e-07
9.251723e-07
1.117998e-06
1.322749e-06
1.538375e-06
1.764153e-06
1.999420e-06
2.243787e-06
2.501359e-06
2.761254e-06
0.000000e+00
2.384604e-08
8.542244e-08
1.742992e-07
2.859791e-07
4.177858e-07
5.677501e-07
7.341558e-07
9.153889e-07
1.109913e-06
1.316280e-06
1.533111e-06
1.758954e-06
1.991988e-06
2.230755e-06
2.478392e-06
2.725341e-06
0.000000e+00
2.136033e-08
8.087491e-08
1.689325e-07
2.808079e-07
4.131577e-07
5.637851e-07
7.309277e-07
9.129510e-07
1.108261e-06
1.315259e-06
1.532262e-06
1.757328e-06
1.988050e-06
2.222055e-06
2.460804e-06
2.695017e-06
0.000000e+00
2.386530e-08
8.549470e-08
1.744779e-07
2.863343e-07
4.184129e-07
5.687678e-07
7.356895e-07
9.175262e-07
1.112611e-06
1.319203e-06
1.535391e-06
1.758955e-06
1.987152e-06
2.217021e-06
2.448347e-06
2.673271e-06
0.000000e+00
3.252539e-08
1.005448e-07
1.912948e-07
3.025601e-07
4.334894e-07
5.826058e-07
7.483076e-07
9.289366e-07
1.122756e-06
1.327901e-06
1.542310e-06
1.763604e-06
1.988924e-06
2.215110e-06
2.440882e-06
2.660021e-06
0.000000e+00
5.104144e-08
1.290810e-07
2.199737e-07
3.297320e-07
4.585729e-07
6.054692e-07
7.689329e-07
9.473086e-07
1.138802e-06
1.341454e-06
1.553091e-06
1.771250e-06
1.993122e-06
2.215795e-06
2.437526e-06
2.653696e-06
0.000000e+00
8.436868e-08
1.646612e-07
2.548565e-07
3.625323e-07
4.888426e-07
6.329993e-07
7.936665e-07
9.691945e-07
1.157760e-06
1.357355e-06
1.565749e-06
1.780459e-06
1.998787e-06
2.218169e-06
2.436980e-06
2.651851e-06


1.983055e-01
1.983055e-01
1.983054e-01
1.983050e-01
1.983046e-01
1.983043e-01
1.983040e-01
1.983038e-01
1.983036e-01
1.983034e-01
1.983032e-01
1.983031e-01
1.983030e-01
1.983031e-01
1.983033e-01
1.983034e-01
1.983049e-01
1.983050e-01
1.983048e-01
1.983046e-01
1.983043e-01
1.983041e-01
1.983038e-01
1.983036e-01
1.983034e-01
1.983033e-01
1.983032e-01
1.983030e-01
1.983030e-01
1.983031e-01
1.983033e-01
1.983035e-01
1.983039e-01
1.983040e-01
1.983040e-01
1.983039e-01
1.983037e-01
1.983036e-01
1.983034e-01
1.983033e-01
1.983032e-01
1.983031e-01
1.983030e-01
1.983030e-01
1.983030e-01
1.983031e-01
1.983033e-01
1.983034e-01
1.983033e-01
1.983033e-01
1.983034e-01
1.983034e-01
1.983033e-01
1.983032e-01
1.983032e-01
1.983031e-01
1.983031e-01
1.983030e-01
1.983030e-01
1.983030e-01
1.983030e-01
1.983031e-01
1.983031e-01
1.983032e-01
1.983033e-01
1.983033e-01
1.983034e-01
1.983034e-01
1.983033e-01
1.983032e-01
1.983032e-01
1.983031e-01
1.983031e-01
1.983031e-01
1.983030e-01
1.983030e-01
1.983030e-01
1.983030e-01
1.983030e-01
1.983030e-01
1.983039e-01
1.983040e-01
1.983040e-01
1.983039e-01
1.983037e-01
1.983036e-01
1.983035e-01
1.983034e-01
1.983033e-01
1.983032e-01
1.983031e-01
1.983030e-01
1.983030e-01
1.983029e-01
1.983029e-01
1.983029e-01
1.983049e-01
1.983050e-01
1.983049e-01
1.983046e-01
1.983043e-01
1.983041e-01
1.983038e-01
1.983036e-01
1.983035e-01
1.983033e-01
1.983032e-01
1.983031e-01
1.983030e-01
1.983029e-01
1.983028e-01
1.983028e-01
1.983055e-01
1.983055e-01
1.983054e-01
1.983050e-01
1.983046e-01
1.983043e-01
1.983040e-01
1.983038e-01
1.983036e-01
1.983034e-01
1.983032e-01
1.983030e-01
1.983029e-01
1.983028e-01
1.983027e-01
1.983027e-01


9.896371e-01
9.911066e-01
9.924660e-01
9.935126e-01
9.944839e-01
9.953796e-01
9.961957e-01
9.969225e-01
9.975524e-01
9.980792e-01
9.984982e-01
9.988051e-01
9.989958e-01
9.990639e-01
9.991130e-01
9.960845e-01
9.960795e-01
9.954061e-01
9.958394e-01
9.964048e-01
9.969321e-01
9.974112e-01
9.978450e-01
9.982379e-01
9.985936e-01
9.989158e-01
9.992082e-01
9.994729e-01
9.997039e-01
9.998552e-01
9.994727e-01
9.942886e-01
9.986378e-01
9.982510e-01
9.981466e-01
9.982935e-01
9.984867e-01
9.986739e-01
9.988476e-01
9.990118e-01
9.991709e-01
9.993259e-01
9.994707e-01
9.995829e-01
9.996063e-01
9.994044e-01
9.986719e-01
9.973544e-01
9.997228e-01
9.994407e-01
9.992664e-01
9.992222e-01
9.992399e-01
9.992695e-01
9.992991e-01
9.993280e-01
9.993563e-01
9.993801e-01
9.993867e-01
9.993514e-01
9.992394e-01
9.990384e-01
9.988679e-01
9.988247e-01
9.997238e-01
9.994421e-01
9.992677e-01
9.992219e-01
9.992355e-01
9.992568e-01
9.992717e-01
9.992767e-01
9.992699e-01
9.992480e-01
9.992073e-01
9.991487e-01
9.990929e-01
9.991040e-01
9.992618e-01
9.995349e-01
9.986397e-01
9.982540e-01
9.981494e-01
9.982935e-01
9.984792e-01
9.986507e-01
9.987958e-01
9.989124e-01
9.989998e-01
9.990586e-01
9.990958e-01
9.991322e-01
9.992085e-01
9.993687e-01
9.996092e-01
9.998579e-01
9.960791e-01
9.954058e-01
9.958388e-01
9.964032e-01
9.969279e-01
9.974018e-01
9.978255e-01
9.982006e-01
9.985275e-01
9.988069e-01
9.990434e-01
9.992500e-01
9.994489e-01
9.996575e-01
9.998525e-01
9.999753e-01
9.896300e-01
9.910955e-01
9.924525e-01
9.934973e-01
9.944703e-01
9.953747e-01
9.962125e-01
9.969819e-01
9.976828e-01
9.983141e-01
9.988681e-01
9.993278e-01
9.996697e-01
9.998806e-01
9.999766e-01
9.999995e-01
1 2 19 18
2 3 20 19
3 4 21 20
4 5 22 21
5 6 23 22
6 7 24 23
7 8 25 24
8 9 26 25
9 10 27 26
10 11 28 27
11 12 29 28
12 13 30 29
13 14 31 30
14 15 32 31
15 16 33 32
16 17 34 33
18 19 36 35
19 20 37 36
20 21 38 37
21 22 39 38
22 23 40 39
23 24 41 40
24 25 42 41
25 26 43 42
26 27 44 43
27 28 45 44
28 29 46 45
29 30 47 46
30 31 48 47
31 32 49 48
32 33 50 49
33 34 51 50
35 36 53 52
36 37 54 53
37 38 55 54
38 39 56 55
39 40 57 56
40 41 58 57
41 42 59 58
42 43 60 59
43 44 61 60
44 45 62 61
45 46 63 62
46 47 64 63
47 48 65 64
48 49 66 65
49 50 67 66
50 51 68 67
52 53 70 69
53 54 71 70
54 55 72 71
55 56 73 72
56 57 74 73
57 58 75 74
58 59 76 75
59 60 77 76
60 61 78 77
61 62 79 78
62 63 80 79
63 64 81 80
64 65 82 81
65 66 83 82
66 67 84 83
67 68 85 84
69 70 87 86
70 71 88 87
71 72 89 88
72 73 90 89
73 74 91 90
74 75 92 91
75 76 93 92
76 77 94 93
77 78 95 94
78 79 96 95
79 80 97 96
80 81 98 97
81 82 99 98
82 83 100 99
83 84 101 100
84 85 102 101
86 87 104 103
87 88 105 104
88 89 106 105
89 90 107 106
90 91 108 107
91 92 109 108
92 93 110 109
93 94 111 110
94 95 112 111
95 96 113 112
96 97 114 113
97 98 115 114
98 99 116 115
99 100 117 116
100 101 118 117
101 102 119 118
103 104 121 120
104 105 122 121
105 106 123 122
106 107 124 123
107 108 125 124
108 109 126 125
109 110 127 126
110 111 128 127
111 112 129 128
112 113 130 129
113 114 131 130
114 115 132 131
115 116 133 132
116 117 134 133
117 118 135 134
118 119 136 135
120 121 138 137
121 122 139 138
122 123 140 139
123 124 141 140
124 125 142 141
125 126 143 142
126 127 144 143
127 128 145 144
128 129 146 145
129 130 147 146
130 131 148 147
131 132 149 148
132 133 150 149
133 134 151 150
134 135 152 151
135 136 153 152
