TITLE = "Solution"
VARIABLES = x, y, u, v, psiu, psiv, t, stress
ZONE T="structure" N=153 E=128 F=FEBLOCK ET=QUADRILATERAL VARLOCATION=([7,8]=cellcentered)
0.000000e+00
1.250000e+01
2.500000e+01
3.750000e+01
5.000000e+01
6.250000e+01
7.500000e+01
8.750000e+01
1.000000e+02
1.125000e+02
1.250000e+02
1.375000e+02
1.500000e+02
1.625000e+02
1.750000e+02
1.875000e+02
2.000000e+02
0.000000e+00
1.250000e+01
2.500000e+01
3.750000e+01
5.000000e+01
6.250000e+01
7.500000e+01
8.750000e+01
1.000000e+02
1.125000e+02
1.250000e+02
1.375000e+02
1.500000e+02
1.625000e+02
1.750000e+02
1.875000e+02
2.000000e+02
0.000000e+00
1.250000e+01
2.500000e+01
3.750000e+01
5.000000e+01
6.250000e+01
7.500000e+01
8.750000e+01
1.000000e+02
1.125000e+02
1.250000e+02
1.375000e+02
1.500000e+02
1.625000e+02
1.750000e+02
1.875000e+02
2.000000e+02
0.000000e+00
1.250000e+01
2.500000e+01
3.750000e+01
5.000000e+01
6.250000e+01
7.500000e+01
8.750000e+01
1.000000e+02
1.125000e+02
1.250000e+02
1.375000e+02
1.500000e+02
1.625000e+02
1.750000e+02
1.875000e+02
2.000000e+02
0.000000e+00
1.250000e+01
2.500000e+01
3.750000e+01
5.000000e+01
6.250000e+01
7.500000e+01
8.750000e+01
1.000000e+02
1.125000e+02
1.250000e+02
1.375000e+02
1.500000e+02
1.625000e+02
1.750000e+02
1.875000e+02
2.000000e+02
0.000000e+00
1.250000e+01
2.500000e+01
3.750000e+01
5.000000e+01
6.250000e+01
7.500000e+01
8.750000e+01
1.000000e+02
1.125000e+02
1.250000e+02
1.375000e+02
1.500000e+02
1.625000e+02
1.750000e+02
1.875000e+02
2.000000e+02
0.000000e+00
1.250000e+01
2.500000e+01
3.750000e+01
5.000000e+01
6.250000e+01
7.500000e+01
8.750000e+01
1.000000e+02
1.125000e+02
1.250000e+02
1.375000e+02
1.500000e+02
1.625000e+02
1.750000e+02
1.875000e+02
2.000000e+02
0.000000e+00
1.250000e+01
2.500000e+01
3.750000e+01
5.000000e+01
6.250000e+01
7.500000e+01
8.750000e+01
1.000000e+02
1.125000e+02
1.250000e+02
1.375000e+02
1.500000e+02
1.625000e+02
1.750000e+02
1.875000e+02
2.000000e+02
0.000000e+00
1.250000e+01
2.500000e+01
3.750000e+01
5.000000e+01
6.250000e+01
7.500000e+01
8.750000e+01
1.000000e+02
1.125000e+02
1.250000e+02
1.375000e+02
1.500000e+02
1.625000e+02
1.750000e+02
1.875000e+02
2.000000e+02
0.000000e+00
0.000000e+00
0.000000e+00
0.000000e+00
0.000000e+00
0.000000e+00
0.000000e+00
0.000000e+00
0.000000e+00
0.000000e+00
0.000000e+00
0.000000e+00
0.000000e+00
0.000000e+00
0.000000e+00
0.000000e+00
0.000000e+00
1.250000e+01
1.250000e+01
1.250000e+01
1.250000e+01
1.250000e+01
1.250000e+01
1.250000e+01
1.250000e+01
1.250000e+01
1.250000e+01
1.250000e+01
1.250000e+01
1.250000e+01
1.250000e+01
1.250000e+01
1.250000e+01
1.250000e+01
2.500000e+01
2.500000e+01
2.500000e+01
2.500000e+01
2.500000e+01
2.500000e+01
2.500000e+01
2.500000e+01
2.500000e+01
2.500000e+01
2.500000e+01
2.500000e+01
2.500000e+01
2.500000e+01
2.500000e+01
2.500000e+01
2.500000e+01
3.750000e+01
3.750000e+01
3.750000e+01
3.750000e+01
3.750000e+01
3.750000e+01
3.750000e+01
3.750000e+01
3.750000e+01
3.750000e+01
3.750000e+01
3.750000e+01
3.750000e+01
3.750000e+01
3.750000e+01
3.750000e+01
3.750000e+01
5.000000e+01
5.000000e+01
5.000000e+01
5.000000e+01
5.000000e+01
5.000000e+01
5.000000e+01
5.000000e+01
5.000000e+01
5.000000e+01
5.000000e+01
5.000000e+01
5.000000e+01
5.000000e+01
5.000000e+01
5.000000e+01
5.000000e+01
6.250000e+01
6.250000e+01
6.250000e+01
6.250000e+01
6.250000e+01
6.250000e+01
6.250000e+01
6.250000e+01
6.250000e+01
6.250000e+01
6.250000e+01
6.250000e+01
6.250000e+01
6.250000e+01
6.250000e+01
6.250000e+01
6.250000e+01
7.500000e+01
7.500000e+01
7.500000e+01
7.500000e+01
7.500000e+01
7.500000e+01
7.500000e+01
7.500000e+01
7.500000e+01
7.500000e+01
7.500000e+01
7.500000e+01
7.500000e+01
7.500000e+01
7.500000e+01
7.500000e+01
7.500000e+01
8.750000e+01
8.750000e+01
8.750000e+01
8.750000e+01
8.750000e+01
8.750000e+01
8.750000e+01
8.750000e+01
8.750000e+01
8.750000e+01
8.750000e+01
8.750000e+01
8.750000e+01
8.750000e+01
8.750000e+01
8.750000e+01
8.750000e+01
1.000000e+02
1.000000e+02
1.000000e+02
1.000000e+02
1.000000e+02
1.000000e+02
1.000000e+02
1.000000e+02
1.000000e+02
1.000000e+02
1.000000e+02
1.000000e+02
1.000000e+02
1.000000e+02
1.000000e+02
1.000000e+02
1.000000e+02
0.000000e+00
-6.935336e-02
-1.277016e-01
-1.813894e-01
-2.313878e-01
-2.775912e-01
-3.199005e-01
-3.582829e-01
-3.927943e-01
-4.235936e-01
-4.509862e-01
-4.755074e-01
-4.980783e-01
-5.202899e-01
-5.448864e-01
-5.750940e-01
-5.977616e-01
0.000000e+00
-4.141662e-02
-8.603496e-02
-1.272371e-01
-1.651970e-01
-2.000588e-01
-2.318949e-01
-2.607481e-01
-2.866701e-01
-3.097410e-01
-3.300779e-01
-3.478272e-01
-3.631024e-01
-3.757461e-01
-3.846644e-01
-3.866191e-01
-3.936274e-01
0.000000e+00
-2.590078e-02
-5.325848e-02
-8.055182e-02
-1.060293e-01
-1.294211e-01
-1.507084e-01
-1.699152e-01
-1.870462e-01
-2.020729e-01
-2.149144e-01
-2.253914e-01
-2.331303e-01
-2.374503e-01
-2.375702e-01
-2.358444e-01
-2.429923e-01
0.000000e+00
-1.250132e-02
-2.573564e-02
-3.905353e-02
-5.178783e-02
-6.351690e-02
-7.414814e-02
-8.365059e-02
-9.196986e-02
-9.899770e-02
-1.045545e-01
-1.083780e-01
-1.101551e-01
-1.097399e-01
-1.080341e-01
-1.085006e-01
-1.138229e-01
0.000000e+00
-1.151594e-05
-2.617937e-05
-4.079464e-05
-4.855117e-05
-3.426171e-05
3.221852e-05
2.049806e-04
5.727682e-04
1.267770e-03
2.462445e-03
4.330042e-03
6.917374e-03
9.841188e-03
1.186087e-02
1.130693e-02
7.783095e-03
0.000000e+00
1.248360e-02
2.569451e-02
3.898773e-02
5.170599e-02
6.345033e-02
7.417397e-02
8.392934e-02
9.280104e-02
1.008920e-01
1.083079e-01
1.151036e-01
1.211611e-01
1.260186e-01
1.288759e-01
1.291026e-01
1.273140e-01
0.000000e+00
2.589787e-02
5.324962e-02
8.053418e-02
1.060017e-01
1.293868e-01
1.506800e-01
1.699244e-01
1.871601e-01
2.024175e-01
2.157101e-01
2.270054e-01
2.361734e-01
2.429516e-01
2.470200e-01
2.483411e-01
2.479240e-01
0.000000e+00
4.143361e-02
8.607190e-02
1.272961e-01
1.652760e-01
2.001434e-01
2.319424e-01
2.606613e-01
2.862563e-01
3.086536e-01
3.277469e-01
3.434041e-01
3.555000e-01
3.639947e-01
3.690619e-01
3.712228e-01
3.716197e-01
0.000000e+00
6.938178e-02
1.277765e-01
1.815298e-01
2.316121e-01
2.779067e-01
3.202768e-01
3.585994e-01
3.927462e-01
4.225398e-01
4.477218e-01
4.679566e-01
4.829117e-01
4.924697e-01
4.970920e-01
4.982330e-01
4.982110e-01
0.000000e+00
-4.198150e-02
-8.241454e-02
-1.348063e-01
-1.991064e-01
-2.751945e-01
-3.622373e-01
-4.592606e-01
-5.652328e-01
-6.791359e-01
-8.000294e-01
-9.271650e-01
-1.060236e+00
-1.199953e+00
-1.349941e+00
-1.521554e+00
-1.768131e+00
0.000000e+00
-2.584458e-02
-6.802288e-02
-1.210644e-01
-1.864154e-01
-2.635418e-01
-3.516391e-01
-4.497092e-01
-5.567085e-01
-6.716006e-01
-7.934191e-01
-9.213813e-01
-1.055133e+00
-1.195366e+00
-1.345295e+00
-1.515867e+00
-1.724836e+00
0.000000e+00
-1.950202e-02
-5.804585e-02
-1.112831e-01
-1.772520e-01
-2.551723e-01
-3.440793e-01
-4.429655e-01
-5.507942e-01
-6.665438e-01
-7.892666e-01
-9.182066e-01
-1.053044e+00
-1.194355e+00
-1.344413e+00
-1.506036e+00
-1.662453e+00
0.000000e+00
-1.680544e-02
-5.308533e-02
-1.055418e-01
-1.717491e-01
-2.501491e-01
-3.396104e-01
-4.390872e-01
-5.475625e-01
-6.640422e-01
-7.875991e-01
-9.174627e-01
-1.053160e+00
-1.194628e+00
-1.341684e+00
-1.490193e+00
-1.627004e+00
0.000000e+00
-1.602861e-02
-5.158404e-02
-1.037103e-01
-1.699356e-01
-2.485307e-01
-3.382493e-01
-4.380463e-01
-5.469242e-01
-6.639051e-01
-7.880412e-01
-9.184400e-01
-1.054259e+00
-1.194495e+00
-1.337051e+00
-1.477051e+00
-1.606025e+00
0.000000e+00
-1.679546e-02
-5.307823e-02
-1.055544e-01
-1.718112e-01
-2.503126e-01
-3.399601e-01
-4.397496e-01
-5.487043e-01
-6.658420e-01
-7.901532e-01
-9.205581e-01
-1.055795e+00
-1.194144e+00
-1.332945e+00
-1.468144e+00
-1.594366e+00
0.000000e+00
-1.948575e-02
-5.803409e-02
-1.113042e-01
-1.773565e-01
-2.554489e-01
-3.446722e-01
-4.440901e-01
-5.527357e-01
-6.696096e-01
-7.936346e-01
-9.235648e-01
-1.057835e+00
-1.194370e+00
-1.330481e+00
-1.463086e+00
-1.589223e+00
0.000000e+00
-2.582932e-02
-6.801263e-02
-1.210924e-01
-1.865409e-01
-2.638670e-01
-3.523292e-01
-4.510090e-01
-5.589388e-01
-6.751007e-01
-7.983734e-01
-9.274222e-01
-1.060548e+00
-1.195564e+00
-1.329864e+00
-1.460994e+00
-1.588016e+00
0.000000e+00
-4.197520e-02
-8.241543e-02
-1.348497e-01
-1.992520e-01
-2.755421e-01
-3.629435e-01
-4.605491e-01
-5.673810e-01
-6.824035e-01
-8.044684e-01
-9.322112e-01
-1.063921e+00
-1.197460e+00
-1.330389e+00
-1.460612e+00
-1.588035e+00


0.000000e+00
9.724375e-08
1.948435e-07
2.854882e-07
3.705007e-07
4.494008e-07
5.218571e-07
5.878485e-07
6.475070e-07
7.010821e-07
7.489282e-07
7.914399e-07
8.288480e-07
8.608578e-07
8.870571e-07
9.094446e-07
9.293639e-07
0.000000e+00
5.468336e-08
1.330680e-07
2.035549e-07
2.681890e-07
3.277730e-07
3.822523e-07
4.316265e-07
4.759345e-07
5.152074e-07
5.494330e-07
5.785097e-07
6.022898e-07
6.212623e-07
6.385917e-07
6.591588e-07
6.803264e-07
0.000000e+00
3.445129e-08
8.408845e-08
1.306647e-07
1.740885e-07
2.140308e-07
2.503337e-07
2.829530e-07
3.118385e-07
3.368926e-07
3.579714e-07
3.749725e-07
3.881622e-07
3.988938e-07
4.102128e-07
4.255055e-07
4.431744e-07
0.000000e+00
1.682840e-08
4.031007e-08
6.312033e-08
8.483393e-08
1.047838e-07
1.227538e-07
1.386616e-07
1.524134e-07
1.638893e-07
1.729896e-07
1.797679e-07
1.846821e-07
1.888900e-07
1.943112e-07
2.032245e-07
2.154914e-07
0.000000e+00
1.763799e-11
2.185331e-11
-9.258463e-12
-1.056305e-10
-3.150201e-10
-7.074513e-10
-1.376114e-09
-2.429138e-09
-3.962715e-09
-6.002150e-09
-8.403355e-09
-1.073749e-08
-1.221833e-08
-1.163491e-08
-7.439509e-09
6.190365e-10
0.000000e+00
-1.679544e-08
-4.026581e-08
-6.312196e-08
-8.498778e-08
-1.052761e-07
-1.238905e-07
-1.409098e-07
-1.564322e-07
-1.705187e-07
-1.831410e-07
-1.941269e-07
-2.031248e-07
-2.096098e-07
-2.129332e-07
-2.122996e-07
-2.078854e-07
0.000000e+00
-3.443054e-08
-8.405777e-08
-1.306463e-07
-1.741247e-07
-2.142013e-07
-2.507777e-07
-2.838938e-07
-3.136069e-07
-3.399347e-07
-3.628125e-07
-3.820590e-07
-3.973687e-07
-4.083827e-07
-4.149186e-07
-4.170951e-07
-4.157916e-07
0.000000e+00
-5.470417e-08
-1.331094e-07
-2.035924e-07
-2.681821e-07
-3.276527e-07
-3.819050e-07
-4.308768e-07
-4.745286e-07
-5.128042e-07
-5.456160e-07
-5.728335e-07
-5.942874e-07
-6.098346e-07
-6.196120e-07
-6.244191e-07
-6.255804e-07
0.000000e+00
-9.735871e-08
-1.950473e-07
-2.857401e-07
-3.707160e-07
-4.494027e-07
-5.213106e-07
-5.861745e-07
-6.437812e-07
-6.939361e-07
-7.364855e-07
-7.713610e-07
-7.986214e-07
-8.184905e-07
-8.314325e-07
-8.381229e-07
-8.402720e-07
0.000000e+00
8.803295e-08
1.717512e-07
2.656977e-07
3.777454e-07
5.090507e-07
6.587539e-07
8.254729e-07
1.007615e-06
1.203632e-06
1.412200e-06
1.632501e-06
1.864981e-06
2.112983e-06
2.382631e-06
2.669058e-06
2.953233e-06
0.000000e+00
5.325844e-08
1.346252e-07
2.293032e-07
3.435266e-07
4.774660e-07
6.299987e-07
7.995623e-07
9.845226e-07
1.183311e-06
1.394577e-06
1.617442e-06
1.851927e-06
2.099502e-06
2.362587e-06
2.641750e-06
2.922184e-06
0.000000e+00
3.393204e-08
1.048618e-07
1.994313e-07
3.152958e-07
4.515187e-07
6.065142e-07
7.785975e-07
9.661061e-07
1.167464e-06
1.381275e-06
1.606441e-06
1.842210e-06
2.087887e-06
2.343068e-06
2.612037e-06
2.883432e-06
0.000000e+00
2.490119e-08
8.920195e-08
1.820108e-07
2.986317e-07
4.362701e-07
5.928694e-07
7.666378e-07
9.558897e-07
1.159021e-06
1.374519e-06
1.600945e-06
1.836781e-06
2.080126e-06
2.329458e-06
2.588054e-06
2.845930e-06
0.000000e+00
2.230552e-08
8.445323e-08
1.764067e-07
2.932317e-07
4.314372e-07
5.887289e-07
7.632668e-07
9.533439e-07
1.157296e-06
1.373453e-06
1.600058e-06
1.835083e-06
2.076014e-06
2.320374e-06
2.569687e-06
2.814264e-06
0.000000e+00
2.492130e-08
8.927740e-08
1.821975e-07
2.990027e-07
4.369249e-07
5.939322e-07
7.682394e-07
9.581216e-07
1.161839e-06
1.377571e-06
1.603326e-06
1.836781e-06
2.075076e-06
2.315117e-06
2.556679e-06
2.791555e-06
0.000000e+00
3.396448e-08
1.049933e-07
1.997584e-07
3.159464e-07
4.526685e-07
6.083825e-07
7.814159e-07
9.700370e-07
1.172432e-06
1.386655e-06
1.610551e-06
1.841637e-06
2.076927e-06
2.313121e-06
2.548883e-06
2.777719e-06
0.000000e+00
5.329962e-08
1.347920e-07
2.297060e-07
3.443205e-07
4.788619e-07
6.322576e-07
8.029539e-07
9.892220e-07
1.189188e-06
1.400808e-06
1.621808e-06
1.849621e-06
2.081311e-06
2.313837e-06
2.545379e-06
2.771114e-06
0.000000e+00
8.810119e-08
1.719462e-07
2.661321e-07
3.785720e-07
5.104709e-07
6.610059e-07
8.287820e-07
1.012076e-06
1.208985e-06
1.417412e-06
1.635027e-06
1.859238e-06
2.087226e-06
2.316315e-06
2.544808e-06
2.769188e-06


2.026448e-01
2.026448e-01
2.026447e-01
2.026446e-01
2.026445e-01
2.026445e-01
2.026444e-01
2.026443e-01
2.026443e-01
2.026442e-01
2.026442e-01
2.026442e-01
2.026441e-01
2.026442e-01
2.026442e-01
2.026442e-01
2.026446e-01
2.026446e-01
2.026446e-01
2.026445e-01
2.026445e-01
2.026444e-01
2.026443e-01
2.026443e-01
2.026442e-01
2.026442e-01
2.026442e-01
2.026441e-01
2.026441e-01
2.026442e-01
2.026442e-01
2.026442e-01
2.026444e-01
2.026444e-01
2.026444e-01
2.026444e-01
2.026443e-01
2.026443e-01
2.026442e-01
2.026442e-01
2.026442e-01
2.026442e-01
2.026441e-01
2.026441e-01
2.026441e-01
2.026442e-01
2.026442e-01
2.026442e-01
2.026442e-01
2.026442e-01
2.026442e-01
2.026442e-01
2.026442e-01
2.026442e-01
2.026442e-01
2.026442e-01
2.026442e-01
2.026441e-01
2.026441e-01
2.026441e-01
2.026441e-01
2.026441e-01
2.026442e-01
2.026442e-01
2.026442e-01
2.026442e-01
2.026442e-01
2.026442e-01
2.026442e-01
2.026442e-01
2.026442e-01
2.026442e-01
2.026442e-01
2.026442e-01
2.026441e-01
2.026441e-01
2.026441e-01
2.026441e-01
2.026441e-01
2.026441e-01
2.026444e-01
2.026444e-01
2.026444e-01
2.026444e-01
2.026443e-01
2.026443e-01
2.026443e-01
2.026442e-01
2.026442e-01
2.026442e-01
2.026442e-01
2.026441e-01
2.026441e-01
2.026441e-01
2.026441e-01
2.026441e-01
2.026446e-01
2.026446e-01
2.026446e-01
2.026445e-01
2.026445e-01
2.026444e-01
2.026443e-01
2.026443e-01
2.026442e-01
2.026442e-01
2.026442e-01
2.026441e-01
2.026441e-01
2.026441e-01
2.026441e-01
2.026441e-01
2.026448e-01
2.026448e-01
2.026447e-01
2.026446e-01
2.026445e-01
2.026445e-01
2.026444e-01
2.026443e-01
2.026443e-01
2.026442e-01
2.026442e-01
2.026441e-01
2.026441e-01
2.026441e-01
2.026441e-01
2.026441e-01


9.891786e-01
9.907131e-01
9.921327e-01
9.932255e-01
9.942398e-01
9.951752e-01
9.960273e-01
9.967863e-01
9.974441e-01
9.979942e-01
9.984317e-01
9.987522e-01
9.989514e-01
9.990224e-01
9.990737e-01
9.959112e-01
9.959060e-01
9.952028e-01
9.956553e-01
9.962458e-01
9.967963e-01
9.972967e-01
9.977496e-01
9.981599e-01
9.985314e-01
9.988679e-01
9.991732e-01
9.994496e-01
9.996908e-01
9.998487e-01
9.994493e-01
9.940358e-01
9.985775e-01
9.981736e-01
9.980646e-01
9.982180e-01
9.984198e-01
9.986152e-01
9.987966e-01
9.989681e-01
9.991342e-01
9.992961e-01
9.994473e-01
9.995644e-01
9.995888e-01
9.993780e-01
9.986131e-01
9.972373e-01
9.997105e-01
9.994159e-01
9.992340e-01
9.991878e-01
9.992062e-01
9.992372e-01
9.992680e-01
9.992982e-01
9.993279e-01
9.993527e-01
9.993596e-01
9.993227e-01
9.992057e-01
9.989958e-01
9.988178e-01
9.987727e-01
9.997116e-01
9.994175e-01
9.992353e-01
9.991875e-01
9.992016e-01
9.992240e-01
9.992394e-01
9.992446e-01
9.992375e-01
9.992147e-01
9.991723e-01
9.991111e-01
9.990528e-01
9.990644e-01
9.992291e-01
9.995143e-01
9.985796e-01
9.981767e-01
9.980676e-01
9.982180e-01
9.984119e-01
9.985910e-01
9.987425e-01
9.988643e-01
9.989555e-01
9.990169e-01
9.990558e-01
9.990937e-01
9.991735e-01
9.993407e-01
9.995919e-01
9.998516e-01
9.959056e-01
9.952025e-01
9.956546e-01
9.962441e-01
9.967920e-01
9.972868e-01
9.977293e-01
9.981210e-01
9.984623e-01
9.987541e-01
9.990011e-01
9.992168e-01
9.994245e-01
9.996423e-01
9.998459e-01
9.999742e-01
9.891712e-01
9.907016e-01
9.921185e-01
9.932096e-01
9.942256e-01
9.951700e-01
9.960449e-01
9.968483e-01
9.975803e-01
9.982395e-01
9.988180e-01
9.992980e-01
9.996551e-01
9.998754e-01
9.999756e-01
9.999995e-01
1 2 19 18
2 3 20 19
3 4 21 20
4 5 22 21
5 6 23 22
6 7 24 23
7 8 25 24
8 9 26 25
9 10 27 26
10 11 28 27
11 12 29 28
12 13 30 29
13 14 31 30
14 15 32 31
15 16 33 32
16 17 34 33
18 19 36 35
19 20 37 36
20 21 38 37
21 22 39 38
22 23 40 39
23 24 41 40
24 25 42 41
25 26 43 42
26 27 44 43
27 28 45 44
28 29 46 45
29 30 47 46
30 31 48 47
31 32 49 48
32 33 50 49
33 34 51 50
35 36 53 52
36 37 54 53
37 38 55 54
38 39 56 55
39 40 57 56
40 41 58 57
41 42 59 58
42 43 60 59
43 44 61 60
44 45 62 61
45 46 63 62
46 47 64 63
47 48 65 64
48 49 66 65
49 50 67 66
50 51 68 67
52 53 70 69
53 54 71 70
54 55 72 71
55 56 73 72
56 57 74 73
57 58 75 74
58 59 76 75
59 60 77 76
60 61 78 77
61 62 79 78
62 63 80 79
63 64 81 80
64 65 82 81
65 66 83 82
66 67 84 83
67 68 85 84
69 70 87 86
70 71 88 87
71 72 89 88
72 73 90 89
73 74 91 90
74 75 92 91
75 76 93 92
76 77 94 93
77 78 95 94
78 79 96 95
79 80 97 96
80 81 98 97
81 82 99 98
82 83 100 99
83 84 101 100
84 85 102 101
86 87 104 103
87 88 105 104
88 89 106 105
89 90 107 106
90 91 108 107
91 92 109 108
92 93 110 109
93 94 111 110
94 95 112 111
95 96 113 112
96 97 114 113
97 98 115 114
98 99 116 115
99 100 117 116
100 101 118 117
101 102 119 118
103 104 121 120
104 105 122 121
105 106 123 122
106 107 124 123
107 108 125 124
108 109 126 125
109 110 127 126
110 111 128 127
111 112 129 128
112 113 130 129
113 114 131 130
114 115 132 131
115 116 133 132
116 117 134 133
117 118 135 134
118 119 136 135
120 121 138 137
121 122 139 138
122 123 140 139
123 124 141 140
124 125 142 141
125 126 143 142
126 127 144 143
127 128 145 144
128 129 146 145
129 130 147 146
130 131 148 147
131 132 149 148
132 133 150 149
133 134 151 150
134 135 152 151
135 136 153 152
