TITLE = "Solution"
VARIABLES = x, y, u, v, psiu, psiv, t, stress
ZONE T="structure" N=153 E=128 F=FEBLOCK ET=QUADRILATERAL VARLOCATION=([7,8]=cellcentered)
0.000000e+00
1.250000e+01
2.500000e+01
3.750000e+01
5.000000e+01
6.250000e+01
7.500000e+01
8.750000e+01
1.000000e+02
1.125000e+02
1.250000e+02
1.375000e+02
1.500000e+02
1.625000e+02
1.750000e+02
1.875000e+02
2.000000e+02
0.000000e+00
1.250000e+01
2.500000e+01
3.750000e+01
5.000000e+01
6.250000e+01
7.500000e+01
8.750000e+01
1.000000e+02
1.125000e+02
1.250000e+02
1.375000e+02
1.500000e+02
1.625000e+02
1.750000e+02
1.875000e+02
2.000000e+02
0.000000e+00
1.250000e+01
2.500000e+01
3.750000e+01
5.000000e+01
6.250000e+01
7.500000e+01
8.750000e+01
1.000000e+02
1.125000e+02
1.250000e+02
1.375000e+02
1.500000e+02
1.625000e+02
1.750000e+02
1.875000e+02
2.000000e+02
0.000000e+00
1.250000e+01
2.500000e+01
3.750000e+01
5.000000e+01
6.250000e+01
7.500000e+01
8.750000e+01
1.000000e+02
1.125000e+02
1.250000e+02
1.375000e+02
1.500000e+02
1.625000e+02
1.750000e+02
1.875000e+02
2.000000e+02
0.000000e+00
1.250000e+01
2.500000e+01
3.750000e+01
5.000000e+01
6.250000e+01
7.500000e+01
8.750000e+01
1.000000e+02
1.125000e+02
1.250000e+02
1.375000e+02
1.500000e+02
1.625000e+02
1.750000e+02
1.875000e+02
2.000000e+02
0.000000e+00
1.250000e+01
2.500000e+01
3.750000e+01
5.000000e+01
6.250000e+01
7.500000e+01
8.750000e+01
1.000000e+02
1.125000e+02
1.250000e+02
1.375000e+02
1.500000e+02
1.625000e+02
1.750000e+02
1.875000e+02
2.000000e+02
0.000000e+00
1.250000e+01
2.500000e+01
3.750000e+01
5.000000e+01
6.250000e+01
7.500000e+01
8.750000e+01
1.000000e+02
1.125000e+02
1.250000e+02
1.375000e+02
1.500000e+02
1.625000e+02
1.750000e+02
1.875000e+02
2.000000e+02
0.000000e+00
1.250000e+01
2.500000e+01
3.750000e+01
5.000000e+01
6.250000e+01
7.500000e+01
8.750000e+01
1.000000e+02
1.125000e+02
1.250000e+02
1.375000e+02
1.500000e+02
1.625000e+02
1.750000e+02
1.875000e+02
2.000000e+02
0.000000e+00
1.250000e+01
2.500000e+01
3.750000e+01
5.000000e+01
6.250000e+01
7.500000e+01
8.750000e+01
1.000000e+02
1.125000e+02
1.250000e+02
1.375000e+02
1.500000e+02
1.625000e+02
1.750000e+02
1.875000e+02
2.000000e+02
0.000000e+00
0.000000e+00
0.000000e+00
0.000000e+00
0.000000e+00
0.000000e+00
0.000000e+00
0.000000e+00
0.000000e+00
0.000000e+00
0.000000e+00
0.000000e+00
0.000000e+00
0.000000e+00
0.000000e+00
0.000000e+00
0.000000e+00
1.250000e+01
1.250000e+01
1.250000e+01
1.250000e+01
1.250000e+01
1.250000e+01
1.250000e+01
1.250000e+01
1.250000e+01
1.250000e+01
1.250000e+01
1.250000e+01
1.250000e+01
1.250000e+01
1.250000e+01
1.250000e+01
1.250000e+01
2.500000e+01
2.500000e+01
2.500000e+01
2.500000e+01
2.500000e+01
2.500000e+01
2.500000e+01
2.500000e+01
2.500000e+01
2.500000e+01
2.500000e+01
2.500000e+01
2.500000e+01
2.500000e+01
2.500000e+01
2.500000e+01
2.500000e+01
3.750000e+01
3.750000e+01
3.750000e+01
3.750000e+01
3.750000e+01
3.750000e+01
3.750000e+01
3.750000e+01
3.750000e+01
3.750000e+01
3.750000e+01
3.750000e+01
3.750000e+01
3.750000e+01
3.750000e+01
3.750000e+01
3.750000e+01
5.000000e+01
5.000000e+01
5.000000e+01
5.000000e+01
5.000000e+01
5.000000e+01
5.000000e+01
5.000000e+01
5.000000e+01
5.000000e+01
5.000000e+01
5.000000e+01
5.000000e+01
5.000000e+01
5.000000e+01
5.000000e+01
5.000000e+01
6.250000e+01
6.250000e+01
6.250000e+01
6.250000e+01
6.250000e+01
6.250000e+01
6.250000e+01
6.250000e+01
6.250000e+01
6.250000e+01
6.250000e+01
6.250000e+01
6.250000e+01
6.250000e+01
6.250000e+01
6.250000e+01
6.250000e+01
7.500000e+01
7.500000e+01
7.500000e+01
7.500000e+01
7.500000e+01
7.500000e+01
7.500000e+01
7.500000e+01
7.500000e+01
7.500000e+01
7.500000e+01
7.500000e+01
7.500000e+01
7.500000e+01
7.500000e+01
7.500000e+01
7.500000e+01
8.750000e+01
8.750000e+01
8.750000e+01
8.750000e+01
8.750000e+01
8.750000e+01
8.750000e+01
8.750000e+01
8.750000e+01
8.750000e+01
8.750000e+01
8.750000e+01
8.750000e+01
8.750000e+01
8.750000e+01
8.750000e+01
8.750000e+01
1.000000e+02
1.000000e+02
1.000000e+02
1.000000e+02
1.000000e+02
1.000000e+02
1.000000e+02
1.000000e+02
1.000000e+02
1.000000e+02
1.000000e+02
1.000000e+02
1.000000e+02
1.000000e+02
1.000000e+02
1.000000e+02
1.000000e+02
0.000000e+00
-7.062874e-02
-1.300499e-01
-1.847251e-01
-2.356429e-01
-2.826960e-01
-3.257835e-01
-3.648718e-01
-4.000178e-01
-4.313836e-01
-4.592800e-01
-4.842522e-01
-5.072381e-01
-5.298583e-01
-5.549072e-01
-5.856704e-01
-6.087548e-01
0.000000e+00
-4.217824e-02
-8.761709e-02
-1.295770e-01
-1.682349e-01
-2.037378e-01
-2.361594e-01
-2.655432e-01
-2.919420e-01
-3.154372e-01
-3.361481e-01
-3.542239e-01
-3.697800e-01
-3.826562e-01
-3.917386e-01
-3.937293e-01
-4.008664e-01
0.000000e+00
-2.637707e-02
-5.423786e-02
-8.203311e-02
-1.079791e-01
-1.318011e-01
-1.534799e-01
-1.730399e-01
-1.904860e-01
-2.057891e-01
-2.188668e-01
-2.295364e-01
-2.374176e-01
-2.418171e-01
-2.419392e-01
-2.401817e-01
-2.474610e-01
0.000000e+00
-1.273121e-02
-2.620889e-02
-3.977169e-02
-5.274017e-02
-6.468495e-02
-7.551170e-02
-8.518891e-02
-9.366118e-02
-1.008183e-01
-1.064773e-01
-1.103710e-01
-1.121809e-01
-1.117581e-01
-1.100209e-01
-1.104960e-01
-1.159162e-01
0.000000e+00
-1.172780e-05
-2.666097e-05
-4.154510e-05
-4.944437e-05
-3.489218e-05
3.281065e-05
2.087501e-04
5.833019e-04
1.291086e-03
2.507733e-03
4.409679e-03
7.044598e-03
1.002219e-02
1.207902e-02
1.151489e-02
7.926244e-03
0.000000e+00
1.271316e-02
2.616700e-02
3.970468e-02
5.265682e-02
6.461715e-02
7.553800e-02
8.547278e-02
9.450764e-02
1.027474e-01
1.102997e-01
1.172204e-01
1.233893e-01
1.283361e-01
1.312460e-01
1.314768e-01
1.296554e-01
0.000000e+00
2.637411e-02
5.422883e-02
8.201515e-02
1.079510e-01
1.317662e-01
1.534509e-01
1.730493e-01
1.906019e-01
2.061400e-01
2.196771e-01
2.311801e-01
2.405167e-01
2.474196e-01
2.515628e-01
2.529082e-01
2.524834e-01
0.000000e+00
4.219554e-02
8.765471e-02
1.296370e-01
1.683153e-01
2.038239e-01
2.362078e-01
2.654548e-01
2.915206e-01
3.143298e-01
3.337742e-01
3.497194e-01
3.620378e-01
3.706887e-01
3.758491e-01
3.780498e-01
3.784540e-01
0.000000e+00
7.065768e-02
1.301262e-01
1.848681e-01
2.358713e-01
2.830173e-01
3.261667e-01
3.651940e-01
3.999688e-01
4.303103e-01
4.559555e-01
4.765624e-01
4.917927e-01
5.015264e-01
5.062338e-01
5.073957e-01
5.073733e-01
0.000000e+00
-4.275352e-02
-8.393013e-02
-1.372854e-01
-2.027680e-01
-2.802553e-01
-3.688988e-01
-4.677064e-01
-5.756275e-01
-6.916253e-01
-8.147421e-01
-9.442158e-01
-1.079734e+00
-1.222021e+00
-1.374766e+00
-1.549536e+00
-1.800648e+00
0.000000e+00
-2.631985e-02
-6.927381e-02
-1.232907e-01
-1.898435e-01
-2.683883e-01
-3.581057e-01
-4.579793e-01
-5.669464e-01
-6.839514e-01
-8.080102e-01
-9.383257e-01
-1.074537e+00
-1.217349e+00
-1.370036e+00
-1.543745e+00
-1.756556e+00
0.000000e+00
-1.986066e-02
-5.911331e-02
-1.133296e-01
-1.805116e-01
-2.598649e-01
-3.504069e-01
-4.511116e-01
-5.609233e-01
-6.788016e-01
-8.037813e-01
-9.350926e-01
-1.072409e+00
-1.216320e+00
-1.369137e+00
-1.533733e+00
-1.693026e+00
0.000000e+00
-1.711450e-02
-5.406156e-02
-1.074827e-01
-1.749076e-01
-2.547493e-01
-3.458558e-01
-4.471620e-01
-5.576322e-01
-6.762540e-01
-8.020832e-01
-9.343350e-01
-1.072528e+00
-1.216598e+00
-1.366358e+00
-1.517598e+00
-1.656925e+00
0.000000e+00
-1.632338e-02
-5.253267e-02
-1.056175e-01
-1.730607e-01
-2.531012e-01
-3.444697e-01
-4.461020e-01
-5.569821e-01
-6.761144e-01
-8.025334e-01
-9.353303e-01
-1.073647e+00
-1.216462e+00
-1.361640e+00
-1.504214e+00
-1.635560e+00
0.000000e+00
-1.710434e-02
-5.405434e-02
-1.074956e-01
-1.749708e-01
-2.549158e-01
-3.462120e-01
-4.478365e-01
-5.587950e-01
-6.780868e-01
-8.046842e-01
-9.374873e-01
-1.075212e+00
-1.216104e+00
-1.357459e+00
-1.495144e+00
-1.623687e+00
0.000000e+00
-1.984409e-02
-5.910133e-02
-1.133511e-01
-1.806181e-01
-2.601466e-01
-3.510107e-01
-4.522569e-01
-5.629005e-01
-6.819238e-01
-8.082296e-01
-9.405494e-01
-1.077289e+00
-1.216335e+00
-1.354949e+00
-1.489992e+00
-1.618450e+00
0.000000e+00
-2.630432e-02
-6.926337e-02
-1.233192e-01
-1.899714e-01
-2.687195e-01
-3.588085e-01
-4.593031e-01
-5.692177e-01
-6.875159e-01
-8.130557e-01
-9.444776e-01
-1.080052e+00
-1.217550e+00
-1.354321e+00
-1.487862e+00
-1.617220e+00
0.000000e+00
-4.274710e-02
-8.393103e-02
-1.373295e-01
-2.029162e-01
-2.806093e-01
-3.696180e-01
-4.690186e-01
-5.778151e-01
-6.949530e-01
-8.192627e-01
-9.493548e-01
-1.083487e+00
-1.219481e+00
-1.354855e+00
-1.487473e+00
-1.617240e+00


0.000000e+00
1.493437e-11
3.088647e-11
4.501952e-11
5.696103e-11
6.666253e-11
7.430479e-11
8.016306e-11
8.454617e-11
8.773935e-11
9.001448e-11
9.161106e-11
9.274943e-11
9.363395e-11
9.445643e-11
9.547000e-11
9.668599e-11
0.000000e+00
1.015660e-11
2.393569e-11
3.516414e-11
4.417276e-11
5.129358e-11
5.678992e-11
6.093526e-11
6.397826e-11
6.614427e-11
6.763070e-11
6.859570e-11
6.916606e-11
6.944692e-11
6.973160e-11
7.056069e-11
7.181266e-11
0.000000e+00
7.562094e-12
1.662587e-11
2.420023e-11
3.028853e-11
3.498920e-11
3.853146e-11
4.113321e-11
4.299094e-11
4.425862e-11
4.507012e-11
4.552929e-11
4.573420e-11
4.581314e-11
4.601306e-11
4.666233e-11
4.767572e-11
0.000000e+00
4.047505e-12
8.293319e-12
1.208214e-11
1.518252e-11
1.755286e-11
1.930391e-11
2.056067e-11
2.142859e-11
2.198998e-11
2.231595e-11
2.247178e-11
2.253506e-11
2.260508e-11
2.278017e-11
2.317510e-11
2.379954e-11
0.000000e+00
-3.737399e-15
-1.027552e-14
-1.919682e-14
-3.182149e-14
-5.053939e-14
-7.534661e-14
-1.118800e-13
-1.602780e-13
-2.215220e-13
-2.915677e-13
-3.520107e-13
-3.772758e-13
-3.365836e-13
-2.292509e-13
-3.908572e-14
2.860956e-13
0.000000e+00
-4.057061e-12
-8.312410e-12
-1.211570e-11
-1.523438e-11
-1.763206e-11
-1.942306e-11
-2.073522e-11
-2.167828e-11
-2.233636e-11
-2.277489e-11
-2.304525e-11
-2.318428e-11
-2.323061e-11
-2.322834e-11
-2.318133e-11
-2.304165e-11
0.000000e+00
-7.565793e-12
-1.663727e-11
-2.422203e-11
-3.032416e-11
-3.504131e-11
-3.860132e-11
-4.122388e-11
-4.310587e-11
-4.440400e-11
-4.525935e-11
-4.578583e-11
-4.608778e-11
-4.624993e-11
-4.633712e-11
-4.636716e-11
-4.632782e-11
0.000000e+00
-1.016041e-11
-2.394467e-11
-3.518004e-11
-4.419266e-11
-5.131686e-11
-5.681304e-11
-6.095004e-11
-6.397382e-11
-6.610836e-11
-6.755288e-11
-6.848303e-11
-6.905208e-11
-6.938232e-11
-6.956496e-11
-6.964809e-11
-6.965942e-11
0.000000e+00
-1.494172e-11
-3.089958e-11
-4.503441e-11
-5.697476e-11
-6.666994e-11
-7.429259e-11
-8.011871e-11
-8.444809e-11
-8.756316e-11
-8.973252e-11
-9.118128e-11
-9.210843e-11
-9.266315e-11
-9.295532e-11
-9.306819e-11
-9.308568e-11
0.000000e+00
1.356596e-11
2.438466e-11
3.574048e-11
4.937322e-11
6.542388e-11
8.356344e-11
1.033673e-10
1.244291e-10
1.464107e-10
1.690562e-10
1.921929e-10
2.157451e-10
2.398756e-10
2.652267e-10
2.921328e-10
3.193888e-10
0.000000e+00
7.293485e-12
1.786558e-11
2.998219e-11
4.465138e-11
6.169473e-11
8.071089e-11
1.012419e-10
1.228877e-10
1.453306e-10
1.683251e-10
1.917153e-10
2.154358e-10
2.395584e-10
2.643963e-10
2.905532e-10
3.173647e-10
0.000000e+00
3.596968e-12
1.274709e-11
2.548624e-11
4.099862e-11
5.886430e-11
7.857764e-11
9.967624e-11
1.217760e-10
1.445733e-10
1.678412e-10
1.914327e-10
2.152696e-10
2.393098e-10
2.635836e-10
2.888741e-10
3.149664e-10
0.000000e+00
2.045885e-12
1.033117e-11
2.312890e-11
3.908281e-11
5.739967e-11
7.749193e-11
9.889299e-11
1.212324e-10
1.442193e-10
1.676337e-10
1.913235e-10
2.151864e-10
2.391126e-10
2.630791e-10
2.876808e-10
3.128638e-10
0.000000e+00
1.652331e-12
9.671836e-12
2.241594e-11
3.849349e-11
5.695468e-11
7.716838e-11
9.866684e-11
1.210873e-10
1.441378e-10
1.676008e-10
1.913123e-10
2.151505e-10
2.390065e-10
2.628418e-10
2.869974e-10
3.113678e-10
0.000000e+00
2.049396e-12
1.033597e-11
2.313586e-11
3.909160e-11
5.741279e-11
7.751285e-11
9.892698e-11
1.212867e-10
1.442954e-10
1.677254e-10
1.914019e-10
2.151960e-10
2.390041e-10
2.627870e-10
2.866676e-10
3.105061e-10
0.000000e+00
3.601817e-12
1.275452e-11
2.549888e-11
4.101395e-11
5.889075e-11
7.862049e-11
9.974413e-11
1.218836e-10
1.447224e-10
1.680255e-10
1.916038e-10
2.153191e-10
2.390717e-10
2.628035e-10
2.865209e-10
3.101033e-10
0.000000e+00
7.301911e-12
1.787808e-11
3.000379e-11
4.467672e-11
6.173473e-11
8.077123e-11
1.013332e-10
1.230236e-10
1.455154e-10
1.685521e-10
1.919335e-10
2.155115e-10
2.391714e-10
2.628406e-10
2.864652e-10
3.099688e-10
0.000000e+00
1.357641e-11
2.440272e-11
3.576767e-11
4.940826e-11
6.547070e-11
8.362907e-11
1.034597e-10
1.245575e-10
1.465789e-10
1.692550e-10
1.923707e-10
2.157614e-10
2.393012e-10
2.628937e-10
2.864615e-10
3.099472e-10


2.063712e-01
2.063712e-01
2.063712e-01
2.063712e-01
2.063712e-01
2.063712e-01
2.063712e-01
2.063712e-01
2.063712e-01
2.063712e-01
2.063712e-01
2.063712e-01
2.063712e-01
2.063712e-01
2.063712e-01
2.063712e-01
2.063712e-01
2.063712e-01
2.063712e-01
2.063712e-01
2.063712e-01
2.063712e-01
2.063712e-01
2.063712e-01
2.063712e-01
2.063712e-01
2.063712e-01
2.063712e-01
2.063712e-01
2.063712e-01
2.063712e-01
2.063712e-01
2.063712e-01
2.063712e-01
2.063712e-01
2.063712e-01
2.063712e-01
2.063712e-01
2.063712e-01
2.063712e-01
2.063712e-01
2.063712e-01
2.063712e-01
2.063712e-01
2.063712e-01
2.063712e-01
2.063712e-01
2.063712e-01
2.063712e-01
2.063712e-01
2.063712e-01
2.063712e-01
2.063712e-01
2.063712e-01
2.063712e-01
2.063712e-01
2.063712e-01
2.063712e-01
2.063712e-01
2.063712e-01
2.063712e-01
2.063712e-01
2.063712e-01
2.063712e-01
2.063712e-01
2.063712e-01
2.063712e-01
2.063712e-01
2.063712e-01
2.063712e-01
2.063712e-01
2.063712e-01
2.063712e-01
2.063712e-01
2.063712e-01
2.063712e-01
2.063712e-01
2.063712e-01
2.063712e-01
2.063712e-01
2.063712e-01
2.063712e-01
2.063712e-01
2.063712e-01
2.063712e-01
2.063712e-01
2.063712e-01
2.063712e-01
2.063712e-01
2.063712e-01
2.063712e-01
2.063712e-01
2.063712e-01
2.063712e-01
2.063712e-01
2.063712e-01
2.063712e-01
2.063712e-01
2.063712e-01
2.063712e-01
2.063712e-01
2.063712e-01
2.063712e-01
2.063712e-01
2.063712e-01
2.063712e-01
2.063712e-01
2.063712e-01
2.063712e-01
2.063712e-01
2.063712e-01
2.063712e-01
2.063712e-01
2.063712e-01
2.063712e-01
2.063712e-01
2.063712e-01
2.063712e-01
2.063712e-01
2.063712e-01
2.063712e-01
2.063712e-01
2.063712e-01
2.063712e-01
2.063712e-01
2.063712e-01
2.063712e-01
2.063712e-01


9.887769e-01
9.903684e-01
9.918407e-01
9.929740e-01
9.940260e-01
9.949961e-01
9.958798e-01
9.966670e-01
9.973492e-01
9.979198e-01
9.983735e-01
9.987058e-01
9.989124e-01
9.989861e-01
9.990393e-01
9.957594e-01
9.957541e-01
9.950248e-01
9.954940e-01
9.961064e-01
9.966774e-01
9.971963e-01
9.976661e-01
9.980916e-01
9.984769e-01
9.988258e-01
9.991425e-01
9.994292e-01
9.996793e-01
9.998431e-01
9.994289e-01
9.938144e-01
9.985247e-01
9.981058e-01
9.979928e-01
9.981518e-01
9.983611e-01
9.985638e-01
9.987520e-01
9.989298e-01
9.991020e-01
9.992700e-01
9.994268e-01
9.995482e-01
9.995736e-01
9.993549e-01
9.985616e-01
9.971348e-01
9.996998e-01
9.993942e-01
9.992055e-01
9.991576e-01
9.991768e-01
9.992088e-01
9.992409e-01
9.992722e-01
9.993029e-01
9.993286e-01
9.993358e-01
9.992975e-01
9.991762e-01
9.989585e-01
9.987739e-01
9.987272e-01
9.997009e-01
9.993958e-01
9.992069e-01
9.991574e-01
9.991720e-01
9.991951e-01
9.992112e-01
9.992166e-01
9.992092e-01
9.991856e-01
9.991415e-01
9.990781e-01
9.990176e-01
9.990296e-01
9.992005e-01
9.994963e-01
9.985268e-01
9.981090e-01
9.979958e-01
9.981519e-01
9.983530e-01
9.985387e-01
9.986958e-01
9.988222e-01
9.989167e-01
9.989804e-01
9.990207e-01
9.990601e-01
9.991428e-01
9.993162e-01
9.995767e-01
9.998461e-01
9.957537e-01
9.950245e-01
9.954934e-01
9.961047e-01
9.966729e-01
9.971861e-01
9.976450e-01
9.980512e-01
9.984052e-01
9.987078e-01
9.989640e-01
9.991877e-01
9.994031e-01
9.996290e-01
9.998402e-01
9.999733e-01
9.887692e-01
9.903564e-01
9.918260e-01
9.929576e-01
9.940112e-01
9.949907e-01
9.958981e-01
9.967313e-01
9.974904e-01
9.981741e-01
9.987742e-01
9.992720e-01
9.996423e-01
9.998707e-01
9.999747e-01
9.999995e-01
1 2 19 18
2 3 20 19
3 4 21 20
4 5 22 21
5 6 23 22
6 7 24 23
7 8 25 24
8 9 26 25
9 10 27 26
10 11 28 27
11 12 29 28
12 13 30 29
13 14 31 30
14 15 32 31
15 16 33 32
16 17 34 33
18 19 36 35
19 20 37 36
20 21 38 37
21 22 39 38
22 23 40 39
23 24 41 40
24 25 42 41
25 26 43 42
26 27 44 43
27 28 45 44
28 29 46 45
29 30 47 46
30 31 48 47
31 32 49 48
32 33 50 49
33 34 51 50
35 36 53 52
36 37 54 53
37 38 55 54
38 39 56 55
39 40 57 56
40 41 58 57
41 42 59 58
42 43 60 59
43 44 61 60
44 45 62 61
45 46 63 62
46 47 64 63
47 48 65 64
48 49 66 65
49 50 67 66
50 51 68 67
52 53 70 69
53 54 71 70
54 55 72 71
55 56 73 72
56 57 74 73
57 58 75 74
58 59 76 75
59 60 77 76
60 61 78 77
61 62 79 78
62 63 80 79
63 64 81 80
64 65 82 81
65 66 83 82
66 67 84 83
67 68 85 84
69 70 87 86
70 71 88 87
71 72 89 88
72 73 90 89
73 74 91 90
74 75 92 91
75 76 93 92
76 77 94 93
77 78 95 94
78 79 96 95
79 80 97 96
80 81 98 97
81 82 99 98
82 83 100 99
83 84 101 100
84 85 102 101
86 87 104 103
87 88 105 104
88 89 106 105
89 90 107 106
90 91 108 107
91 92 109 108
92 93 110 109
93 94 111 110
94 95 112 111
95 96 113 112
96 97 114 113
97 98 115 114
98 99 116 115
99 100 117 116
100 101 118 117
101 102 119 118
103 104 121 120
104 105 122 121
105 106 123 122
106 107 124 123
107 108 125 124
108 109 126 125
109 110 127 126
110 111 128 127
111 112 129 128
112 113 130 129
113 114 131 130
114 115 132 131
115 116 133 132
116 117 134 133
117 118 135 134
118 119 136 135
120 121 138 137
121 122 139 138
122 123 140 139
123 124 141 140
124 125 142 141
125 126 143 142
126 127 144 143
127 128 145 144
128 129 146 145
129 130 147 146
130 131 148 147
131 132 149 148
132 133 150 149
133 134 151 150
134 135 152 151
135 136 153 152
