TITLE = "Solution"
VARIABLES = x, y, u, v, psiu, psiv, t, stress
ZONE T="structure" N=153 E=128 F=FEBLOCK ET=QUADRILATERAL VARLOCATION=([7,8]=cellcentered)
0.000000e+00
1.250000e+01
2.500000e+01
3.750000e+01
5.000000e+01
6.250000e+01
7.500000e+01
8.750000e+01
1.000000e+02
1.125000e+02
1.250000e+02
1.375000e+02
1.500000e+02
1.625000e+02
1.750000e+02
1.875000e+02
2.000000e+02
0.000000e+00
1.250000e+01
2.500000e+01
3.750000e+01
5.000000e+01
6.250000e+01
7.500000e+01
8.750000e+01
1.000000e+02
1.125000e+02
1.250000e+02
1.375000e+02
1.500000e+02
1.625000e+02
1.750000e+02
1.875000e+02
2.000000e+02
0.000000e+00
1.250000e+01
2.500000e+01
3.750000e+01
5.000000e+01
6.250000e+01
7.500000e+01
8.750000e+01
1.000000e+02
1.125000e+02
1.250000e+02
1.375000e+02
1.500000e+02
1.625000e+02
1.750000e+02
1.875000e+02
2.000000e+02
0.000000e+00
1.250000e+01
2.500000e+01
3.750000e+01
5.000000e+01
6.250000e+01
7.500000e+01
8.750000e+01
1.000000e+02
1.125000e+02
1.250000e+02
1.375000e+02
1.500000e+02
1.625000e+02
1.750000e+02
1.875000e+02
2.000000e+02
0.000000e+00
1.250000e+01
2.500000e+01
3.750000e+01
5.000000e+01
6.250000e+01
7.500000e+01
8.750000e+01
1.000000e+02
1.125000e+02
1.250000e+02
1.375000e+02
1.500000e+02
1.625000e+02
1.750000e+02
1.875000e+02
2.000000e+02
0.000000e+00
1.250000e+01
2.500000e+01
3.750000e+01
5.000000e+01
6.250000e+01
7.500000e+01
8.750000e+01
1.000000e+02
1.125000e+02
1.250000e+02
1.375000e+02
1.500000e+02
1.625000e+02
1.750000e+02
1.875000e+02
2.000000e+02
0.000000e+00
1.250000e+01
2.500000e+01
3.750000e+01
5.000000e+01
6.250000e+01
7.500000e+01
8.750000e+01
1.000000e+02
1.125000e+02
1.250000e+02
1.375000e+02
1.500000e+02
1.625000e+02
1.750000e+02
1.875000e+02
2.000000e+02
0.000000e+00
1.250000e+01
2.500000e+01
3.750000e+01
5.000000e+01
6.250000e+01
7.500000e+01
8.750000e+01
1.000000e+02
1.125000e+02
1.250000e+02
1.375000e+02
1.500000e+02
1.625000e+02
1.750000e+02
1.875000e+02
2.000000e+02
0.000000e+00
1.250000e+01
2.500000e+01
3.750000e+01
5.000000e+01
6.250000e+01
7.500000e+01
8.750000e+01
1.000000e+02
1.125000e+02
1.250000e+02
1.375000e+02
1.500000e+02
1.625000e+02
1.750000e+02
1.875000e+02
2.000000e+02
0.000000e+00
0.000000e+00
0.000000e+00
0.000000e+00
0.000000e+00
0.000000e+00
0.000000e+00
0.000000e+00
0.000000e+00
0.000000e+00
0.000000e+00
0.000000e+00
0.000000e+00
0.000000e+00
0.000000e+00
0.000000e+00
0.000000e+00
1.250000e+01
1.250000e+01
1.250000e+01
1.250000e+01
1.250000e+01
1.250000e+01
1.250000e+01
1.250000e+01
1.250000e+01
1.250000e+01
1.250000e+01
1.250000e+01
1.250000e+01
1.250000e+01
1.250000e+01
1.250000e+01
1.250000e+01
2.500000e+01
2.500000e+01
2.500000e+01
2.500000e+01
2.500000e+01
2.500000e+01
2.500000e+01
2.500000e+01
2.500000e+01
2.500000e+01
2.500000e+01
2.500000e+01
2.500000e+01
2.500000e+01
2.500000e+01
2.500000e+01
2.500000e+01
3.750000e+01
3.750000e+01
3.750000e+01
3.750000e+01
3.750000e+01
3.750000e+01
3.750000e+01
3.750000e+01
3.750000e+01
3.750000e+01
3.750000e+01
3.750000e+01
3.750000e+01
3.750000e+01
3.750000e+01
3.750000e+01
3.750000e+01
5.000000e+01
5.000000e+01
5.000000e+01
5.000000e+01
5.000000e+01
5.000000e+01
5.000000e+01
5.000000e+01
5.000000e+01
5.000000e+01
5.000000e+01
5.000000e+01
5.000000e+01
5.000000e+01
5.000000e+01
5.000000e+01
5.000000e+01
6.250000e+01
6.250000e+01
6.250000e+01
6.250000e+01
6.250000e+01
6.250000e+01
6.250000e+01
6.250000e+01
6.250000e+01
6.250000e+01
6.250000e+01
6.250000e+01
6.250000e+01
6.250000e+01
6.250000e+01
6.250000e+01
6.250000e+01
7.500000e+01
7.500000e+01
7.500000e+01
7.500000e+01
7.500000e+01
7.500000e+01
7.500000e+01
7.500000e+01
7.500000e+01
7.500000e+01
7.500000e+01
7.500000e+01
7.500000e+01
7.500000e+01
7.500000e+01
7.500000e+01
7.500000e+01
8.750000e+01
8.750000e+01
8.750000e+01
8.750000e+01
8.750000e+01
8.750000e+01
8.750000e+01
8.750000e+01
8.750000e+01
8.750000e+01
8.750000e+01
8.750000e+01
8.750000e+01
8.750000e+01
8.750000e+01
8.750000e+01
8.750000e+01
1.000000e+02
1.000000e+02
1.000000e+02
1.000000e+02
1.000000e+02
1.000000e+02
1.000000e+02
1.000000e+02
1.000000e+02
1.000000e+02
1.000000e+02
1.000000e+02
1.000000e+02
1.000000e+02
1.000000e+02
1.000000e+02
1.000000e+02
0.000000e+00
-2.229017e-01
-4.104314e-01
-5.829927e-01
-7.437128e-01
-8.922488e-01
-1.028277e+00
-1.151687e+00
-1.262657e+00
-1.361693e+00
-1.449777e+00
-1.528629e+00
-1.601210e+00
-1.672636e+00
-1.751730e+00
-1.848865e+00
-1.921753e+00
0.000000e+00
-1.331073e-01
-2.765062e-01
-4.089341e-01
-5.309547e-01
-6.430287e-01
-7.453843e-01
-8.381552e-01
-9.215059e-01
-9.956914e-01
-1.061087e+00
-1.118163e+00
-1.167284e+00
-1.207942e+00
-1.236621e+00
-1.242906e+00
-1.265442e+00
0.000000e+00
-8.323812e-02
-1.711610e-01
-2.588844e-01
-3.407805e-01
-4.159803e-01
-4.844201e-01
-5.461750e-01
-6.012585e-01
-6.495775e-01
-6.908709e-01
-7.245613e-01
-7.494473e-01
-7.633394e-01
-7.637252e-01
-7.581760e-01
-7.811606e-01
0.000000e+00
-4.017484e-02
-8.270714e-02
-1.255122e-01
-1.664460e-01
-2.041523e-01
-2.383321e-01
-2.688849e-01
-2.956347e-01
-3.182329e-01
-3.361013e-01
-3.483962e-01
-3.541110e-01
-3.527759e-01
-3.472905e-01
-3.487905e-01
-3.659051e-01
0.000000e+00
-3.705885e-05
-8.423965e-05
-1.312657e-04
-1.562375e-04
-1.103181e-04
1.034294e-04
6.589481e-04
1.841616e-03
4.076519e-03
7.918245e-03
1.392392e-02
2.224410e-02
3.164636e-02
3.814121e-02
3.636006e-02
2.502858e-02
0.000000e+00
4.011781e-02
8.257476e-02
1.253005e-01
1.661826e-01
2.039380e-01
2.384149e-01
2.697809e-01
2.983071e-01
3.243238e-01
3.481705e-01
3.700234e-01
3.895027e-01
4.051229e-01
4.143116e-01
4.150405e-01
4.092890e-01
0.000000e+00
8.322873e-02
1.711324e-01
2.588275e-01
3.406917e-01
4.158697e-01
4.843284e-01
5.462044e-01
6.016243e-01
6.506853e-01
6.934292e-01
7.297510e-01
7.592326e-01
7.810294e-01
7.941124e-01
7.983606e-01
7.970193e-01
0.000000e+00
1.331619e-01
2.766249e-01
4.091233e-01
5.312085e-01
6.433004e-01
7.455367e-01
8.378760e-01
9.201751e-01
9.921944e-01
1.053591e+00
1.103939e+00
1.142836e+00
1.170153e+00
1.186448e+00
1.193396e+00
1.194673e+00
0.000000e+00
2.229930e-01
4.106723e-01
5.834440e-01
7.444337e-01
8.932629e-01
1.029487e+00
1.152705e+00
1.262502e+00
1.358304e+00
1.439280e+00
1.504348e+00
1.552439e+00
1.583175e+00
1.598039e+00
1.601708e+00
1.601637e+00
0.000000e+00
-1.349300e-01
-2.648920e-01
-4.332970e-01
-6.399829e-01
-8.845640e-01
-1.164364e+00
-1.476254e+00
-1.816917e+00
-2.183082e+00
-2.571725e+00
-2.980441e+00
-3.408243e+00
-3.857416e+00
-4.339615e+00
-4.891353e+00
-5.684142e+00
0.000000e+00
-8.306623e-02
-2.186370e-01
-3.891262e-01
-5.991855e-01
-8.471012e-01
-1.130289e+00
-1.445543e+00
-1.789507e+00
-2.158852e+00
-2.550469e+00
-2.961842e+00
-3.391833e+00
-3.842666e+00
-4.324678e+00
-4.873068e+00
-5.544923e+00
0.000000e+00
-6.268294e-02
-1.865711e-01
-3.576870e-01
-5.697292e-01
-8.201944e-01
-1.105984e+00
-1.423859e+00
-1.770490e+00
-2.142591e+00
-2.537116e+00
-2.951633e+00
-3.385114e+00
-3.839415e+00
-4.321841e+00
-4.841455e+00
-5.344328e+00
0.000000e+00
-5.401895e-02
-1.706290e-01
-3.392335e-01
-5.520406e-01
-8.040460e-01
-1.091616e+00
-1.411390e+00
-1.760099e+00
-2.134547e+00
-2.531754e+00
-2.949241e+00
-3.385489e+00
-3.840293e+00
-4.313066e+00
-4.790510e+00
-5.230337e+00
0.000000e+00
-5.152358e-02
-1.658045e-01
-3.333468e-01
-5.462113e-01
-7.988435e-01
-1.087240e+00
-1.408043e+00
-1.758047e+00
-2.134107e+00
-2.533176e+00
-2.952384e+00
-3.389021e+00
-3.839865e+00
-4.298167e+00
-4.748249e+00
-5.162876e+00
0.000000e+00
-5.398687e-02
-1.706062e-01
-3.392741e-01
-5.522402e-01
-8.045717e-01
-1.092741e+00
-1.413520e+00
-1.763771e+00
-2.140335e+00
-2.539967e+00
-2.959195e+00
-3.393962e+00
-3.838734e+00
-4.284965e+00
-4.719609e+00
-5.125384e+00
0.000000e+00
-6.263060e-02
-1.865333e-01
-3.577548e-01
-5.700655e-01
-8.210837e-01
-1.107890e+00
-1.427476e+00
-1.776733e+00
-2.152450e+00
-2.551162e+00
-2.968864e+00
-3.400521e+00
-3.839464e+00
-4.277041e+00
-4.703342e+00
-5.108848e+00
0.000000e+00
-8.301716e-02
-2.186041e-01
-3.892163e-01
-5.995892e-01
-8.481470e-01
-1.132508e+00
-1.449722e+00
-1.796679e+00
-2.170107e+00
-2.566400e+00
-2.981268e+00
-3.409246e+00
-3.843301e+00
-4.275057e+00
-4.696616e+00
-5.104966e+00
0.000000e+00
-1.349097e-01
-2.648948e-01
-4.334363e-01
-6.404508e-01
-8.856816e-01
-1.166635e+00
-1.480397e+00
-1.823825e+00
-2.193590e+00
-2.585999e+00
-2.996667e+00
-3.420094e+00
-3.849398e+00
-4.276743e+00
-4.695386e+00
-5.105027e+00


0.000000e+00
3.271028e-08
6.764667e-08
9.848607e-08
1.243919e-07
1.453143e-07
1.616874e-07
1.741703e-07
1.834501e-07
1.901780e-07
1.949432e-07
1.982697e-07
2.006307e-07
2.024623e-07
2.041718e-07
2.062950e-07
2.088542e-07
0.000000e+00
2.233858e-08
5.254877e-08
7.703731e-08
9.655245e-08
1.118696e-07
1.236143e-07
1.324122e-07
1.388331e-07
1.433787e-07
1.464782e-07
1.484833e-07
1.496565e-07
1.502287e-07
1.508113e-07
1.525457e-07
1.551798e-07
0.000000e+00
1.663506e-08
3.647994e-08
5.298710e-08
6.617376e-08
7.628677e-08
8.384689e-08
8.936630e-08
9.327726e-08
9.593361e-08
9.762204e-08
9.857424e-08
9.899387e-08
9.915314e-08
9.956602e-08
1.009275e-07
1.030585e-07
0.000000e+00
8.881488e-09
1.815054e-08
2.640718e-08
3.313023e-08
3.823970e-08
4.198885e-08
4.466300e-08
4.649741e-08
4.767817e-08
4.835906e-08
4.868316e-08
4.881381e-08
4.895877e-08
4.932585e-08
5.015192e-08
5.145938e-08
0.000000e+00
-9.874641e-12
-2.296338e-11
-4.089400e-11
-6.639758e-11
-1.032053e-10
-1.561026e-10
-2.306336e-10
-3.315126e-10
-4.589110e-10
-6.014882e-10
-7.261218e-10
-7.731939e-10
-6.843889e-10
-4.576118e-10
-6.095685e-11
6.172390e-10
0.000000e+00
-8.898545e-09
-1.818969e-08
-2.647667e-08
-3.324168e-08
-3.840970e-08
-4.224061e-08
-4.502755e-08
-4.701371e-08
-4.838943e-08
-4.930097e-08
-4.985752e-08
-5.014169e-08
-5.023366e-08
-5.022724e-08
-5.012993e-08
-4.984128e-08
0.000000e+00
-1.664418e-08
-3.650471e-08
-5.303250e-08
-6.624535e-08
-7.639032e-08
-8.398806e-08
-8.955058e-08
-9.351144e-08
-9.623002e-08
-9.800643e-08
-9.909534e-08
-9.971363e-08
-1.000440e-07
-1.002221e-07
-1.002837e-07
-1.002026e-07
0.000000e+00
-2.234210e-08
-5.256519e-08
-7.706633e-08
-9.659313e-08
-1.119179e-07
-1.236606e-07
-1.324390e-07
-1.388159e-07
-1.432904e-07
-1.463012e-07
-1.482311e-07
-1.494057e-07
-1.500870e-07
-1.504626e-07
-1.506340e-07
-1.506580e-07
0.000000e+00
-3.272496e-08
-6.767126e-08
-9.851475e-08
-1.244169e-07
-1.453223e-07
-1.616566e-07
-1.740692e-07
-1.832372e-07
-1.898025e-07
-1.943444e-07
-1.973665e-07
-1.992874e-07
-2.004332e-07
-2.010379e-07
-2.012693e-07
-2.013094e-07
0.000000e+00
2.971902e-08
5.328053e-08
7.794314e-08
1.075441e-07
1.423850e-07
1.817446e-07
2.246885e-07
2.703266e-07
3.179291e-07
3.669396e-07
4.169781e-07
4.678886e-07
5.199916e-07
5.746560e-07
6.326033e-07
6.912889e-07
0.000000e+00
1.593771e-08
3.899785e-08
6.539908e-08
9.731626e-08
1.343676e-07
1.756520e-07
2.201764e-07
2.670774e-07
3.156621e-07
3.654132e-07
4.159883e-07
4.672455e-07
5.193368e-07
5.729162e-07
6.292787e-07
6.870295e-07
0.000000e+00
7.826471e-09
2.781207e-08
5.562388e-08
8.942891e-08
1.282940e-07
1.711047e-07
2.168609e-07
2.647356e-07
3.140774e-07
3.644054e-07
4.154034e-07
4.669058e-07
5.188234e-07
5.712146e-07
6.257501e-07
6.819826e-07
0.000000e+00
4.454723e-09
2.256150e-08
5.051480e-08
8.529598e-08
1.251538e-07
1.687921e-07
2.152039e-07
2.635930e-07
3.133371e-07
3.639723e-07
4.151772e-07
4.667306e-07
5.184110e-07
5.701617e-07
6.232500e-07
6.775769e-07
0.000000e+00
3.605837e-09
2.113572e-08
4.896804e-08
8.402359e-08
1.241954e-07
1.680994e-07
2.147233e-07
2.632831e-07
3.131649e-07
3.639015e-07
4.151512e-07
4.666555e-07
5.181875e-07
5.696704e-07
6.218298e-07
6.744514e-07
0.000000e+00
4.460538e-09
2.256939e-08
5.052539e-08
8.531100e-08
1.251780e-07
1.688336e-07
2.152743e-07
2.637043e-07
3.134950e-07
3.641610e-07
4.153370e-07
4.667470e-07
5.181821e-07
5.695613e-07
6.211486e-07
6.726576e-07
0.000000e+00
7.835753e-09
2.782647e-08
5.564510e-08
8.946026e-08
1.283447e-07
1.711899e-07
2.170017e-07
2.649544e-07
3.143867e-07
3.647837e-07
4.157535e-07
4.670027e-07
5.183214e-07
5.695984e-07
6.208479e-07
6.718213e-07
0.000000e+00
1.595098e-08
3.902243e-08
6.543519e-08
9.736819e-08
1.344458e-07
1.757733e-07
2.203637e-07
2.673550e-07
3.160443e-07
3.658799e-07
4.164381e-07
4.673988e-07
5.185295e-07
5.696757e-07
6.207331e-07
6.715424e-07
0.000000e+00
2.974079e-08
5.331746e-08
7.799438e-08
1.076133e-07
1.424798e-07
1.818781e-07
2.248779e-07
2.705898e-07
3.182751e-07
3.673459e-07
4.173439e-07
4.679158e-07
5.187950e-07
5.697845e-07
6.207253e-07
6.714997e-07


6.512266e-01
6.512261e-01
6.512746e-01
6.513593e-01
6.514363e-01
6.514979e-01
6.515453e-01
6.515806e-01
6.516059e-01
6.516233e-01
6.516347e-01
6.516414e-01
6.516433e-01
6.516366e-01
6.516226e-01
6.516120e-01
6.513133e-01
6.513114e-01
6.513484e-01
6.514163e-01
6.514786e-01
6.515284e-01
6.515666e-01
6.515949e-01
6.516152e-01
6.516291e-01
6.516381e-01
6.516433e-01
6.516441e-01
6.516368e-01
6.516229e-01
6.516126e-01
6.514587e-01
6.514554e-01
6.514756e-01
6.515143e-01
6.515503e-01
6.515795e-01
6.516019e-01
6.516184e-01
6.516301e-01
6.516380e-01
6.516430e-01
6.516457e-01
6.516454e-01
6.516391e-01
6.516278e-01
6.516199e-01
6.515624e-01
6.515595e-01
6.515672e-01
6.515839e-01
6.516009e-01
6.516152e-01
6.516262e-01
6.516341e-01
6.516396e-01
6.516433e-01
6.516455e-01
6.516465e-01
6.516460e-01
6.516424e-01
6.516361e-01
6.516318e-01
6.515624e-01
6.515594e-01
6.515671e-01
6.515837e-01
6.516007e-01
6.516149e-01
6.516258e-01
6.516336e-01
6.516390e-01
6.516425e-01
6.516447e-01
6.516460e-01
6.516463e-01
6.516453e-01
6.516431e-01
6.516416e-01
6.514586e-01
6.514552e-01
6.514753e-01
6.515140e-01
6.515499e-01
6.515790e-01
6.516012e-01
6.516175e-01
6.516289e-01
6.516366e-01
6.516416e-01
6.516448e-01
6.516466e-01
6.516474e-01
6.516475e-01
6.516474e-01
6.513130e-01
6.513111e-01
6.513481e-01
6.514159e-01
6.514782e-01
6.515279e-01
6.515662e-01
6.515945e-01
6.516147e-01
6.516286e-01
6.516377e-01
6.516434e-01
6.516469e-01
6.516488e-01
6.516497e-01
6.516501e-01
6.512262e-01
6.512257e-01
6.512742e-01
6.513589e-01
6.514360e-01
6.514977e-01
6.515453e-01
6.515808e-01
6.516063e-01
6.516239e-01
6.516355e-01
6.516427e-01
6.516470e-01
6.516494e-01
6.516506e-01
6.516511e-01


8.882203e-01
9.040714e-01
9.187254e-01
9.299993e-01
9.404685e-01
9.501270e-01
9.589300e-01
9.667730e-01
9.735722e-01
9.792598e-01
9.837829e-01
9.870965e-01
9.891564e-01
9.898915e-01
9.904223e-01
9.577232e-01
9.577144e-01
9.504485e-01
9.551158e-01
9.612075e-01
9.668895e-01
9.720563e-01
9.767356e-01
9.809752e-01
9.848148e-01
9.882934e-01
9.914501e-01
9.943086e-01
9.968027e-01
9.984359e-01
9.943063e-01
9.383312e-01
9.853078e-01
9.811339e-01
9.800043e-01
9.815853e-01
9.836672e-01
9.856849e-01
9.875591e-01
9.893307e-01
9.910472e-01
9.927213e-01
9.942849e-01
9.954956e-01
9.957482e-01
9.935681e-01
9.856588e-01
9.714336e-01
9.970089e-01
9.939648e-01
9.920837e-01
9.916056e-01
9.917950e-01
9.921139e-01
9.924324e-01
9.927440e-01
9.930499e-01
9.933061e-01
9.933774e-01
9.929960e-01
9.917866e-01
9.896160e-01
9.877753e-01
9.873095e-01
9.970201e-01
9.939807e-01
9.920979e-01
9.916027e-01
9.917476e-01
9.919773e-01
9.921366e-01
9.921899e-01
9.921161e-01
9.918800e-01
9.914407e-01
9.908077e-01
9.902051e-01
9.903249e-01
9.920285e-01
9.949774e-01
9.853288e-01
9.811657e-01
9.800348e-01
9.815856e-01
9.835862e-01
9.854349e-01
9.869996e-01
9.882577e-01
9.892001e-01
9.898348e-01
9.902361e-01
9.906286e-01
9.914534e-01
9.931824e-01
9.957797e-01
9.984652e-01
9.577104e-01
9.504455e-01
9.551094e-01
9.611901e-01
9.668449e-01
9.719545e-01
9.765246e-01
9.805725e-01
9.841005e-01
9.871167e-01
9.896704e-01
9.919009e-01
9.940489e-01
9.963010e-01
9.984070e-01
9.997334e-01
8.881440e-01
9.039520e-01
9.185790e-01
9.298351e-01
9.403209e-01
9.500734e-01
9.591120e-01
9.674142e-01
9.749807e-01
9.817958e-01
9.877780e-01
9.927410e-01
9.964331e-01
9.987111e-01
9.997474e-01
9.999946e-01
1 2 19 18
2 3 20 19
3 4 21 20
4 5 22 21
5 6 23 22
6 7 24 23
7 8 25 24
8 9 26 25
9 10 27 26
10 11 28 27
11 12 29 28
12 13 30 29
13 14 31 30
14 15 32 31
15 16 33 32
16 17 34 33
18 19 36 35
19 20 37 36
20 21 38 37
21 22 39 38
22 23 40 39
23 24 41 40
24 25 42 41
25 26 43 42
26 27 44 43
27 28 45 44
28 29 46 45
29 30 47 46
30 31 48 47
31 32 49 48
32 33 50 49
33 34 51 50
35 36 53 52
36 37 54 53
37 38 55 54
38 39 56 55
39 40 57 56
40 41 58 57
41 42 59 58
42 43 60 59
43 44 61 60
44 45 62 61
45 46 63 62
46 47 64 63
47 48 65 64
48 49 66 65
49 50 67 66
50 51 68 67
52 53 70 69
53 54 71 70
54 55 72 71
55 56 73 72
56 57 74 73
57 58 75 74
58 59 76 75
59 60 77 76
60 61 78 77
61 62 79 78
62 63 80 79
63 64 81 80
64 65 82 81
65 66 83 82
66 67 84 83
67 68 85 84
69 70 87 86
70 71 88 87
71 72 89 88
72 73 90 89
73 74 91 90
74 75 92 91
75 76 93 92
76 77 94 93
77 78 95 94
78 79 96 95
79 80 97 96
80 81 98 97
81 82 99 98
82 83 100 99
83 84 101 100
84 85 102 101
86 87 104 103
87 88 105 104
88 89 106 105
89 90 107 106
90 91 108 107
91 92 109 108
92 93 110 109
93 94 111 110
94 95 112 111
95 96 113 112
96 97 114 113
97 98 115 114
98 99 116 115
99 100 117 116
100 101 118 117
101 102 119 118
103 104 121 120
104 105 122 121
105 106 123 122
106 107 124 123
107 108 125 124
108 109 126 125
109 110 127 126
110 111 128 127
111 112 129 128
112 113 130 129
113 114 131 130
114 115 132 131
115 116 133 132
116 117 134 133
117 118 135 134
118 119 136 135
120 121 138 137
121 122 139 138
122 123 140 139
123 124 141 140
124 125 142 141
125 126 143 142
126 127 144 143
127 128 145 144
128 129 146 145
129 130 147 146
130 131 148 147
131 132 149 148
132 133 150 149
133 134 151 150
134 135 152 151
135 136 153 152
