TITLE = "Solution"
VARIABLES = x, y, u, v, psiu, psiv, t, stress
ZONE T="structure" N=153 E=128 F=FEBLOCK ET=QUADRILATERAL VARLOCATION=([7,8]=cellcentered)
0.000000e+00
1.250000e+01
2.500000e+01
3.750000e+01
5.000000e+01
6.250000e+01
7.500000e+01
8.750000e+01
1.000000e+02
1.125000e+02
1.250000e+02
1.375000e+02
1.500000e+02
1.625000e+02
1.750000e+02
1.875000e+02
2.000000e+02
0.000000e+00
1.250000e+01
2.500000e+01
3.750000e+01
5.000000e+01
6.250000e+01
7.500000e+01
8.750000e+01
1.000000e+02
1.125000e+02
1.250000e+02
1.375000e+02
1.500000e+02
1.625000e+02
1.750000e+02
1.875000e+02
2.000000e+02
0.000000e+00
1.250000e+01
2.500000e+01
3.750000e+01
5.000000e+01
6.250000e+01
7.500000e+01
8.750000e+01
1.000000e+02
1.125000e+02
1.250000e+02
1.375000e+02
1.500000e+02
1.625000e+02
1.750000e+02
1.875000e+02
2.000000e+02
0.000000e+00
1.250000e+01
2.500000e+01
3.750000e+01
5.000000e+01
6.250000e+01
7.500000e+01
8.750000e+01
1.000000e+02
1.125000e+02
1.250000e+02
1.375000e+02
1.500000e+02
1.625000e+02
1.750000e+02
1.875000e+02
2.000000e+02
0.000000e+00
1.250000e+01
2.500000e+01
3.750000e+01
5.000000e+01
6.250000e+01
7.500000e+01
8.750000e+01
1.000000e+02
1.125000e+02
1.250000e+02
1.375000e+02
1.500000e+02
1.625000e+02
1.750000e+02
1.875000e+02
2.000000e+02
0.000000e+00
1.250000e+01
2.500000e+01
3.750000e+01
5.000000e+01
6.250000e+01
7.500000e+01
8.750000e+01
1.000000e+02
1.125000e+02
1.250000e+02
1.375000e+02
1.500000e+02
1.625000e+02
1.750000e+02
1.875000e+02
2.000000e+02
0.000000e+00
1.250000e+01
2.500000e+01
3.750000e+01
5.000000e+01
6.250000e+01
7.500000e+01
8.750000e+01
1.000000e+02
1.125000e+02
1.250000e+02
1.375000e+02
1.500000e+02
1.625000e+02
1.750000e+02
1.875000e+02
2.000000e+02
0.000000e+00
1.250000e+01
2.500000e+01
3.750000e+01
5.000000e+01
6.250000e+01
7.500000e+01
8.750000e+01
1.000000e+02
1.125000e+02
1.250000e+02
1.375000e+02
1.500000e+02
1.625000e+02
1.750000e+02
1.875000e+02
2.000000e+02
0.000000e+00
1.250000e+01
2.500000e+01
3.750000e+01
5.000000e+01
6.250000e+01
7.500000e+01
8.750000e+01
1.000000e+02
1.125000e+02
1.250000e+02
1.375000e+02
1.500000e+02
1.625000e+02
1.750000e+02
1.875000e+02
2.000000e+02
0.000000e+00
0.000000e+00
0.000000e+00
0.000000e+00
0.000000e+00
0.000000e+00
0.000000e+00
0.000000e+00
0.000000e+00
0.000000e+00
0.000000e+00
0.000000e+00
0.000000e+00
0.000000e+00
0.000000e+00
0.000000e+00
0.000000e+00
1.250000e+01
1.250000e+01
1.250000e+01
1.250000e+01
1.250000e+01
1.250000e+01
1.250000e+01
1.250000e+01
1.250000e+01
1.250000e+01
1.250000e+01
1.250000e+01
1.250000e+01
1.250000e+01
1.250000e+01
1.250000e+01
1.250000e+01
2.500000e+01
2.500000e+01
2.500000e+01
2.500000e+01
2.500000e+01
2.500000e+01
2.500000e+01
2.500000e+01
2.500000e+01
2.500000e+01
2.500000e+01
2.500000e+01
2.500000e+01
2.500000e+01
2.500000e+01
2.500000e+01
2.500000e+01
3.750000e+01
3.750000e+01
3.750000e+01
3.750000e+01
3.750000e+01
3.750000e+01
3.750000e+01
3.750000e+01
3.750000e+01
3.750000e+01
3.750000e+01
3.750000e+01
3.750000e+01
3.750000e+01
3.750000e+01
3.750000e+01
3.750000e+01
5.000000e+01
5.000000e+01
5.000000e+01
5.000000e+01
5.000000e+01
5.000000e+01
5.000000e+01
5.000000e+01
5.000000e+01
5.000000e+01
5.000000e+01
5.000000e+01
5.000000e+01
5.000000e+01
5.000000e+01
5.000000e+01
5.000000e+01
6.250000e+01
6.250000e+01
6.250000e+01
6.250000e+01
6.250000e+01
6.250000e+01
6.250000e+01
6.250000e+01
6.250000e+01
6.250000e+01
6.250000e+01
6.250000e+01
6.250000e+01
6.250000e+01
6.250000e+01
6.250000e+01
6.250000e+01
7.500000e+01
7.500000e+01
7.500000e+01
7.500000e+01
7.500000e+01
7.500000e+01
7.500000e+01
7.500000e+01
7.500000e+01
7.500000e+01
7.500000e+01
7.500000e+01
7.500000e+01
7.500000e+01
7.500000e+01
7.500000e+01
7.500000e+01
8.750000e+01
8.750000e+01
8.750000e+01
8.750000e+01
8.750000e+01
8.750000e+01
8.750000e+01
8.750000e+01
8.750000e+01
8.750000e+01
8.750000e+01
8.750000e+01
8.750000e+01
8.750000e+01
8.750000e+01
8.750000e+01
8.750000e+01
1.000000e+02
1.000000e+02
1.000000e+02
1.000000e+02
1.000000e+02
1.000000e+02
1.000000e+02
1.000000e+02
1.000000e+02
1.000000e+02
1.000000e+02
1.000000e+02
1.000000e+02
1.000000e+02
1.000000e+02
1.000000e+02
1.000000e+02
0.000000e+00
-1.274492e-01
-2.346744e-01
-3.333357e-01
-4.252174e-01
-5.101256e-01
-5.878780e-01
-6.584140e-01
-7.218363e-01
-7.784370e-01
-8.287771e-01
-8.738404e-01
-9.153196e-01
-9.561386e-01
-1.001340e+00
-1.056854e+00
-1.098510e+00
0.000000e+00
-7.611028e-02
-1.581043e-01
-2.338209e-01
-3.035793e-01
-3.676451e-01
-4.261506e-01
-4.791745e-01
-5.268121e-01
-5.692100e-01
-6.065837e-01
-6.392022e-01
-6.672739e-01
-6.905096e-01
-7.068990e-01
-7.104913e-01
-7.233706e-01
0.000000e+00
-4.759711e-02
-9.787163e-02
-1.480281e-01
-1.948478e-01
-2.378351e-01
-2.769549e-01
-3.122515e-01
-3.437336e-01
-3.713486e-01
-3.949478e-01
-4.142016e-01
-4.284236e-01
-4.363627e-01
-4.365831e-01
-4.334116e-01
-4.465474e-01
0.000000e+00
-2.297328e-02
-4.729363e-02
-7.176767e-02
-9.516939e-02
-1.167239e-01
-1.362611e-01
-1.537239e-01
-1.690124e-01
-1.819276e-01
-1.921395e-01
-1.991660e-01
-2.024319e-01
-2.016689e-01
-1.985341e-01
-1.993914e-01
-2.091723e-01
0.000000e+00
-2.116407e-05
-4.811240e-05
-7.497224e-05
-8.922763e-05
-6.296849e-05
5.920315e-05
3.766923e-04
1.052586e-03
2.329812e-03
4.525303e-03
7.957446e-03
1.271227e-02
1.808546e-02
2.179710e-02
2.077912e-02
1.430325e-02
0.000000e+00
2.294072e-02
4.721803e-02
7.164674e-02
9.501898e-02
1.166016e-01
1.363085e-01
1.542361e-01
1.705398e-01
1.854087e-01
1.990371e-01
2.115258e-01
2.226580e-01
2.315846e-01
2.368358e-01
2.372523e-01
2.339654e-01
0.000000e+00
4.759177e-02
9.785534e-02
1.479957e-01
1.947972e-01
2.377721e-01
2.769027e-01
3.122685e-01
3.439428e-01
3.719819e-01
3.964101e-01
4.171677e-01
4.340160e-01
4.464725e-01
4.539492e-01
4.563769e-01
4.556104e-01
0.000000e+00
7.614150e-02
1.581722e-01
2.339291e-01
3.037245e-01
3.678005e-01
4.262379e-01
4.790151e-01
5.260516e-01
5.672117e-01
6.022999e-01
6.310736e-01
6.533027e-01
6.689136e-01
6.782259e-01
6.821970e-01
6.829264e-01
0.000000e+00
1.275015e-01
2.348122e-01
3.335938e-01
4.256296e-01
5.107053e-01
5.885695e-01
6.589955e-01
7.217478e-01
7.765003e-01
8.227780e-01
8.599640e-01
8.874476e-01
9.050126e-01
9.135072e-01
9.156039e-01
9.155635e-01
0.000000e+00
-7.714858e-02
-1.514518e-01
-2.477317e-01
-3.658954e-01
-5.057219e-01
-6.656799e-01
-8.439793e-01
-1.038724e+00
-1.248044e+00
-1.470210e+00
-1.703848e+00
-1.948393e+00
-2.205152e+00
-2.480785e+00
-2.796160e+00
-3.249299e+00
0.000000e+00
-4.749410e-02
-1.250046e-01
-2.224782e-01
-3.425730e-01
-4.843076e-01
-6.462034e-01
-8.264265e-01
-1.023059e+00
-1.234196e+00
-1.458062e+00
-1.693219e+00
-1.939015e+00
-2.196723e+00
-2.472248e+00
-2.785710e+00
-3.169734e+00
0.000000e+00
-3.583856e-02
-1.066700e-01
-2.045034e-01
-3.257335e-01
-4.689269e-01
-6.323108e-01
-8.140334e-01
-1.012190e+00
-1.224903e+00
-1.450431e+00
-1.687385e+00
-1.935175e+00
-2.194864e+00
-2.470627e+00
-2.767643e+00
-3.055091e+00
0.000000e+00
-3.088320e-02
-9.755420e-02
-1.939527e-01
-3.156210e-01
-4.596958e-01
-6.240983e-01
-8.069063e-01
-1.006251e+00
-1.220306e+00
-1.447367e+00
-1.686018e+00
-1.935390e+00
-2.195366e+00
-2.465612e+00
-2.738527e+00
-2.989945e+00
0.000000e+00
-2.945568e-02
-9.479533e-02
-1.905869e-01
-3.122884e-01
-4.567217e-01
-6.215968e-01
-8.049934e-01
-1.005078e+00
-1.220054e+00
-1.448179e+00
-1.687813e+00
-1.937408e+00
-2.195122e+00
-2.457097e+00
-2.714375e+00
-2.951391e+00
0.000000e+00
-3.086487e-02
-9.754116e-02
-1.939759e-01
-3.157351e-01
-4.599962e-01
-6.247409e-01
-8.081235e-01
-1.008350e+00
-1.223613e+00
-1.452060e+00
-1.691706e+00
-1.940232e+00
-2.194475e+00
-2.449552e+00
-2.698008e+00
-2.929966e+00
0.000000e+00
-3.580866e-02
-1.066484e-01
-2.045421e-01
-3.259257e-01
-4.694352e-01
-6.334004e-01
-8.161001e-01
-1.015758e+00
-1.230537e+00
-1.458458e+00
-1.697232e+00
-1.943980e+00
-2.194892e+00
-2.445024e+00
-2.688712e+00
-2.920515e+00
0.000000e+00
-4.746606e-02
-1.249858e-01
-2.225297e-01
-3.428038e-01
-4.849053e-01
-6.474717e-01
-8.288152e-01
-1.027158e+00
-1.240628e+00
-1.467167e+00
-1.704320e+00
-1.948966e+00
-2.197085e+00
-2.443890e+00
-2.684868e+00
-2.918297e+00
0.000000e+00
-7.713699e-02
-1.514535e-01
-2.478113e-01
-3.661628e-01
-5.063606e-01
-6.669777e-01
-8.463472e-01
-1.042672e+00
-1.254049e+00
-1.478368e+00
-1.713121e+00
-1.955166e+00
-2.200570e+00
-2.444854e+00
-2.684165e+00
-2.918331e+00


0.000000e+00
4.631019e-09
9.576760e-09
1.395780e-08
1.765801e-08
2.066437e-08
2.303148e-08
2.484708e-08
2.620467e-08
2.719432e-08
2.789879e-08
2.839273e-08
2.874443e-08
2.901738e-08
2.927131e-08
2.958490e-08
2.996148e-08
0.000000e+00
3.149470e-09
7.421748e-09
1.090269e-08
1.369462e-08
1.590093e-08
1.760404e-08
1.888799e-08
1.983071e-08
2.050180e-08
2.096169e-08
2.126052e-08
2.143618e-08
2.152263e-08
2.161028e-08
2.186672e-08
2.225446e-08
0.000000e+00
2.344681e-09
5.154723e-09
7.503050e-09
9.390042e-09
1.084712e-08
1.194400e-08
1.275022e-08
1.332515e-08
1.371796e-08
1.396903e-08
1.411145e-08
1.417484e-08
1.419941e-08
1.426119e-08
1.446239e-08
1.477640e-08
0.000000e+00
1.255180e-09
2.571390e-09
3.745991e-09
4.706864e-09
5.441464e-09
5.984021e-09
6.373569e-09
6.642483e-09
6.816603e-09
6.917588e-09
6.965977e-09
6.985640e-09
7.007237e-09
7.061633e-09
7.183915e-09
7.377163e-09
0.000000e+00
-1.365731e-12
-3.211005e-12
-5.779308e-12
-9.481678e-12
-1.487133e-11
-2.266911e-11
-3.370217e-11
-4.868392e-11
-6.765632e-11
-8.895126e-11
-1.076695e-10
-1.149658e-10
-1.021509e-10
-6.870729e-11
-9.752135e-12
9.096456e-11
0.000000e+00
-1.257522e-09
-2.576815e-09
-3.755727e-09
-4.722637e-09
-5.465765e-09
-6.020332e-09
-6.426557e-09
-6.718013e-09
-6.921193e-09
-7.056657e-09
-7.139917e-09
-7.182834e-09
-7.197070e-09
-7.196348e-09
-7.181772e-09
-7.138730e-09
0.000000e+00
-2.345877e-09
-5.158019e-09
-7.509167e-09
-9.399801e-09
-1.086142e-08
-1.196373e-08
-1.277631e-08
-1.335872e-08
-1.376094e-08
-1.402530e-08
-1.418823e-08
-1.428119e-08
-1.433100e-08
-1.435776e-08
-1.436690e-08
-1.435479e-08
0.000000e+00
-3.149882e-09
-7.423814e-09
-1.090636e-08
-1.369974e-08
-1.590696e-08
-1.760962e-08
-1.889069e-08
-1.982702e-08
-2.048776e-08
-2.093465e-08
-2.122234e-08
-2.139797e-08
-2.149997e-08
-2.155615e-08
-2.158172e-08
-2.158529e-08
0.000000e+00
-4.633036e-09
-9.580048e-09
-1.396144e-08
-1.766092e-08
-2.066457e-08
-2.302585e-08
-2.483105e-08
-2.617213e-08
-2.713774e-08
-2.780903e-08
-2.825757e-08
-2.854354e-08
-2.871443e-08
-2.880464e-08
-2.883917e-08
-2.884514e-08
0.000000e+00
4.208515e-09
7.564440e-09
1.108591e-08
1.531240e-08
2.028677e-08
2.590829e-08
3.204571e-08
3.857304e-08
4.538626e-08
5.240552e-08
5.957608e-08
6.687574e-08
7.435233e-08
8.220705e-08
9.054364e-08
9.898720e-08
0.000000e+00
2.263579e-09
5.542690e-09
9.301067e-09
1.384798e-08
1.913126e-08
2.502443e-08
3.138700e-08
3.809591e-08
4.505153e-08
5.217905e-08
5.942858e-08
6.677954e-08
7.425449e-08
8.194978e-08
9.005414e-08
9.836088e-08
0.000000e+00
1.117209e-09
3.955736e-09
7.906756e-09
1.271611e-08
1.825391e-08
2.436323e-08
3.090185e-08
3.775119e-08
4.481699e-08
5.202911e-08
5.934108e-08
6.672837e-08
7.417773e-08
8.169817e-08
8.953421e-08
9.761793e-08
0.000000e+00
6.365077e-10
3.206768e-09
7.175898e-09
1.212204e-08
1.779990e-08
2.402679e-08
3.065931e-08
3.758296e-08
4.470738e-08
5.196460e-08
5.930712e-08
6.670204e-08
7.411641e-08
8.154203e-08
8.916469e-08
9.696779e-08
0.000000e+00
5.144535e-10
3.002577e-09
6.954649e-09
1.193942e-08
1.766169e-08
2.392632e-08
3.058920e-08
3.753750e-08
4.468198e-08
5.195410e-08
5.930326e-08
6.669096e-08
7.408329e-08
8.146863e-08
8.895349e-08
9.650504e-08
0.000000e+00
6.373705e-10
3.207966e-09
7.177519e-09
1.212434e-08
1.780355e-08
2.403299e-08
3.066976e-08
3.759947e-08
4.473081e-08
5.199269e-08
5.933106e-08
6.670482e-08
7.408260e-08
8.145192e-08
8.885155e-08
9.623864e-08
0.000000e+00
1.118571e-09
3.957895e-09
7.909953e-09
1.272083e-08
1.826149e-08
2.437588e-08
3.092270e-08
3.778359e-08
4.486286e-08
5.208537e-08
5.939335e-08
6.674321e-08
7.410346e-08
8.145723e-08
8.880643e-08
9.611423e-08
0.000000e+00
2.265483e-09
5.546256e-09
9.306351e-09
1.385563e-08
1.914281e-08
2.504235e-08
3.141468e-08
3.813700e-08
4.510825e-08
5.224847e-08
5.949566e-08
6.680259e-08
7.413466e-08
8.146873e-08
8.878928e-08
9.607270e-08
0.000000e+00
4.211545e-09
7.569661e-09
1.109324e-08
1.532242e-08
2.030063e-08
2.592794e-08
3.207371e-08
3.861208e-08
4.543771e-08
5.246605e-08
5.963065e-08
6.687986e-08
7.417436e-08
8.148499e-08
8.878810e-08
9.606634e-08


3.723938e-01
3.723938e-01
3.723951e-01
3.723975e-01
3.723996e-01
3.724013e-01
3.724027e-01
3.724037e-01
3.724044e-01
3.724049e-01
3.724052e-01
3.724054e-01
3.724055e-01
3.724053e-01
3.724049e-01
3.724047e-01
3.723962e-01
3.723962e-01
3.723972e-01
3.723991e-01
3.724008e-01
3.724022e-01
3.724033e-01
3.724041e-01
3.724047e-01
3.724051e-01
3.724053e-01
3.724055e-01
3.724055e-01
3.724053e-01
3.724050e-01
3.724047e-01
3.724003e-01
3.724002e-01
3.724008e-01
3.724018e-01
3.724028e-01
3.724037e-01
3.724043e-01
3.724048e-01
3.724051e-01
3.724053e-01
3.724055e-01
3.724056e-01
3.724056e-01
3.724054e-01
3.724051e-01
3.724049e-01
3.724032e-01
3.724032e-01
3.724034e-01
3.724038e-01
3.724043e-01
3.724047e-01
3.724050e-01
3.724052e-01
3.724054e-01
3.724055e-01
3.724056e-01
3.724056e-01
3.724056e-01
3.724055e-01
3.724053e-01
3.724052e-01
3.724032e-01
3.724032e-01
3.724034e-01
3.724038e-01
3.724043e-01
3.724047e-01
3.724050e-01
3.724052e-01
3.724054e-01
3.724055e-01
3.724055e-01
3.724056e-01
3.724056e-01
3.724056e-01
3.724055e-01
3.724055e-01
3.724003e-01
3.724002e-01
3.724008e-01
3.724018e-01
3.724028e-01
3.724036e-01
3.724043e-01
3.724047e-01
3.724051e-01
3.724053e-01
3.724054e-01
3.724055e-01
3.724056e-01
3.724056e-01
3.724056e-01
3.724056e-01
3.723962e-01
3.723962e-01
3.723972e-01
3.723991e-01
3.724008e-01
3.724022e-01
3.724033e-01
3.724041e-01
3.724047e-01
3.724051e-01
3.724053e-01
3.724055e-01
3.724056e-01
3.724057e-01
3.724057e-01
3.724057e-01
3.723938e-01
3.723937e-01
3.723951e-01
3.723974e-01
3.723996e-01
3.724013e-01
3.724027e-01
3.724037e-01
3.724044e-01
3.724049e-01
3.724053e-01
3.724055e-01
3.724056e-01
3.724057e-01
3.724057e-01
3.724058e-01


9.634553e-01
9.686376e-01
9.734315e-01
9.771217e-01
9.805471e-01
9.837057e-01
9.865834e-01
9.891465e-01
9.913680e-01
9.932260e-01
9.947034e-01
9.957857e-01
9.964585e-01
9.966985e-01
9.968717e-01
9.861912e-01
9.861745e-01
9.837996e-01
9.853275e-01
9.873215e-01
9.891807e-01
9.908704e-01
9.924001e-01
9.937856e-01
9.950401e-01
9.961765e-01
9.972076e-01
9.981412e-01
9.989558e-01
9.994892e-01
9.981403e-01
9.798574e-01
9.951962e-01
9.938322e-01
9.934640e-01
9.939819e-01
9.946632e-01
9.953232e-01
9.959360e-01
9.965150e-01
9.970758e-01
9.976227e-01
9.981334e-01
9.985289e-01
9.986114e-01
9.978993e-01
9.953160e-01
9.906697e-01
9.990223e-01
9.980275e-01
9.974130e-01
9.972571e-01
9.973193e-01
9.974238e-01
9.975280e-01
9.976300e-01
9.977300e-01
9.978137e-01
9.978370e-01
9.977125e-01
9.973175e-01
9.966086e-01
9.960074e-01
9.958552e-01
9.990260e-01
9.980327e-01
9.974176e-01
9.972561e-01
9.973038e-01
9.973791e-01
9.974314e-01
9.974490e-01
9.974250e-01
9.973480e-01
9.972045e-01
9.969978e-01
9.968010e-01
9.968401e-01
9.973965e-01
9.983596e-01
9.952031e-01
9.938426e-01
9.934740e-01
9.939820e-01
9.946368e-01
9.952415e-01
9.957532e-01
9.961645e-01
9.964725e-01
9.966800e-01
9.968111e-01
9.969393e-01
9.972087e-01
9.977734e-01
9.986217e-01
9.994987e-01
9.861732e-01
9.837987e-01
9.853254e-01
9.873158e-01
9.891661e-01
9.908372e-01
9.923312e-01
9.936541e-01
9.948068e-01
9.957922e-01
9.966263e-01
9.973548e-01
9.980564e-01
9.987919e-01
9.994797e-01
9.999129e-01
9.634304e-01
9.685986e-01
9.733837e-01
9.770680e-01
9.804989e-01
9.836882e-01
9.866428e-01
9.893559e-01
9.918280e-01
9.940543e-01
9.960083e-01
9.976292e-01
9.988351e-01
9.995791e-01
9.999175e-01
9.999983e-01
1 2 19 18
2 3 20 19
3 4 21 20
4 5 22 21
5 6 23 22
6 7 24 23
7 8 25 24
8 9 26 25
9 10 27 26
10 11 28 27
11 12 29 28
12 13 30 29
13 14 31 30
14 15 32 31
15 16 33 32
16 17 34 33
18 19 36 35
19 20 37 36
20 21 38 37
21 22 39 38
22 23 40 39
23 24 41 40
24 25 42 41
25 26 43 42
26 27 44 43
27 28 45 44
28 29 46 45
29 30 47 46
30 31 48 47
31 32 49 48
32 33 50 49
33 34 51 50
35 36 53 52
36 37 54 53
37 38 55 54
38 39 56 55
39 40 57 56
40 41 58 57
41 42 59 58
42 43 60 59
43 44 61 60
44 45 62 61
45 46 63 62
46 47 64 63
47 48 65 64
48 49 66 65
49 50 67 66
50 51 68 67
52 53 70 69
53 54 71 70
54 55 72 71
55 56 73 72
56 57 74 73
57 58 75 74
58 59 76 75
59 60 77 76
60 61 78 77
61 62 79 78
62 63 80 79
63 64 81 80
64 65 82 81
65 66 83 82
66 67 84 83
67 68 85 84
69 70 87 86
70 71 88 87
71 72 89 88
72 73 90 89
73 74 91 90
74 75 92 91
75 76 93 92
76 77 94 93
77 78 95 94
78 79 96 95
79 80 97 96
80 81 98 97
81 82 99 98
82 83 100 99
83 84 101 100
84 85 102 101
86 87 104 103
87 88 105 104
88 89 106 105
89 90 107 106
90 91 108 107
91 92 109 108
92 93 110 109
93 94 111 110
94 95 112 111
95 96 113 112
96 97 114 113
97 98 115 114
98 99 116 115
99 100 117 116
100 101 118 117
101 102 119 118
103 104 121 120
104 105 122 121
105 106 123 122
106 107 124 123
107 108 125 124
108 109 126 125
109 110 127 126
110 111 128 127
111 112 129 128
112 113 130 129
113 114 131 130
114 115 132 131
115 116 133 132
116 117 134 133
117 118 135 134
118 119 136 135
120 121 138 137
121 122 139 138
122 123 140 139
123 124 141 140
124 125 142 141
125 126 143 142
126 127 144 143
127 128 145 144
128 129 146 145
129 130 147 146
130 131 148 147
131 132 149 148
132 133 150 149
133 134 151 150
134 135 152 151
135 136 153 152
