TITLE = "Solution"
VARIABLES = x, y, u, v, psiu, psiv, t, stress
ZONE T="structure" N=153 E=128 F=FEBLOCK ET=QUADRILATERAL VARLOCATION=([7,8]=cellcentered)
0.000000e+00
1.250000e+01
2.500000e+01
3.750000e+01
5.000000e+01
6.250000e+01
7.500000e+01
8.750000e+01
1.000000e+02
1.125000e+02
1.250000e+02
1.375000e+02
1.500000e+02
1.625000e+02
1.750000e+02
1.875000e+02
2.000000e+02
0.000000e+00
1.250000e+01
2.500000e+01
3.750000e+01
5.000000e+01
6.250000e+01
7.500000e+01
8.750000e+01
1.000000e+02
1.125000e+02
1.250000e+02
1.375000e+02
1.500000e+02
1.625000e+02
1.750000e+02
1.875000e+02
2.000000e+02
0.000000e+00
1.250000e+01
2.500000e+01
3.750000e+01
5.000000e+01
6.250000e+01
7.500000e+01
8.750000e+01
1.000000e+02
1.125000e+02
1.250000e+02
1.375000e+02
1.500000e+02
1.625000e+02
1.750000e+02
1.875000e+02
2.000000e+02
0.000000e+00
1.250000e+01
2.500000e+01
3.750000e+01
5.000000e+01
6.250000e+01
7.500000e+01
8.750000e+01
1.000000e+02
1.125000e+02
1.250000e+02
1.375000e+02
1.500000e+02
1.625000e+02
1.750000e+02
1.875000e+02
2.000000e+02
0.000000e+00
1.250000e+01
2.500000e+01
3.750000e+01
5.000000e+01
6.250000e+01
7.500000e+01
8.750000e+01
1.000000e+02
1.125000e+02
1.250000e+02
1.375000e+02
1.500000e+02
1.625000e+02
1.750000e+02
1.875000e+02
2.000000e+02
0.000000e+00
1.250000e+01
2.500000e+01
3.750000e+01
5.000000e+01
6.250000e+01
7.500000e+01
8.750000e+01
1.000000e+02
1.125000e+02
1.250000e+02
1.375000e+02
1.500000e+02
1.625000e+02
1.750000e+02
1.875000e+02
2.000000e+02
0.000000e+00
1.250000e+01
2.500000e+01
3.750000e+01
5.000000e+01
6.250000e+01
7.500000e+01
8.750000e+01
1.000000e+02
1.125000e+02
1.250000e+02
1.375000e+02
1.500000e+02
1.625000e+02
1.750000e+02
1.875000e+02
2.000000e+02
0.000000e+00
1.250000e+01
2.500000e+01
3.750000e+01
5.000000e+01
6.250000e+01
7.500000e+01
8.750000e+01
1.000000e+02
1.125000e+02
1.250000e+02
1.375000e+02
1.500000e+02
1.625000e+02
1.750000e+02
1.875000e+02
2.000000e+02
0.000000e+00
1.250000e+01
2.500000e+01
3.750000e+01
5.000000e+01
6.250000e+01
7.500000e+01
8.750000e+01
1.000000e+02
1.125000e+02
1.250000e+02
1.375000e+02
1.500000e+02
1.625000e+02
1.750000e+02
1.875000e+02
2.000000e+02
0.000000e+00
0.000000e+00
0.000000e+00
0.000000e+00
0.000000e+00
0.000000e+00
0.000000e+00
0.000000e+00
0.000000e+00
0.000000e+00
0.000000e+00
0.000000e+00
0.000000e+00
0.000000e+00
0.000000e+00
0.000000e+00
0.000000e+00
1.250000e+01
1.250000e+01
1.250000e+01
1.250000e+01
1.250000e+01
1.250000e+01
1.250000e+01
1.250000e+01
1.250000e+01
1.250000e+01
1.250000e+01
1.250000e+01
1.250000e+01
1.250000e+01
1.250000e+01
1.250000e+01
1.250000e+01
2.500000e+01
2.500000e+01
2.500000e+01
2.500000e+01
2.500000e+01
2.500000e+01
2.500000e+01
2.500000e+01
2.500000e+01
2.500000e+01
2.500000e+01
2.500000e+01
2.500000e+01
2.500000e+01
2.500000e+01
2.500000e+01
2.500000e+01
3.750000e+01
3.750000e+01
3.750000e+01
3.750000e+01
3.750000e+01
3.750000e+01
3.750000e+01
3.750000e+01
3.750000e+01
3.750000e+01
3.750000e+01
3.750000e+01
3.750000e+01
3.750000e+01
3.750000e+01
3.750000e+01
3.750000e+01
5.000000e+01
5.000000e+01
5.000000e+01
5.000000e+01
5.000000e+01
5.000000e+01
5.000000e+01
5.000000e+01
5.000000e+01
5.000000e+01
5.000000e+01
5.000000e+01
5.000000e+01
5.000000e+01
5.000000e+01
5.000000e+01
5.000000e+01
6.250000e+01
6.250000e+01
6.250000e+01
6.250000e+01
6.250000e+01
6.250000e+01
6.250000e+01
6.250000e+01
6.250000e+01
6.250000e+01
6.250000e+01
6.250000e+01
6.250000e+01
6.250000e+01
6.250000e+01
6.250000e+01
6.250000e+01
7.500000e+01
7.500000e+01
7.500000e+01
7.500000e+01
7.500000e+01
7.500000e+01
7.500000e+01
7.500000e+01
7.500000e+01
7.500000e+01
7.500000e+01
7.500000e+01
7.500000e+01
7.500000e+01
7.500000e+01
7.500000e+01
7.500000e+01
8.750000e+01
8.750000e+01
8.750000e+01
8.750000e+01
8.750000e+01
8.750000e+01
8.750000e+01
8.750000e+01
8.750000e+01
8.750000e+01
8.750000e+01
8.750000e+01
8.750000e+01
8.750000e+01
8.750000e+01
8.750000e+01
8.750000e+01
1.000000e+02
1.000000e+02
1.000000e+02
1.000000e+02
1.000000e+02
1.000000e+02
1.000000e+02
1.000000e+02
1.000000e+02
1.000000e+02
1.000000e+02
1.000000e+02
1.000000e+02
1.000000e+02
1.000000e+02
1.000000e+02
1.000000e+02
0.000000e+00
-8.204429e-01
-1.491877e+00
-2.141335e+00
-2.802054e+00
-3.451980e+00
-4.091849e+00
-4.724165e+00
-5.342575e+00
-5.936624e+00
-6.496615e+00
-7.018303e+00
-7.508118e+00
-7.987329e+00
-8.493081e+00
-9.069862e+00
-9.483296e+00
0.000000e+00
-4.581498e-01
-9.536104e-01
-1.440088e+00
-1.935371e+00
-2.422410e+00
-2.901045e+00
-3.373556e+00
-3.835439e+00
-4.278230e+00
-4.692462e+00
-5.069761e+00
-5.403407e+00
-5.682319e+00
-5.874345e+00
-5.916752e+00
-6.049992e+00
0.000000e+00
-2.627587e-01
-5.513284e-01
-8.697240e-01
-1.199258e+00
-1.525941e+00
-1.848032e+00
-2.164246e+00
-2.469869e+00
-2.757533e+00
-3.017839e+00
-3.239639e+00
-3.409126e+00
-3.507307e+00
-3.515132e+00
-3.483609e+00
-3.622081e+00
0.000000e+00
-1.187727e-01
-2.531119e-01
-4.067824e-01
-5.702631e-01
-7.347409e-01
-8.971391e-01
-1.054523e+00
-1.202802e+00
-1.336252e+00
-1.447255e+00
-1.526518e+00
-1.564230e+00
-1.555003e+00
-1.517556e+00
-1.525300e+00
-1.633033e+00
0.000000e+00
-4.861231e-04
-1.028335e-03
-1.539491e-03
-1.850681e-03
-1.630788e-03
-2.497924e-04
3.437121e-03
1.137217e-02
2.653166e-02
5.287226e-02
9.445858e-02
1.526427e-01
2.192213e-01
2.666319e-01
2.577511e-01
1.834282e-01
0.000000e+00
1.179573e-01
2.513636e-01
4.041040e-01
5.669044e-01
7.314800e-01
8.957544e-01
1.058603e+00
1.218974e+00
1.375815e+00
1.527915e+00
1.673179e+00
1.806379e+00
1.915361e+00
1.980831e+00
1.987717e+00
1.949140e+00
0.000000e+00
2.623605e-01
5.504180e-01
8.681947e-01
1.197049e+00
1.523173e+00
1.845208e+00
2.162501e+00
2.471155e+00
2.764846e+00
3.035812e+00
3.275706e+00
3.475712e+00
3.626041e+00
3.717204e+00
3.747216e+00
3.738284e+00
0.000000e+00
4.582615e-01
9.537614e-01
1.440198e+00
1.935256e+00
2.421718e+00
2.899240e+00
3.369495e+00
3.826086e+00
4.256579e+00
4.645488e+00
4.977437e+00
5.240285e+00
5.427425e+00
5.539807e+00
5.587851e+00
5.596725e+00
0.000000e+00
8.208348e-01
1.492890e+00
2.143161e+00
2.804825e+00
3.455686e+00
4.096283e+00
4.728047e+00
5.340960e+00
5.916410e+00
6.430863e+00
6.860142e+00
7.184515e+00
7.394077e+00
7.495664e+00
7.520481e+00
7.519844e+00
0.000000e+00
-5.035562e-01
-1.029799e+00
-1.726980e+00
-2.587441e+00
-3.612088e+00
-4.803937e+00
-6.161744e+00
-7.680075e+00
-9.350576e+00
-1.116266e+01
-1.310617e+01
-1.517681e+01
-1.738653e+01
-1.980023e+01
-2.262627e+01
-2.684162e+01
0.000000e+00
-3.158309e-01
-8.641276e-01
-1.555468e+00
-2.415841e+00
-3.443300e+00
-4.637572e+00
-5.998389e+00
-7.522191e+00
-9.201310e+00
-1.102483e+01
-1.298132e+01
-1.506494e+01
-1.728826e+01
-1.970883e+01
-2.252239e+01
-2.603647e+01
0.000000e+00
-2.525207e-01
-7.528104e-01
-1.437800e+00
-2.295281e+00
-3.323610e+00
-4.520327e+00
-5.884972e+00
-7.414842e+00
-9.103174e+00
-1.093959e+01
-1.291294e+01
-1.501786e+01
-1.726529e+01
-1.969333e+01
-2.233936e+01
-2.486727e+01
0.000000e+00
-2.391058e-01
-7.051199e-01
-1.372763e+00
-2.225419e+00
-3.253170e+00
-4.452413e+00
-5.821785e+00
-7.358741e+00
-9.057229e+00
-1.090743e+01
-1.289782e+01
-1.501974e+01
-1.727075e+01
-1.963995e+01
-2.203069e+01
-2.417182e+01
0.000000e+00
-2.386425e-01
-6.933485e-01
-1.353641e+00
-2.203340e+00
-3.231410e+00
-4.432971e+00
-5.806559e+00
-7.349894e+00
-9.057303e+00
-1.091859e+01
-1.291962e+01
-1.504367e+01
-1.726810e+01
-1.954331e+01
-2.175957e+01
-2.373428e+01
0.000000e+00
-2.388953e-01
-7.050723e-01
-1.373305e+00
-2.227179e+00
-3.257137e+00
-4.460194e+00
-5.835946e+00
-7.382918e+00
-9.095488e+00
-1.096213e+01
-1.296457e+01
-1.507678e+01
-1.726035e+01
-1.945450e+01
-2.156784e+01
-2.348169e+01
0.000000e+00
-2.521671e-01
-7.527060e-01
-1.438625e+00
-2.298086e+00
-3.330059e+00
-4.533133e+00
-5.908500e+00
-7.455317e+00
-9.167636e+00
-1.103237e+01
-1.302755e+01
-1.512044e+01
-1.726489e+01
-1.940005e+01
-2.145657e+01
-2.336885e+01
0.000000e+00
-3.154753e-01
-8.640121e-01
-1.556369e+00
-2.418966e+00
-3.450574e+00
-4.652129e+00
-6.025208e+00
-7.568245e+00
-9.274303e+00
-1.112916e+01
-1.310916e+01
-1.517907e+01
-1.729081e+01
-1.938613e+01
-2.141017e+01
-2.334256e+01
0.000000e+00
-5.033242e-01
-1.029807e+00
-1.728034e+00
-2.590746e+00
-3.619587e+00
-4.818742e+00
-6.188519e+00
-7.724791e+00
-9.418905e+00
-1.125577e+01
-1.321176e+01
-1.525262e+01
-1.733246e+01
-1.939757e+01
-2.140161e+01
-2.334313e+01


0.000000e+00
9.513143e-06
1.871772e-05
2.737515e-05
3.625769e-05
4.484286e-05
5.258913e-05
5.929430e-05
6.479519e-05
6.898213e-05
7.193879e-05
7.392460e-05
7.527796e-05
7.634671e-05
7.741678e-05
7.896143e-05
8.100697e-05
0.000000e+00
6.984863e-06
1.507560e-05
2.163858e-05
2.836024e-05
3.488352e-05
4.067129e-05
4.557959e-05
4.952299e-05
5.241373e-05
5.432869e-05
5.547894e-05
5.606650e-05
5.622406e-05
5.639399e-05
5.764377e-05
5.977924e-05
0.000000e+00
5.239641e-06
1.060968e-05
1.511046e-05
1.965168e-05
2.390249e-05
2.763727e-05
3.077363e-05
3.325304e-05
3.502848e-05
3.614820e-05
3.673487e-05
3.693104e-05
3.692971e-05
3.711606e-05
3.815350e-05
3.991050e-05
0.000000e+00
2.615238e-06
4.963295e-06
7.460116e-06
9.751896e-06
1.180862e-05
1.362300e-05
1.515701e-05
1.636158e-05
1.721887e-05
1.774671e-05
1.800605e-05
1.811084e-05
1.822577e-05
1.849692e-05
1.910704e-05
2.010731e-05
0.000000e+00
-5.830917e-09
-1.217561e-08
-1.883454e-08
-2.608296e-08
-3.513885e-08
-4.952466e-08
-7.552524e-08
-1.196091e-07
-1.832160e-07
-2.576676e-07
-3.176203e-07
-3.177101e-07
-2.148503e-07
-4.225239e-08
1.889393e-07
6.196825e-07
0.000000e+00
-2.625692e-06
-4.984408e-06
-7.493299e-06
-9.797974e-06
-1.186913e-05
-1.370349e-05
-1.527057e-05
-1.652953e-05
-1.746792e-05
-1.809948e-05
-1.846428e-05
-1.862118e-05
-1.864671e-05
-1.864071e-05
-1.862068e-05
-1.847148e-05
0.000000e+00
-5.244974e-06
-1.062281e-05
-1.513368e-05
-1.968775e-05
-2.395392e-05
-2.770326e-05
-3.084112e-05
-3.329787e-05
-3.503550e-05
-3.613352e-05
-3.675373e-05
-3.707049e-05
-3.723108e-05
-3.733325e-05
-3.738857e-05
-3.735361e-05
0.000000e+00
-6.985433e-06
-1.507992e-05
-2.164836e-05
-2.837950e-05
-3.491833e-05
-4.072134e-05
-4.561346e-05
-4.947159e-05
-5.221029e-05
-5.395912e-05
-5.499557e-05
-5.558961e-05
-5.593223e-05
-5.613284e-05
-5.623217e-05
-5.624791e-05
0.000000e+00
-9.515701e-06
-1.871831e-05
-2.737296e-05
-3.625394e-05
-4.484111e-05
-5.258644e-05
-5.925664e-05
-6.464697e-05
-6.864222e-05
-7.136285e-05
-7.310024e-05
-7.416108e-05
-7.477992e-05
-7.510541e-05
-7.522941e-05
-7.525001e-05
0.000000e+00
8.345887e-06
1.434611e-05
2.157087e-05
3.108145e-05
4.243202e-05
5.551643e-05
7.023528e-05
8.628271e-05
1.033417e-04
1.211925e-04
1.396745e-04
1.587011e-04
1.784818e-04
2.002540e-04
2.249321e-04
2.503156e-04
0.000000e+00
4.314028e-06
1.051033e-05
1.768897e-05
2.712552e-05
3.872716e-05
5.227821e-05
6.753615e-05
8.418573e-05
1.018548e-04
1.202290e-04
1.390972e-04
1.583730e-04
1.781734e-04
1.989923e-04
2.222344e-04
2.468166e-04
0.000000e+00
1.884637e-06
7.425257e-06
1.484209e-05
2.429757e-05
3.610522e-05
5.000149e-05
6.565520e-05
8.272851e-05
1.008295e-04
1.195887e-04
1.387585e-04
1.582289e-04
1.779171e-04
1.977057e-04
2.193210e-04
2.426522e-04
0.000000e+00
1.078538e-06
6.009354e-06
1.346284e-05
2.308036e-05
3.499835e-05
4.901752e-05
6.482500e-05
8.206754e-05
1.003479e-04
1.192853e-04
1.386003e-04
1.581172e-04
1.776445e-04
1.969749e-04
2.174032e-04
2.392197e-04
0.000000e+00
9.218315e-07
5.614376e-06
1.300335e-05
2.272469e-05
3.468147e-05
4.873227e-05
6.458646e-05
8.188435e-05
1.002223e-04
1.192136e-04
1.385552e-04
1.580338e-04
1.774657e-04
1.967550e-04
2.165711e-04
2.370137e-04
0.000000e+00
1.079448e-06
6.008339e-06
1.345780e-05
2.307017e-05
3.498634e-05
4.901495e-05
6.484851e-05
8.212830e-05
1.004424e-04
1.193916e-04
1.386691e-04
1.580674e-04
1.774453e-04
1.967765e-04
2.162870e-04
2.358578e-04
0.000000e+00
1.885842e-06
7.423782e-06
1.483483e-05
2.428250e-05
3.608801e-05
5.000153e-05
6.570187e-05
8.284302e-05
1.010088e-04
1.198008e-04
1.389296e-04
1.582097e-04
1.775263e-04
1.968365e-04
2.161654e-04
2.353539e-04
0.000000e+00
4.316396e-06
1.051170e-05
1.768597e-05
2.711708e-05
3.871945e-05
5.228847e-05
6.758904e-05
8.430108e-05
1.020370e-04
1.204593e-04
1.393143e-04
1.584171e-04
1.776365e-04
1.968888e-04
2.161101e-04
2.351949e-04
0.000000e+00
8.350472e-06
1.435092e-05
2.157391e-05
3.108326e-05
4.243846e-05
5.553557e-05
7.027186e-05
8.634195e-05
1.034365e-04
1.213290e-04
1.398135e-04
1.586858e-04
1.777729e-04
1.969472e-04
2.161056e-04
2.351722e-04


2.158455e+00
2.115597e+00
2.256395e+00
2.484399e+00
2.672301e+00
2.910626e+00
3.206860e+00
3.521980e+00
3.822021e+00
4.078226e+00
4.270657e+00
4.392381e+00
4.425704e+00
4.288558e+00
3.990210e+00
3.757096e+00
2.743923e+00
2.699721e+00
2.790900e+00
2.954150e+00
3.091158e+00
3.270660e+00
3.497815e+00
3.741549e+00
3.975911e+00
4.177646e+00
4.329376e+00
4.423513e+00
4.439355e+00
4.292248e+00
3.998241e+00
3.771158e+00
3.626652e+00
3.591815e+00
3.626636e+00
3.697061e+00
3.757117e+00
3.846553e+00
3.962857e+00
4.090519e+00
4.216729e+00
4.327768e+00
4.411843e+00
4.462521e+00
4.461840e+00
4.341177e+00
4.109580e+00
3.937238e+00
4.193199e+00
4.170452e+00
4.170459e+00
4.180432e+00
4.196765e+00
4.227012e+00
4.268343e+00
4.316572e+00
4.367543e+00
4.414751e+00
4.451798e+00
4.475137e+00
4.474799e+00
4.412508e+00
4.289978e+00
4.198661e+00
4.193202e+00
4.170373e+00
4.170192e+00
4.179785e+00
4.195429e+00
4.224622e+00
4.264553e+00
4.310965e+00
4.359617e+00
4.404439e+00
4.440368e+00
4.466332e+00
4.480020e+00
4.467371e+00
4.427550e+00
4.396184e+00
3.626421e+00
3.591325e+00
3.625594e+00
3.695041e+00
3.753616e+00
3.841411e+00
3.956356e+00
4.082484e+00
4.205714e+00
4.312270e+00
4.393255e+00
4.449045e+00
4.484828e+00
4.501827e+00
4.503078e+00
4.500049e+00
2.743077e+00
2.698456e+00
2.788855e+00
2.950977e+00
3.086945e+00
3.266903e+00
3.497250e+00
3.745730e+00
3.982758e+00
4.182744e+00
4.330844e+00
4.428613e+00
4.488126e+00
4.521560e+00
4.537974e+00
4.544185e+00
2.157075e+00
2.113733e+00
2.253708e+00
2.480746e+00
2.668434e+00
2.909519e+00
3.213301e+00
3.539025e+00
3.847371e+00
4.105412e+00
4.294846e+00
4.418084e+00
4.490993e+00
4.531075e+00
4.551164e+00
4.559438e+00


-4.408549e-01
-1.993410e-01
-1.310658e-01
-1.715203e-01
-1.351604e-01
-1.002539e-01
-7.472862e-02
-2.858503e-02
5.195825e-02
1.635452e-01
2.899708e-01
4.085312e-01
5.038918e-01
5.776995e-01
6.569286e-01
-3.826282e-01
5.162811e-01
4.010601e-01
3.763938e-01
3.447798e-01
3.551527e-01
3.671169e-01
3.769395e-01
4.009501e-01
4.493587e-01
5.247970e-01
6.229064e-01
7.340146e-01
8.456737e-01
9.282593e-01
7.952879e-01
-1.077545e+00
8.327519e-01
7.450668e-01
6.751605e-01
6.428360e-01
6.348212e-01
6.314985e-01
6.312000e-01
6.391511e-01
6.603441e-01
6.971127e-01
7.456886e-01
7.915652e-01
8.032029e-01
7.196187e-01
4.379446e-01
-6.099195e-02
9.382346e-01
8.678560e-01
8.061480e-01
7.717958e-01
7.568592e-01
7.481240e-01
7.398692e-01
7.310541e-01
7.227880e-01
7.154586e-01
7.049478e-01
6.792123e-01
6.204594e-01
5.289043e-01
4.701419e-01
4.669638e-01
9.386855e-01
8.684318e-01
8.066833e-01
7.717569e-01
7.552908e-01
7.433844e-01
7.290936e-01
7.096939e-01
6.846367e-01
6.540332e-01
6.177092e-01
5.766926e-01
5.415345e-01
5.468279e-01
6.315821e-01
7.714827e-01
8.337786e-01
7.464225e-01
6.765370e-01
6.432738e-01
6.324818e-01
6.230401e-01
6.106880e-01
5.972052e-01
5.840671e-01
5.721996e-01
5.636144e-01
5.657005e-01
5.962019e-01
6.757229e-01
7.997262e-01
9.278479e-01
5.169733e-01
4.020460e-01
3.774746e-01
3.457264e-01
3.551161e-01
3.642146e-01
3.680326e-01
3.821127e-01
4.161408e-01
4.715386e-01
5.432788e-01
6.255953e-01
7.185393e-01
8.235337e-01
9.240416e-01
9.874147e-01
-4.416281e-01
-2.006166e-01
-1.325547e-01
-1.730033e-01
-1.361286e-01
-1.002707e-01
-7.118521e-02
-1.239187e-02
9.909638e-02
2.655558e-01
4.672256e-01
6.684739e-01
8.330201e-01
9.390421e-01
9.880721e-01
9.997555e-01
1 2 19 18
2 3 20 19
3 4 21 20
4 5 22 21
5 6 23 22
6 7 24 23
7 8 25 24
8 9 26 25
9 10 27 26
10 11 28 27
11 12 29 28
12 13 30 29
13 14 31 30
14 15 32 31
15 16 33 32
16 17 34 33
18 19 36 35
19 20 37 36
20 21 38 37
21 22 39 38
22 23 40 39
23 24 41 40
24 25 42 41
25 26 43 42
26 27 44 43
27 28 45 44
28 29 46 45
29 30 47 46
30 31 48 47
31 32 49 48
32 33 50 49
33 34 51 50
35 36 53 52
36 37 54 53
37 38 55 54
38 39 56 55
39 40 57 56
40 41 58 57
41 42 59 58
42 43 60 59
43 44 61 60
44 45 62 61
45 46 63 62
46 47 64 63
47 48 65 64
48 49 66 65
49 50 67 66
50 51 68 67
52 53 70 69
53 54 71 70
54 55 72 71
55 56 73 72
56 57 74 73
57 58 75 74
58 59 76 75
59 60 77 76
60 61 78 77
61 62 79 78
62 63 80 79
63 64 81 80
64 65 82 81
65 66 83 82
66 67 84 83
67 68 85 84
69 70 87 86
70 71 88 87
71 72 89 88
72 73 90 89
73 74 91 90
74 75 92 91
75 76 93 92
76 77 94 93
77 78 95 94
78 79 96 95
79 80 97 96
80 81 98 97
81 82 99 98
82 83 100 99
83 84 101 100
84 85 102 101
86 87 104 103
87 88 105 104
88 89 106 105
89 90 107 106
90 91 108 107
91 92 109 108
92 93 110 109
93 94 111 110
94 95 112 111
95 96 113 112
96 97 114 113
97 98 115 114
98 99 116 115
99 100 117 116
100 101 118 117
101 102 119 118
103 104 121 120
104 105 122 121
105 106 123 122
106 107 124 123
107 108 125 124
108 109 126 125
109 110 127 126
110 111 128 127
111 112 129 128
112 113 130 129
113 114 131 130
114 115 132 131
115 116 133 132
116 117 134 133
117 118 135 134
118 119 136 135
120 121 138 137
121 122 139 138
122 123 140 139
123 124 141 140
124 125 142 141
125 126 143 142
126 127 144 143
127 128 145 144
128 129 146 145
129 130 147 146
130 131 148 147
131 132 149 148
132 133 150 149
133 134 151 150
134 135 152 151
135 136 153 152
