TITLE = "Solution"
VARIABLES = x, y, u, v, psiu, psiv, t, stress
ZONE T="structure" N=153 E=128 F=FEBLOCK ET=QUADRILATERAL VARLOCATION=([7,8]=cellcentered)
0.000000e+00
1.250000e+01
2.500000e+01
3.750000e+01
5.000000e+01
6.250000e+01
7.500000e+01
8.750000e+01
1.000000e+02
1.125000e+02
1.250000e+02
1.375000e+02
1.500000e+02
1.625000e+02
1.750000e+02
1.875000e+02
2.000000e+02
0.000000e+00
1.250000e+01
2.500000e+01
3.750000e+01
5.000000e+01
6.250000e+01
7.500000e+01
8.750000e+01
1.000000e+02
1.125000e+02
1.250000e+02
1.375000e+02
1.500000e+02
1.625000e+02
1.750000e+02
1.875000e+02
2.000000e+02
0.000000e+00
1.250000e+01
2.500000e+01
3.750000e+01
5.000000e+01
6.250000e+01
7.500000e+01
8.750000e+01
1.000000e+02
1.125000e+02
1.250000e+02
1.375000e+02
1.500000e+02
1.625000e+02
1.750000e+02
1.875000e+02
2.000000e+02
0.000000e+00
1.250000e+01
2.500000e+01
3.750000e+01
5.000000e+01
6.250000e+01
7.500000e+01
8.750000e+01
1.000000e+02
1.125000e+02
1.250000e+02
1.375000e+02
1.500000e+02
1.625000e+02
1.750000e+02
1.875000e+02
2.000000e+02
0.000000e+00
1.250000e+01
2.500000e+01
3.750000e+01
5.000000e+01
6.250000e+01
7.500000e+01
8.750000e+01
1.000000e+02
1.125000e+02
1.250000e+02
1.375000e+02
1.500000e+02
1.625000e+02
1.750000e+02
1.875000e+02
2.000000e+02
0.000000e+00
1.250000e+01
2.500000e+01
3.750000e+01
5.000000e+01
6.250000e+01
7.500000e+01
8.750000e+01
1.000000e+02
1.125000e+02
1.250000e+02
1.375000e+02
1.500000e+02
1.625000e+02
1.750000e+02
1.875000e+02
2.000000e+02
0.000000e+00
1.250000e+01
2.500000e+01
3.750000e+01
5.000000e+01
6.250000e+01
7.500000e+01
8.750000e+01
1.000000e+02
1.125000e+02
1.250000e+02
1.375000e+02
1.500000e+02
1.625000e+02
1.750000e+02
1.875000e+02
2.000000e+02
0.000000e+00
1.250000e+01
2.500000e+01
3.750000e+01
5.000000e+01
6.250000e+01
7.500000e+01
8.750000e+01
1.000000e+02
1.125000e+02
1.250000e+02
1.375000e+02
1.500000e+02
1.625000e+02
1.750000e+02
1.875000e+02
2.000000e+02
0.000000e+00
1.250000e+01
2.500000e+01
3.750000e+01
5.000000e+01
6.250000e+01
7.500000e+01
8.750000e+01
1.000000e+02
1.125000e+02
1.250000e+02
1.375000e+02
1.500000e+02
1.625000e+02
1.750000e+02
1.875000e+02
2.000000e+02
0.000000e+00
0.000000e+00
0.000000e+00
0.000000e+00
0.000000e+00
0.000000e+00
0.000000e+00
0.000000e+00
0.000000e+00
0.000000e+00
0.000000e+00
0.000000e+00
0.000000e+00
0.000000e+00
0.000000e+00
0.000000e+00
0.000000e+00
1.250000e+01
1.250000e+01
1.250000e+01
1.250000e+01
1.250000e+01
1.250000e+01
1.250000e+01
1.250000e+01
1.250000e+01
1.250000e+01
1.250000e+01
1.250000e+01
1.250000e+01
1.250000e+01
1.250000e+01
1.250000e+01
1.250000e+01
2.500000e+01
2.500000e+01
2.500000e+01
2.500000e+01
2.500000e+01
2.500000e+01
2.500000e+01
2.500000e+01
2.500000e+01
2.500000e+01
2.500000e+01
2.500000e+01
2.500000e+01
2.500000e+01
2.500000e+01
2.500000e+01
2.500000e+01
3.750000e+01
3.750000e+01
3.750000e+01
3.750000e+01
3.750000e+01
3.750000e+01
3.750000e+01
3.750000e+01
3.750000e+01
3.750000e+01
3.750000e+01
3.750000e+01
3.750000e+01
3.750000e+01
3.750000e+01
3.750000e+01
3.750000e+01
5.000000e+01
5.000000e+01
5.000000e+01
5.000000e+01
5.000000e+01
5.000000e+01
5.000000e+01
5.000000e+01
5.000000e+01
5.000000e+01
5.000000e+01
5.000000e+01
5.000000e+01
5.000000e+01
5.000000e+01
5.000000e+01
5.000000e+01
6.250000e+01
6.250000e+01
6.250000e+01
6.250000e+01
6.250000e+01
6.250000e+01
6.250000e+01
6.250000e+01
6.250000e+01
6.250000e+01
6.250000e+01
6.250000e+01
6.250000e+01
6.250000e+01
6.250000e+01
6.250000e+01
6.250000e+01
7.500000e+01
7.500000e+01
7.500000e+01
7.500000e+01
7.500000e+01
7.500000e+01
7.500000e+01
7.500000e+01
7.500000e+01
7.500000e+01
7.500000e+01
7.500000e+01
7.500000e+01
7.500000e+01
7.500000e+01
7.500000e+01
7.500000e+01
8.750000e+01
8.750000e+01
8.750000e+01
8.750000e+01
8.750000e+01
8.750000e+01
8.750000e+01
8.750000e+01
8.750000e+01
8.750000e+01
8.750000e+01
8.750000e+01
8.750000e+01
8.750000e+01
8.750000e+01
8.750000e+01
8.750000e+01
1.000000e+02
1.000000e+02
1.000000e+02
1.000000e+02
1.000000e+02
1.000000e+02
1.000000e+02
1.000000e+02
1.000000e+02
1.000000e+02
1.000000e+02
1.000000e+02
1.000000e+02
1.000000e+02
1.000000e+02
1.000000e+02
1.000000e+02
0.000000e+00
-9.354274e-01
-1.644232e+00
-2.346406e+00
-3.034748e+00
-3.692372e+00
-4.366848e+00
-5.038281e+00
-5.698033e+00
-6.366012e+00
-7.037372e+00
-7.705763e+00
-8.400845e+00
-9.166920e+00
-9.991390e+00
-1.071214e+01
-1.116143e+01
0.000000e+00
-4.443897e-01
-9.296498e-01
-1.433048e+00
-1.951229e+00
-2.446292e+00
-2.954165e+00
-3.461381e+00
-3.957501e+00
-4.457576e+00
-4.957858e+00
-5.448474e+00
-5.941740e+00
-6.440897e+00
-6.830269e+00
-6.932446e+00
-7.104828e+00
0.000000e+00
-1.813157e-01
-4.145069e-01
-7.230549e-01
-1.064407e+00
-1.399131e+00
-1.746793e+00
-2.093727e+00
-2.433811e+00
-2.773228e+00
-3.105417e+00
-3.418363e+00
-3.698924e+00
-3.912100e+00
-3.986157e+00
-3.971770e+00
-4.123074e+00
0.000000e+00
-7.836619e-02
-1.723280e-01
-3.117384e-01
-4.660294e-01
-6.346340e-01
-8.095623e-01
-9.830788e-01
-1.154241e+00
-1.320548e+00
-1.474810e+00
-1.601791e+00
-1.676246e+00
-1.673808e+00
-1.607681e+00
-1.598262e+00
-1.722095e+00
0.000000e+00
-2.322780e-03
-4.802081e-03
-7.220160e-03
-9.190047e-03
-1.009335e-02
-9.070438e-03
-4.744358e-03
4.971044e-03
2.325489e-02
5.632311e-02
1.146727e-01
2.073793e-01
3.303018e-01
4.413076e-01
4.653227e-01
3.665972e-01
0.000000e+00
7.441688e-02
1.642186e-01
2.992557e-01
4.500679e-01
6.169598e-01
7.935417e-01
9.751329e-01
1.165240e+00
1.367975e+00
1.584703e+00
1.810210e+00
2.030900e+00
2.227076e+00
2.361814e+00
2.392698e+00
2.329331e+00
0.000000e+00
1.797311e-01
4.108833e-01
7.170935e-01
1.056841e+00
1.391341e+00
1.740667e+00
2.093494e+00
2.446382e+00
2.807207e+00
3.171674e+00
3.526204e+00
3.848019e+00
4.107272e+00
4.273948e+00
4.330621e+00
4.312788e+00
0.000000e+00
4.451681e-01
9.301435e-01
1.432677e+00
1.950349e+00
2.444520e+00
2.949666e+00
3.452846e+00
3.943093e+00
4.431603e+00
4.913205e+00
5.371938e+00
5.782936e+00
6.106242e+00
6.311564e+00
6.401123e+00
6.417459e+00
0.000000e+00
9.377686e-01
1.647977e+00
2.351473e+00
3.041602e+00
3.699629e+00
4.370443e+00
5.033009e+00
5.675435e+00
6.310666e+00
6.929687e+00
7.512833e+00
8.024568e+00
8.397700e+00
8.591140e+00
8.641148e+00
8.640973e+00
0.000000e+00
-5.903335e-01
-1.284871e+00
-2.202243e+00
-3.287844e+00
-4.536106e+00
-5.959428e+00
-7.549713e+00
-9.309625e+00
-1.124652e+01
-1.335716e+01
-1.564206e+01
-1.811741e+01
-2.080131e+01
-2.371790e+01
-2.707009e+01
-3.203699e+01
0.000000e+00
-3.873475e-01
-1.115390e+00
-2.021996e+00
-3.113747e+00
-4.361879e+00
-5.782731e+00
-7.375799e+00
-9.136489e+00
-1.107254e+01
-1.318552e+01
-1.547115e+01
-1.793995e+01
-2.062716e+01
-2.359006e+01
-2.697462e+01
-3.103870e+01
0.000000e+00
-3.492522e-01
-1.012998e+00
-1.911180e+00
-2.994525e+00
-4.238630e+00
-5.659108e+00
-7.253220e+00
-9.015680e+00
-1.095543e+01
-1.307558e+01
-1.537132e+01
-1.785345e+01
-2.057306e+01
-2.358010e+01
-2.680487e+01
-2.982585e+01
0.000000e+00
-3.868654e-01
-9.995150e-01
-1.871064e+00
-2.933836e+00
-4.172056e+00
-5.591449e+00
-7.185943e+00
-8.953085e+00
-1.090081e+01
-1.303413e+01
-1.535084e+01
-1.785438e+01
-2.057726e+01
-2.352058e+01
-2.648279e+01
-2.906938e+01
0.000000e+00
-4.004233e-01
-1.008128e+00
-1.862975e+00
-2.920160e+00
-4.156789e+00
-5.577469e+00
-7.175479e+00
-8.949445e+00
-1.090632e+01
-1.305270e+01
-1.538503e+01
-1.789189e+01
-2.057442e+01
-2.338384e+01
-2.613303e+01
-2.848056e+01
0.000000e+00
-3.865868e-01
-1.000295e+00
-1.874067e+00
-2.941076e+00
-4.185671e+00
-5.613369e+00
-7.218620e+00
-8.999235e+00
-1.096237e+01
-1.311239e+01
-1.544295e+01
-1.793483e+01
-2.056139e+01
-2.324956e+01
-2.583307e+01
-2.806147e+01
0.000000e+00
-3.489361e-01
-1.014536e+00
-1.916453e+00
-3.006710e+00
-4.261427e+00
-5.696034e+00
-7.308217e+00
-9.092782e+00
-1.105686e+01
-1.320166e+01
-1.551889e+01
-1.798820e+01
-2.056498e+01
-2.316092e+01
-2.563565e+01
-2.784662e+01
0.000000e+00
-3.871534e-01
-1.117081e+00
-2.027907e+00
-3.127473e+00
-4.387468e+00
-5.824501e+00
-7.438228e+00
-9.223248e+00
-1.118513e+01
-1.332223e+01
-1.562416e+01
-1.807050e+01
-2.060783e+01
-2.313845e+01
-2.554982e+01
-2.779296e+01
0.000000e+00
-5.905781e-01
-1.286760e+00
-2.208490e+00
-3.302014e+00
-4.561794e+00
-6.000717e+00
-7.610910e+00
-9.393060e+00
-1.135216e+01
-1.348185e+01
-1.576952e+01
-1.818971e+01
-2.068371e+01
-2.316156e+01
-2.553431e+01
-2.779296e+01


0.000000e+00
1.529388e-05
2.669168e-05
3.994382e-05
5.608806e-05
7.084813e-05
8.508737e-05
1.005477e-04
1.156002e-04
1.301885e-04
1.451706e-04
1.611205e-04
1.776435e-04
1.914455e-04
1.997899e-04
2.054166e-04
2.124366e-04
0.000000e+00
1.077525e-05
2.038890e-05
2.954644e-05
4.223590e-05
5.320276e-05
6.327015e-05
7.469714e-05
8.596787e-05
9.618016e-05
1.065100e-04
1.175961e-04
1.287314e-04
1.366013e-04
1.393332e-04
1.437129e-04
1.498049e-04
0.000000e+00
8.394504e-06
1.448494e-05
1.992800e-05
2.830215e-05
3.518873e-05
4.158542e-05
4.878417e-05
5.571309e-05
6.186254e-05
6.784484e-05
7.363965e-05
7.854837e-05
8.097532e-05
8.211521e-05
8.517195e-05
8.978625e-05
0.000000e+00
4.221462e-06
5.946529e-06
9.293826e-06
1.259838e-05
1.584052e-05
1.906918e-05
2.220740e-05
2.481283e-05
2.729397e-05
2.918076e-05
2.998766e-05
2.982309e-05
2.965225e-05
3.057354e-05
3.368820e-05
3.877922e-05
0.000000e+00
-3.479441e-08
-8.569479e-08
-1.591012e-07
-2.938932e-07
-4.882318e-07
-7.531925e-07
-1.172285e-06
-1.873565e-06
-2.934969e-06
-4.591088e-06
-6.814029e-06
-9.229068e-06
-1.099997e-05
-1.079506e-05
-8.579841e-06
-4.966142e-06
0.000000e+00
-4.288132e-06
-6.089506e-06
-9.604093e-06
-1.310100e-05
-1.657944e-05
-2.016938e-05
-2.387759e-05
-2.718429e-05
-3.081423e-05
-3.474705e-05
-3.886809e-05
-4.269226e-05
-4.540380e-05
-4.697323e-05
-4.724816e-05
-4.586582e-05
0.000000e+00
-8.367632e-06
-1.453832e-05
-2.016991e-05
-2.861381e-05
-3.551590e-05
-4.222087e-05
-4.967895e-05
-5.640056e-05
-6.235577e-05
-6.870639e-05
-7.476236e-05
-7.979346e-05
-8.355990e-05
-8.604321e-05
-8.745331e-05
-8.771153e-05
0.000000e+00
-1.071145e-05
-2.036283e-05
-2.965323e-05
-4.228131e-05
-5.307553e-05
-6.335786e-05
-7.500015e-05
-8.586394e-05
-9.575709e-05
-1.061408e-04
-1.158788e-04
-1.234378e-04
-1.284874e-04
-1.312187e-04
-1.322364e-04
-1.324383e-04
0.000000e+00
-1.530041e-05
-2.668449e-05
-3.994837e-05
-5.590865e-05
-7.035678e-05
-8.449177e-05
-9.990239e-05
-1.144858e-04
-1.289792e-04
-1.445080e-04
-1.590424e-04
-1.703013e-04
-1.768359e-04
-1.792122e-04
-1.794888e-04
-1.793930e-04
0.000000e+00
1.297295e-05
2.202241e-05
3.565504e-05
5.360184e-05
7.381901e-05
9.883489e-05
1.287711e-04
1.620744e-04
1.996203e-04
2.424266e-04
2.905426e-04
3.434480e-04
4.001193e-04
4.637710e-04
5.346079e-04
6.075632e-04
0.000000e+00
7.641960e-06
1.745374e-05
2.938357e-05
4.685486e-05
6.776890e-05
9.262765e-05
1.221576e-04
1.557859e-04
1.935290e-04
2.360823e-04
2.838105e-04
3.372655e-04
3.958113e-04
4.585775e-04
5.267399e-04
5.968862e-04
0.000000e+00
4.194621e-06
1.332601e-05
2.463897e-05
4.141709e-05
6.297241e-05
8.812075e-05
1.173785e-04
1.511422e-04
1.892709e-04
2.317928e-04
2.794501e-04
3.333787e-04
3.937967e-04
4.545667e-04
5.193319e-04
5.865812e-04
0.000000e+00
3.155454e-06
1.133852e-05
2.277978e-05
3.903798e-05
6.066965e-05
8.628011e-05
1.156207e-04
1.492178e-04
1.874523e-04
2.303161e-04
2.780477e-04
3.322904e-04
3.923600e-04
4.517723e-04
5.117949e-04
5.729295e-04
0.000000e+00
2.875637e-06
1.088594e-05
2.227374e-05
3.845746e-05
5.987363e-05
8.575033e-05
1.152418e-04
1.487647e-04
1.869690e-04
2.300904e-04
2.782772e-04
3.325504e-04
3.923299e-04
4.497890e-04
5.047529e-04
5.586580e-04
0.000000e+00
3.207867e-06
1.140205e-05
2.291098e-05
3.922021e-05
6.076646e-05
8.631657e-05
1.158046e-04
1.494411e-04
1.876233e-04
2.310456e-04
2.800226e-04
3.345921e-04
3.929284e-04
4.494764e-04
5.012293e-04
5.491016e-04
0.000000e+00
4.265449e-06
1.343568e-05
2.486087e-05
4.169230e-05
6.308206e-05
8.816194e-05
1.175677e-04
1.512798e-04
1.894909e-04
2.333747e-04
2.832486e-04
3.378653e-04
3.944853e-04
4.490484e-04
4.992599e-04
5.456339e-04
0.000000e+00
7.714891e-06
1.762506e-05
2.966139e-05
4.712747e-05
6.791712e-05
9.275546e-05
1.222787e-04
1.556654e-04
1.936166e-04
2.377591e-04
2.876512e-04
3.414110e-04
3.961652e-04
4.488436e-04
4.982942e-04
5.453337e-04
0.000000e+00
1.304552e-05
2.223895e-05
3.596432e-05
5.382518e-05
7.398992e-05
9.911409e-05
1.289145e-04
1.618215e-04
1.997527e-04
2.439325e-04
2.928008e-04
3.448047e-04
3.976140e-04
4.489840e-04
4.980733e-04
5.454379e-04


3.493402e+00
3.283413e+00
3.147330e+00
3.035874e+00
2.949893e+00
3.197892e+00
3.402985e+00
3.671648e+00
4.148486e+00
4.689428e+00
5.334937e+00
6.374156e+00
7.699424e+00
8.226154e+00
7.177118e+00
5.850178e+00
6.067702e+00
5.741916e+00
5.611307e+00
5.323121e+00
5.115594e+00
5.201450e+00
5.279658e+00
5.418190e+00
5.732988e+00
6.124777e+00
6.593463e+00
7.312149e+00
8.116285e+00
8.033356e+00
6.455425e+00
4.835096e+00
8.501152e+00
8.441637e+00
8.312680e+00
8.045223e+00
7.741064e+00
7.666105e+00
7.623032e+00
7.616681e+00
7.721403e+00
7.895419e+00
8.074096e+00
8.229998e+00
8.329391e+00
7.687782e+00
6.107619e+00
4.813562e+00
9.349115e+00
9.369719e+00
9.364984e+00
9.090695e+00
8.796119e+00
8.626887e+00
8.538682e+00
8.490472e+00
8.479639e+00
8.467148e+00
8.303486e+00
7.926308e+00
7.563299e+00
7.136341e+00
6.583013e+00
6.277391e+00
9.352088e+00
9.371379e+00
9.366483e+00
9.094432e+00
8.798976e+00
8.617934e+00
8.505501e+00
8.410819e+00
8.290909e+00
8.063668e+00
7.613032e+00
7.035139e+00
6.817824e+00
7.093663e+00
7.609057e+00
8.017452e+00
8.508101e+00
8.440857e+00
8.305894e+00
8.036515e+00
7.716876e+00
7.599832e+00
7.484503e+00
7.351937e+00
7.222625e+00
7.028786e+00
6.807966e+00
6.781172e+00
7.195746e+00
7.999854e+00
8.725020e+00
9.111810e+00
6.075040e+00
5.735016e+00
5.591552e+00
5.295384e+00
5.062891e+00
5.097894e+00
5.111877e+00
5.164845e+00
5.369215e+00
5.722447e+00
6.339719e+00
7.232391e+00
8.199452e+00
8.926507e+00
9.277799e+00
9.367636e+00
3.499159e+00
3.276295e+00
3.129353e+00
3.014626e+00
2.914865e+00
3.141850e+00
3.344320e+00
3.646879e+00
4.248314e+00
5.144540e+00
6.397799e+00
7.812285e+00
8.842699e+00
9.297833e+00
9.354934e+00
9.307164e+00


-6.755825e-01
-2.669024e-01
-2.755394e-01
-2.771972e-01
-1.693048e-01
-2.293600e-01
-2.233345e-01
-1.799235e-01
-2.064288e-01
-2.146785e-01
-1.890163e-01
-2.465664e-01
-3.949661e-01
-2.578492e-01
4.009381e-01
-7.884330e-01
5.895138e-01
4.207832e-01
3.044991e-01
2.356612e-01
2.817400e-01
2.324122e-01
2.227948e-01
2.389172e-01
2.180174e-01
2.156714e-01
2.575407e-01
3.124998e-01
4.174942e-01
6.837501e-01
7.183540e-01
-1.128594e+00
7.866699e-01
5.743864e-01
3.519497e-01
2.939222e-01
2.989585e-01
2.654150e-01
2.648424e-01
2.745910e-01
2.669752e-01
2.717206e-01
3.142029e-01
3.876604e-01
4.232739e-01
3.099169e-01
8.141167e-02
-2.635894e-01
7.987470e-01
6.227681e-01
3.750179e-01
2.661471e-01
2.253346e-01
2.006644e-01
2.036032e-01
2.168663e-01
2.223266e-01
2.240892e-01
2.340953e-01
2.266860e-01
9.600575e-02
-1.619111e-01
-1.877054e-01
1.460097e-02
8.003788e-01
6.250619e-01
3.783605e-01
2.678740e-01
2.237845e-01
1.935260e-01
1.874203e-01
1.883727e-01
1.787386e-01
1.572180e-01
1.249243e-01
6.716835e-02
-6.011350e-02
-1.639243e-01
-1.426812e-02
3.801510e-01
7.904990e-01
5.806271e-01
3.610923e-01
3.004911e-01
2.993316e-01
2.558242e-01
2.356522e-01
2.133128e-01
1.558902e-01
8.141387e-02
9.640004e-03
-3.876686e-02
-4.889015e-02
5.521872e-02
3.584194e-01
7.534262e-01
5.913979e-01
4.247715e-01
3.093112e-01
2.369019e-01
2.776470e-01
2.209829e-01
1.939895e-01
1.814495e-01
1.198911e-01
5.366629e-02
1.759366e-02
4.237986e-02
1.748970e-01
4.262557e-01
7.366593e-01
9.537747e-01
-6.821815e-01
-2.691669e-01
-2.766567e-01
-2.804208e-01
-1.695017e-01
-2.191121e-01
-2.026605e-01
-1.438360e-01
-1.369622e-01
-1.070408e-01
-1.484319e-02
1.719428e-01
4.850516e-01
7.903055e-01
9.568364e-01
9.989886e-01
1 2 19 18
2 3 20 19
3 4 21 20
4 5 22 21
5 6 23 22
6 7 24 23
7 8 25 24
8 9 26 25
9 10 27 26
10 11 28 27
11 12 29 28
12 13 30 29
13 14 31 30
14 15 32 31
15 16 33 32
16 17 34 33
18 19 36 35
19 20 37 36
20 21 38 37
21 22 39 38
22 23 40 39
23 24 41 40
24 25 42 41
25 26 43 42
26 27 44 43
27 28 45 44
28 29 46 45
29 30 47 46
30 31 48 47
31 32 49 48
32 33 50 49
33 34 51 50
35 36 53 52
36 37 54 53
37 38 55 54
38 39 56 55
39 40 57 56
40 41 58 57
41 42 59 58
42 43 60 59
43 44 61 60
44 45 62 61
45 46 63 62
46 47 64 63
47 48 65 64
48 49 66 65
49 50 67 66
50 51 68 67
52 53 70 69
53 54 71 70
54 55 72 71
55 56 73 72
56 57 74 73
57 58 75 74
58 59 76 75
59 60 77 76
60 61 78 77
61 62 79 78
62 63 80 79
63 64 81 80
64 65 82 81
65 66 83 82
66 67 84 83
67 68 85 84
69 70 87 86
70 71 88 87
71 72 89 88
72 73 90 89
73 74 91 90
74 75 92 91
75 76 93 92
76 77 94 93
77 78 95 94
78 79 96 95
79 80 97 96
80 81 98 97
81 82 99 98
82 83 100 99
83 84 101 100
84 85 102 101
86 87 104 103
87 88 105 104
88 89 106 105
89 90 107 106
90 91 108 107
91 92 109 108
92 93 110 109
93 94 111 110
94 95 112 111
95 96 113 112
96 97 114 113
97 98 115 114
98 99 116 115
99 100 117 116
100 101 118 117
101 102 119 118
103 104 121 120
104 105 122 121
105 106 123 122
106 107 124 123
107 108 125 124
108 109 126 125
109 110 127 126
110 111 128 127
111 112 129 128
112 113 130 129
113 114 131 130
114 115 132 131
115 116 133 132
116 117 134 133
117 118 135 134
118 119 136 135
120 121 138 137
121 122 139 138
122 123 140 139
123 124 141 140
124 125 142 141
125 126 143 142
126 127 144 143
127 128 145 144
128 129 146 145
129 130 147 146
130 131 148 147
131 132 149 148
132 133 150 149
133 134 151 150
134 135 152 151
135 136 153 152
