TITLE = "Solution"
VARIABLES = x, y, u, v, psiu, psiv, t, stress
ZONE T="structure" N=153 E=128 F=FEBLOCK ET=QUADRILATERAL VARLOCATION=([7,8]=cellcentered)
0.000000e+00
1.250000e+01
2.500000e+01
3.750000e+01
5.000000e+01
6.250000e+01
7.500000e+01
8.750000e+01
1.000000e+02
1.125000e+02
1.250000e+02
1.375000e+02
1.500000e+02
1.625000e+02
1.750000e+02
1.875000e+02
2.000000e+02
0.000000e+00
1.250000e+01
2.500000e+01
3.750000e+01
5.000000e+01
6.250000e+01
7.500000e+01
8.750000e+01
1.000000e+02
1.125000e+02
1.250000e+02
1.375000e+02
1.500000e+02
1.625000e+02
1.750000e+02
1.875000e+02
2.000000e+02
0.000000e+00
1.250000e+01
2.500000e+01
3.750000e+01
5.000000e+01
6.250000e+01
7.500000e+01
8.750000e+01
1.000000e+02
1.125000e+02
1.250000e+02
1.375000e+02
1.500000e+02
1.625000e+02
1.750000e+02
1.875000e+02
2.000000e+02
0.000000e+00
1.250000e+01
2.500000e+01
3.750000e+01
5.000000e+01
6.250000e+01
7.500000e+01
8.750000e+01
1.000000e+02
1.125000e+02
1.250000e+02
1.375000e+02
1.500000e+02
1.625000e+02
1.750000e+02
1.875000e+02
2.000000e+02
0.000000e+00
1.250000e+01
2.500000e+01
3.750000e+01
5.000000e+01
6.250000e+01
7.500000e+01
8.750000e+01
1.000000e+02
1.125000e+02
1.250000e+02
1.375000e+02
1.500000e+02
1.625000e+02
1.750000e+02
1.875000e+02
2.000000e+02
0.000000e+00
1.250000e+01
2.500000e+01
3.750000e+01
5.000000e+01
6.250000e+01
7.500000e+01
8.750000e+01
1.000000e+02
1.125000e+02
1.250000e+02
1.375000e+02
1.500000e+02
1.625000e+02
1.750000e+02
1.875000e+02
2.000000e+02
0.000000e+00
1.250000e+01
2.500000e+01
3.750000e+01
5.000000e+01
6.250000e+01
7.500000e+01
8.750000e+01
1.000000e+02
1.125000e+02
1.250000e+02
1.375000e+02
1.500000e+02
1.625000e+02
1.750000e+02
1.875000e+02
2.000000e+02
0.000000e+00
1.250000e+01
2.500000e+01
3.750000e+01
5.000000e+01
6.250000e+01
7.500000e+01
8.750000e+01
1.000000e+02
1.125000e+02
1.250000e+02
1.375000e+02
1.500000e+02
1.625000e+02
1.750000e+02
1.875000e+02
2.000000e+02
0.000000e+00
1.250000e+01
2.500000e+01
3.750000e+01
5.000000e+01
6.250000e+01
7.500000e+01
8.750000e+01
1.000000e+02
1.125000e+02
1.250000e+02
1.375000e+02
1.500000e+02
1.625000e+02
1.750000e+02
1.875000e+02
2.000000e+02
0.000000e+00
0.000000e+00
0.000000e+00
0.000000e+00
0.000000e+00
0.000000e+00
0.000000e+00
0.000000e+00
0.000000e+00
0.000000e+00
0.000000e+00
0.000000e+00
0.000000e+00
0.000000e+00
0.000000e+00
0.000000e+00
0.000000e+00
1.250000e+01
1.250000e+01
1.250000e+01
1.250000e+01
1.250000e+01
1.250000e+01
1.250000e+01
1.250000e+01
1.250000e+01
1.250000e+01
1.250000e+01
1.250000e+01
1.250000e+01
1.250000e+01
1.250000e+01
1.250000e+01
1.250000e+01
2.500000e+01
2.500000e+01
2.500000e+01
2.500000e+01
2.500000e+01
2.500000e+01
2.500000e+01
2.500000e+01
2.500000e+01
2.500000e+01
2.500000e+01
2.500000e+01
2.500000e+01
2.500000e+01
2.500000e+01
2.500000e+01
2.500000e+01
3.750000e+01
3.750000e+01
3.750000e+01
3.750000e+01
3.750000e+01
3.750000e+01
3.750000e+01
3.750000e+01
3.750000e+01
3.750000e+01
3.750000e+01
3.750000e+01
3.750000e+01
3.750000e+01
3.750000e+01
3.750000e+01
3.750000e+01
5.000000e+01
5.000000e+01
5.000000e+01
5.000000e+01
5.000000e+01
5.000000e+01
5.000000e+01
5.000000e+01
5.000000e+01
5.000000e+01
5.000000e+01
5.000000e+01
5.000000e+01
5.000000e+01
5.000000e+01
5.000000e+01
5.000000e+01
6.250000e+01
6.250000e+01
6.250000e+01
6.250000e+01
6.250000e+01
6.250000e+01
6.250000e+01
6.250000e+01
6.250000e+01
6.250000e+01
6.250000e+01
6.250000e+01
6.250000e+01
6.250000e+01
6.250000e+01
6.250000e+01
6.250000e+01
7.500000e+01
7.500000e+01
7.500000e+01
7.500000e+01
7.500000e+01
7.500000e+01
7.500000e+01
7.500000e+01
7.500000e+01
7.500000e+01
7.500000e+01
7.500000e+01
7.500000e+01
7.500000e+01
7.500000e+01
7.500000e+01
7.500000e+01
8.750000e+01
8.750000e+01
8.750000e+01
8.750000e+01
8.750000e+01
8.750000e+01
8.750000e+01
8.750000e+01
8.750000e+01
8.750000e+01
8.750000e+01
8.750000e+01
8.750000e+01
8.750000e+01
8.750000e+01
8.750000e+01
8.750000e+01
1.000000e+02
1.000000e+02
1.000000e+02
1.000000e+02
1.000000e+02
1.000000e+02
1.000000e+02
1.000000e+02
1.000000e+02
1.000000e+02
1.000000e+02
1.000000e+02
1.000000e+02
1.000000e+02
1.000000e+02
1.000000e+02
1.000000e+02
0.000000e+00
-9.197966e-01
-1.621381e+00
-2.319119e+00
-3.008961e+00
-3.668425e+00
-4.340709e+00
-5.011490e+00
-5.671983e+00
-6.335899e+00
-7.001857e+00
-7.676544e+00
-8.382598e+00
-9.127096e+00
-9.895642e+00
-1.059761e+01
-1.104600e+01
0.000000e+00
-4.489424e-01
-9.360166e-01
-1.438385e+00
-1.956196e+00
-2.451173e+00
-2.955567e+00
-3.460800e+00
-3.957318e+00
-4.454648e+00
-4.950320e+00
-5.443116e+00
-5.937547e+00
-6.411670e+00
-6.762917e+00
-6.853338e+00
-7.021447e+00
0.000000e+00
-1.976185e-01
-4.410249e-01
-7.511804e-01
-1.090971e+00
-1.424810e+00
-1.769151e+00
-2.113988e+00
-2.453541e+00
-2.790538e+00
-3.117949e+00
-3.424557e+00
-3.692463e+00
-3.884018e+00
-3.941953e+00
-3.921606e+00
-4.073890e+00
0.000000e+00
-8.390857e-02
-1.841347e-01
-3.256389e-01
-4.819944e-01
-6.507440e-01
-8.248738e-01
-9.977383e-01
-1.167546e+00
-1.330150e+00
-1.476353e+00
-1.590924e+00
-1.653172e+00
-1.644589e+00
-1.581138e+00
-1.576587e+00
-1.704334e+00
0.000000e+00
-1.904921e-03
-3.897381e-03
-5.744577e-03
-7.060946e-03
-7.256225e-03
-5.393700e-03
1.729375e-04
1.189332e-02
3.337483e-02
7.081065e-02
1.329571e-01
2.262301e-01
3.440590e-01
4.440347e-01
4.569993e-01
3.557315e-01
0.000000e+00
8.066336e-02
1.776162e-01
3.158702e-01
4.698577e-01
6.380855e-01
8.153193e-01
9.977588e-01
1.187673e+00
1.387410e+00
1.597190e+00
1.813012e+00
2.024361e+00
2.210624e+00
2.334576e+00
2.359831e+00
2.299593e+00
0.000000e+00
1.961329e-01
4.379202e-01
7.464366e-01
1.084815e+00
1.418089e+00
1.764036e+00
2.114079e+00
2.463173e+00
2.817123e+00
3.173379e+00
3.518592e+00
3.829495e+00
4.077666e+00
4.235678e+00
4.289988e+00
4.274644e+00
0.000000e+00
4.490692e-01
9.358465e-01
1.437802e+00
1.954918e+00
2.448329e+00
2.950628e+00
3.452871e+00
3.942077e+00
4.427442e+00
4.908608e+00
5.367297e+00
5.768829e+00
6.075306e+00
6.267075e+00
6.350808e+00
6.366245e+00
0.000000e+00
9.210195e-01
1.623710e+00
2.322826e+00
3.013882e+00
3.673055e+00
4.343234e+00
5.008343e+00
5.653996e+00
6.291937e+00
6.918908e+00
7.507089e+00
8.002956e+00
8.349114e+00
8.525473e+00
8.570675e+00
8.570096e+00
0.000000e+00
-5.766426e-01
-1.243070e+00
-2.125453e+00
-3.177308e+00
-4.394275e+00
-5.788178e+00
-7.352288e+00
-9.087191e+00
-1.099716e+01
-1.308073e+01
-1.534227e+01
-1.779414e+01
-2.044658e+01
-2.333481e+01
-2.666348e+01
-3.158786e+01
0.000000e+00
-3.757751e-01
-1.074083e+00
-1.945287e+00
-3.002449e+00
-4.220269e+00
-5.612037e+00
-7.178252e+00
-8.914460e+00
-1.082478e+01
-1.290946e+01
-1.516982e+01
-1.761922e+01
-2.028361e+01
-2.321322e+01
-2.656559e+01
-3.060824e+01
0.000000e+00
-3.333498e-01
-9.704450e-01
-1.832687e+00
-2.881976e+00
-4.096912e+00
-5.488394e+00
-7.055517e+00
-8.794045e+00
-1.070883e+01
-1.280093e+01
-1.507228e+01
-1.753790e+01
-2.023465e+01
-2.320413e+01
-2.639281e+01
-2.938306e+01
0.000000e+00
-3.619674e-01
-9.511849e-01
-1.787192e+00
-2.818091e+00
-4.028049e+00
-5.419214e+00
-6.987435e+00
-8.730989e+00
-1.065461e+01
-1.276130e+01
-1.505345e+01
-1.753955e+01
-2.024081e+01
-2.314870e+01
-2.606671e+01
-2.861285e+01
0.000000e+00
-3.741986e-01
-9.565535e-01
-1.777278e+00
-2.802064e+00
-4.010466e+00
-5.403341e+00
-6.975506e+00
-8.725749e+00
-1.065880e+01
-1.277955e+01
-1.508776e+01
-1.757800e+01
-2.024196e+01
-2.301724e+01
-2.571586e+01
-2.802183e+01
0.000000e+00
-3.617069e-01
-9.518003e-01
-1.789864e+00
-2.824329e+00
-4.039312e+00
-5.437768e+00
-7.016381e+00
-8.772403e+00
-1.071072e+01
-1.283685e+01
-1.514767e+01
-1.762512e+01
-2.023261e+01
-2.288479e+01
-2.542199e+01
-2.761975e+01
0.000000e+00
-3.330765e-01
-9.716270e-01
-1.837166e+00
-2.892229e+00
-4.115601e+00
-5.519269e+00
-7.103431e+00
-8.862370e+00
-1.080096e+01
-1.292435e+01
-1.522740e+01
-1.768405e+01
-2.023875e+01
-2.279818e+01
-2.523581e+01
-2.742460e+01
0.000000e+00
-3.755829e-01
-1.075413e+00
-1.950220e+00
-3.013793e+00
-4.241214e+00
-5.646878e+00
-7.231958e+00
-8.990656e+00
-1.092745e+01
-1.304536e+01
-1.533610e+01
-1.776896e+01
-2.028002e+01
-2.277537e+01
-2.515538e+01
-2.737669e+01
0.000000e+00
-5.767085e-01
-1.244612e+00
-2.130657e+00
-3.188817e+00
-4.415262e+00
-5.822900e+00
-7.404813e+00
-9.160277e+00
-1.109508e+01
-1.320716e+01
-1.548204e+01
-1.788396e+01
-2.034998e+01
-2.279578e+01
-2.514053e+01
-2.737714e+01


0.000000e+00
1.445505e-05
2.549784e-05
3.798649e-05
5.314573e-05
6.719369e-05
8.073417e-05
9.518703e-05
1.091808e-04
1.226060e-04
1.365521e-04
1.510296e-04
1.640420e-04
1.733076e-04
1.788668e-04
1.831245e-04
1.882788e-04
0.000000e+00
1.043856e-05
2.003366e-05
2.894638e-05
4.099253e-05
5.165521e-05
6.138979e-05
7.217295e-05
8.272455e-05
9.231002e-05
1.022353e-04
1.123484e-04
1.203770e-04
1.240958e-04
1.249071e-04
1.283626e-04
1.336419e-04
0.000000e+00
8.265352e-06
1.469160e-05
2.039244e-05
2.851369e-05
3.537445e-05
4.165388e-05
4.858256e-05
5.523655e-05
6.109439e-05
6.672697e-05
7.170143e-05
7.476707e-05
7.531063e-05
7.555114e-05
7.850391e-05
8.329972e-05
0.000000e+00
4.259186e-06
6.543831e-06
1.008788e-05
1.351846e-05
1.672243e-05
1.989302e-05
2.306012e-05
2.582825e-05
2.824586e-05
2.992581e-05
3.061369e-05
3.045081e-05
3.033264e-05
3.123132e-05
3.424360e-05
3.897911e-05
0.000000e+00
-5.185659e-08
-1.187364e-07
-2.004996e-07
-3.118379e-07
-4.456819e-07
-6.295827e-07
-9.248177e-07
-1.402760e-06
-2.157339e-06
-3.389970e-06
-5.043284e-06
-6.682845e-06
-7.522244e-06
-6.776798e-06
-4.730521e-06
-1.725210e-06
0.000000e+00
-4.320273e-06
-6.700066e-06
-1.041554e-05
-1.401198e-05
-1.740585e-05
-2.085444e-05
-2.439023e-05
-2.758859e-05
-3.080766e-05
-3.395710e-05
-3.690925e-05
-3.944768e-05
-4.105648e-05
-4.185590e-05
-4.194699e-05
-4.095290e-05
0.000000e+00
-8.223496e-06
-1.471336e-05
-2.055534e-05
-2.874500e-05
-3.569840e-05
-4.221999e-05
-4.919648e-05
-5.564766e-05
-6.144850e-05
-6.701110e-05
-7.157660e-05
-7.490624e-05
-7.731698e-05
-7.896673e-05
-7.994213e-05
-8.009499e-05
0.000000e+00
-1.036386e-05
-1.997739e-05
-2.896258e-05
-4.095871e-05
-5.159932e-05
-6.152499e-05
-7.226773e-05
-8.251369e-05
-9.215311e-05
-1.016891e-04
-1.095563e-04
-1.147583e-04
-1.179404e-04
-1.197286e-04
-1.205035e-04
-1.206815e-04
0.000000e+00
-1.442612e-05
-2.544203e-05
-3.791036e-05
-5.291083e-05
-6.679083e-05
-8.029228e-05
-9.457883e-05
-1.082685e-04
-1.219483e-04
-1.359643e-04
-1.480664e-04
-1.564125e-04
-1.607978e-04
-1.623576e-04
-1.625894e-04
-1.625622e-04
0.000000e+00
1.225936e-05
2.054980e-05
3.271212e-05
4.875521e-05
6.684035e-05
8.919567e-05
1.160731e-04
1.460747e-04
1.798243e-04
2.181343e-04
2.603400e-04
3.054162e-04
3.537987e-04
4.095492e-04
4.726025e-04
5.366179e-04
0.000000e+00
7.054687e-06
1.604845e-05
2.672961e-05
4.227352e-05
6.095799e-05
8.322178e-05
1.098255e-04
1.401801e-04
1.740774e-04
2.121550e-04
2.546314e-04
3.012275e-04
3.514152e-04
4.057094e-04
4.661023e-04
5.279794e-04
0.000000e+00
3.649298e-06
1.195167e-05
2.216354e-05
3.711832e-05
5.635259e-05
7.885229e-05
1.053023e-04
1.358928e-04
1.701362e-04
2.082686e-04
2.511118e-04
2.988129e-04
3.502408e-04
4.017338e-04
4.583568e-04
5.177168e-04
0.000000e+00
2.557461e-06
9.908730e-06
2.022026e-05
3.494270e-05
5.428014e-05
7.705565e-05
1.035857e-04
1.341891e-04
1.686892e-04
2.071350e-04
2.500445e-04
2.980066e-04
3.491720e-04
3.986745e-04
4.504984e-04
5.049724e-04
0.000000e+00
2.281316e-06
9.375829e-06
1.962923e-05
3.439865e-05
5.359783e-05
7.652795e-05
1.031633e-04
1.337548e-04
1.683821e-04
2.071256e-04
2.501883e-04
2.980108e-04
3.489847e-04
3.971372e-04
4.445331e-04
4.930384e-04
0.000000e+00
2.595362e-06
9.951712e-06
2.031008e-05
3.503461e-05
5.428864e-05
7.705043e-05
1.036444e-04
1.342178e-04
1.688754e-04
2.079795e-04
2.515617e-04
2.994119e-04
3.493376e-04
3.971446e-04
4.421666e-04
4.856961e-04
0.000000e+00
3.698634e-06
1.203167e-05
2.231622e-05
3.725970e-05
5.635649e-05
7.883236e-05
1.053042e-04
1.357972e-04
1.704483e-04
2.099609e-04
2.541455e-04
3.017348e-04
3.503249e-04
3.970041e-04
4.410689e-04
4.830257e-04
0.000000e+00
7.102450e-06
1.616657e-05
2.691483e-05
4.243127e-05
6.101321e-05
8.322447e-05
1.097227e-04
1.399439e-04
1.743428e-04
2.138345e-04
2.576348e-04
3.041264e-04
3.512631e-04
3.969181e-04
4.405459e-04
4.826595e-04
0.000000e+00
1.230001e-05
2.069282e-05
3.290793e-05
4.889572e-05
6.695066e-05
8.926952e-05
1.159222e-04
1.458282e-04
1.801605e-04
2.192839e-04
2.616950e-04
3.064257e-04
3.521247e-04
3.970258e-04
4.404253e-04
4.826971e-04


3.077709e+00
2.916528e+00
2.897007e+00
2.882476e+00
2.878866e+00
3.134820e+00
3.373933e+00
3.671809e+00
4.132175e+00
4.687342e+00
5.431741e+00
6.413959e+00
7.314356e+00
7.474679e+00
6.479731e+00
5.370010e+00
5.211523e+00
4.981664e+00
4.918827e+00
4.786769e+00
4.702113e+00
4.837720e+00
4.972054e+00
5.156825e+00
5.468689e+00
5.848054e+00
6.344707e+00
6.977922e+00
7.512642e+00
7.295283e+00
5.965181e+00
4.595850e+00
7.499978e+00
7.405455e+00
7.300099e+00
7.138547e+00
6.984209e+00
6.983990e+00
6.994006e+00
7.028722e+00
7.127754e+00
7.247150e+00
7.372842e+00
7.510220e+00
7.584680e+00
7.114510e+00
5.844523e+00
4.725552e+00
8.495441e+00
8.446664e+00
8.384192e+00
8.205711e+00
8.050432e+00
7.967213e+00
7.911186e+00
7.867172e+00
7.824448e+00
7.748075e+00
7.590518e+00
7.379070e+00
7.225549e+00
6.951437e+00
6.409640e+00
5.982036e+00
8.495125e+00
8.445786e+00
8.382041e+00
8.200854e+00
8.039906e+00
7.945888e+00
7.870379e+00
7.789335e+00
7.680856e+00
7.505495e+00
7.236538e+00
6.966258e+00
6.903617e+00
7.026425e+00
7.172963e+00
7.272037e+00
7.497422e+00
7.399880e+00
7.288967e+00
7.117146e+00
6.943617e+00
6.913676e+00
6.871435e+00
6.810465e+00
6.772072e+00
6.740629e+00
6.728976e+00
6.804414e+00
7.069588e+00
7.478978e+00
7.858704e+00
8.086838e+00
5.207544e+00
4.972217e+00
4.901595e+00
4.757040e+00
4.650682e+00
4.758869e+00
4.851608e+00
4.967320e+00
5.235482e+00
5.676067e+00
6.268435e+00
6.919488e+00
7.515759e+00
7.989272e+00
8.302074e+00
8.455820e+00
3.074981e+00
2.909327e+00
2.885072e+00
2.864242e+00
2.850303e+00
3.102384e+00
3.343719e+00
3.653991e+00
4.225379e+00
5.075806e+00
6.123156e+00
7.122321e+00
7.847104e+00
8.272776e+00
8.490587e+00
8.589445e+00


-6.482620e-01
-2.537898e-01
-2.633106e-01
-2.790405e-01
-1.725808e-01
-2.178202e-01
-2.182010e-01
-1.823516e-01
-1.927075e-01
-1.947623e-01
-2.061598e-01
-2.688699e-01
-2.907952e-01
-7.283730e-02
4.434605e-01
-7.588621e-01
5.732511e-01
4.170207e-01
3.153541e-01
2.481195e-01
2.898934e-01
2.491122e-01
2.340466e-01
2.428881e-01
2.309268e-01
2.375891e-01
2.735406e-01
3.422046e-01
4.938297e-01
7.436669e-01
7.296401e-01
-1.172038e+00
8.017518e-01
6.183475e-01
4.314576e-01
3.690642e-01
3.635377e-01
3.311493e-01
3.232384e-01
3.270469e-01
3.269081e-01
3.463554e-01
3.947437e-01
4.599195e-01
4.876398e-01
3.673839e-01
1.187679e-01
-2.895536e-01
8.282027e-01
6.711880e-01
4.658333e-01
3.646716e-01
3.227268e-01
3.003906e-01
2.999866e-01
3.093317e-01
3.162754e-01
3.191971e-01
3.119659e-01
2.662382e-01
1.194541e-01
-1.160832e-01
-1.327862e-01
2.176150e-02
8.295869e-01
6.730845e-01
4.683026e-01
3.657903e-01
3.208938e-01
2.923433e-01
2.811649e-01
2.750692e-01
2.580148e-01
2.205753e-01
1.567337e-01
5.944307e-02
-7.474091e-02
-1.406785e-01
4.151471e-02
4.219257e-01
8.049907e-01
6.230345e-01
4.373541e-01
3.727129e-01
3.612136e-01
3.159693e-01
2.852975e-01
2.559014e-01
1.990572e-01
1.212242e-01
4.005244e-02
-1.750099e-02
-1.536661e-02
1.204267e-01
4.248275e-01
7.881805e-01
5.754372e-01
4.199890e-01
3.179937e-01
2.492619e-01
2.878024e-01
2.379084e-01
2.068226e-01
1.967035e-01
1.464500e-01
8.010674e-02
4.621735e-02
9.397861e-02
2.466390e-01
4.920458e-01
7.702208e-01
9.606397e-01
-6.508934e-01
-2.554818e-01
-2.654800e-01
-2.805627e-01
-1.698866e-01
-2.116186e-01
-2.050064e-01
-1.463292e-01
-1.329809e-01
-1.172004e-01
-1.893726e-02
2.191516e-01
5.464889e-01
8.197926e-01
9.627542e-01
9.991672e-01
1 2 19 18
2 3 20 19
3 4 21 20
4 5 22 21
5 6 23 22
6 7 24 23
7 8 25 24
8 9 26 25
9 10 27 26
10 11 28 27
11 12 29 28
12 13 30 29
13 14 31 30
14 15 32 31
15 16 33 32
16 17 34 33
18 19 36 35
19 20 37 36
20 21 38 37
21 22 39 38
22 23 40 39
23 24 41 40
24 25 42 41
25 26 43 42
26 27 44 43
27 28 45 44
28 29 46 45
29 30 47 46
30 31 48 47
31 32 49 48
32 33 50 49
33 34 51 50
35 36 53 52
36 37 54 53
37 38 55 54
38 39 56 55
39 40 57 56
40 41 58 57
41 42 59 58
42 43 60 59
43 44 61 60
44 45 62 61
45 46 63 62
46 47 64 63
47 48 65 64
48 49 66 65
49 50 67 66
50 51 68 67
52 53 70 69
53 54 71 70
54 55 72 71
55 56 73 72
56 57 74 73
57 58 75 74
58 59 76 75
59 60 77 76
60 61 78 77
61 62 79 78
62 63 80 79
63 64 81 80
64 65 82 81
65 66 83 82
66 67 84 83
67 68 85 84
69 70 87 86
70 71 88 87
71 72 89 88
72 73 90 89
73 74 91 90
74 75 92 91
75 76 93 92
76 77 94 93
77 78 95 94
78 79 96 95
79 80 97 96
80 81 98 97
81 82 99 98
82 83 100 99
83 84 101 100
84 85 102 101
86 87 104 103
87 88 105 104
88 89 106 105
89 90 107 106
90 91 108 107
91 92 109 108
92 93 110 109
93 94 111 110
94 95 112 111
95 96 113 112
96 97 114 113
97 98 115 114
98 99 116 115
99 100 117 116
100 101 118 117
101 102 119 118
103 104 121 120
104 105 122 121
105 106 123 122
106 107 124 123
107 108 125 124
108 109 126 125
109 110 127 126
110 111 128 127
111 112 129 128
112 113 130 129
113 114 131 130
114 115 132 131
115 116 133 132
116 117 134 133
117 118 135 134
118 119 136 135
120 121 138 137
121 122 139 138
122 123 140 139
123 124 141 140
124 125 142 141
125 126 143 142
126 127 144 143
127 128 145 144
128 129 146 145
129 130 147 146
130 131 148 147
131 132 149 148
132 133 150 149
133 134 151 150
134 135 152 151
135 136 153 152
