TITLE = "Solution"
VARIABLES = x, y, u, v, psiu, psiv, t, stress
ZONE T="structure" N=153 E=128 F=FEBLOCK ET=QUADRILATERAL VARLOCATION=([7,8]=cellcentered)
0.000000e+00
1.250000e+01
2.500000e+01
3.750000e+01
5.000000e+01
6.250000e+01
7.500000e+01
8.750000e+01
1.000000e+02
1.125000e+02
1.250000e+02
1.375000e+02
1.500000e+02
1.625000e+02
1.750000e+02
1.875000e+02
2.000000e+02
0.000000e+00
1.250000e+01
2.500000e+01
3.750000e+01
5.000000e+01
6.250000e+01
7.500000e+01
8.750000e+01
1.000000e+02
1.125000e+02
1.250000e+02
1.375000e+02
1.500000e+02
1.625000e+02
1.750000e+02
1.875000e+02
2.000000e+02
0.000000e+00
1.250000e+01
2.500000e+01
3.750000e+01
5.000000e+01
6.250000e+01
7.500000e+01
8.750000e+01
1.000000e+02
1.125000e+02
1.250000e+02
1.375000e+02
1.500000e+02
1.625000e+02
1.750000e+02
1.875000e+02
2.000000e+02
0.000000e+00
1.250000e+01
2.500000e+01
3.750000e+01
5.000000e+01
6.250000e+01
7.500000e+01
8.750000e+01
1.000000e+02
1.125000e+02
1.250000e+02
1.375000e+02
1.500000e+02
1.625000e+02
1.750000e+02
1.875000e+02
2.000000e+02
0.000000e+00
1.250000e+01
2.500000e+01
3.750000e+01
5.000000e+01
6.250000e+01
7.500000e+01
8.750000e+01
1.000000e+02
1.125000e+02
1.250000e+02
1.375000e+02
1.500000e+02
1.625000e+02
1.750000e+02
1.875000e+02
2.000000e+02
0.000000e+00
1.250000e+01
2.500000e+01
3.750000e+01
5.000000e+01
6.250000e+01
7.500000e+01
8.750000e+01
1.000000e+02
1.125000e+02
1.250000e+02
1.375000e+02
1.500000e+02
1.625000e+02
1.750000e+02
1.875000e+02
2.000000e+02
0.000000e+00
1.250000e+01
2.500000e+01
3.750000e+01
5.000000e+01
6.250000e+01
7.500000e+01
8.750000e+01
1.000000e+02
1.125000e+02
1.250000e+02
1.375000e+02
1.500000e+02
1.625000e+02
1.750000e+02
1.875000e+02
2.000000e+02
0.000000e+00
1.250000e+01
2.500000e+01
3.750000e+01
5.000000e+01
6.250000e+01
7.500000e+01
8.750000e+01
1.000000e+02
1.125000e+02
1.250000e+02
1.375000e+02
1.500000e+02
1.625000e+02
1.750000e+02
1.875000e+02
2.000000e+02
0.000000e+00
1.250000e+01
2.500000e+01
3.750000e+01
5.000000e+01
6.250000e+01
7.500000e+01
8.750000e+01
1.000000e+02
1.125000e+02
1.250000e+02
1.375000e+02
1.500000e+02
1.625000e+02
1.750000e+02
1.875000e+02
2.000000e+02
0.000000e+00
0.000000e+00
0.000000e+00
0.000000e+00
0.000000e+00
0.000000e+00
0.000000e+00
0.000000e+00
0.000000e+00
0.000000e+00
0.000000e+00
0.000000e+00
0.000000e+00
0.000000e+00
0.000000e+00
0.000000e+00
0.000000e+00
1.250000e+01
1.250000e+01
1.250000e+01
1.250000e+01
1.250000e+01
1.250000e+01
1.250000e+01
1.250000e+01
1.250000e+01
1.250000e+01
1.250000e+01
1.250000e+01
1.250000e+01
1.250000e+01
1.250000e+01
1.250000e+01
1.250000e+01
2.500000e+01
2.500000e+01
2.500000e+01
2.500000e+01
2.500000e+01
2.500000e+01
2.500000e+01
2.500000e+01
2.500000e+01
2.500000e+01
2.500000e+01
2.500000e+01
2.500000e+01
2.500000e+01
2.500000e+01
2.500000e+01
2.500000e+01
3.750000e+01
3.750000e+01
3.750000e+01
3.750000e+01
3.750000e+01
3.750000e+01
3.750000e+01
3.750000e+01
3.750000e+01
3.750000e+01
3.750000e+01
3.750000e+01
3.750000e+01
3.750000e+01
3.750000e+01
3.750000e+01
3.750000e+01
5.000000e+01
5.000000e+01
5.000000e+01
5.000000e+01
5.000000e+01
5.000000e+01
5.000000e+01
5.000000e+01
5.000000e+01
5.000000e+01
5.000000e+01
5.000000e+01
5.000000e+01
5.000000e+01
5.000000e+01
5.000000e+01
5.000000e+01
6.250000e+01
6.250000e+01
6.250000e+01
6.250000e+01
6.250000e+01
6.250000e+01
6.250000e+01
6.250000e+01
6.250000e+01
6.250000e+01
6.250000e+01
6.250000e+01
6.250000e+01
6.250000e+01
6.250000e+01
6.250000e+01
6.250000e+01
7.500000e+01
7.500000e+01
7.500000e+01
7.500000e+01
7.500000e+01
7.500000e+01
7.500000e+01
7.500000e+01
7.500000e+01
7.500000e+01
7.500000e+01
7.500000e+01
7.500000e+01
7.500000e+01
7.500000e+01
7.500000e+01
7.500000e+01
8.750000e+01
8.750000e+01
8.750000e+01
8.750000e+01
8.750000e+01
8.750000e+01
8.750000e+01
8.750000e+01
8.750000e+01
8.750000e+01
8.750000e+01
8.750000e+01
8.750000e+01
8.750000e+01
8.750000e+01
8.750000e+01
8.750000e+01
1.000000e+02
1.000000e+02
1.000000e+02
1.000000e+02
1.000000e+02
1.000000e+02
1.000000e+02
1.000000e+02
1.000000e+02
1.000000e+02
1.000000e+02
1.000000e+02
1.000000e+02
1.000000e+02
1.000000e+02
1.000000e+02
1.000000e+02
0.000000e+00
-9.396068e-01
-1.649825e+00
-2.353854e+00
-3.042001e+00
-3.699368e+00
-4.374789e+00
-5.046384e+00
-5.705654e+00
-6.374143e+00
-7.046777e+00
-7.714360e+00
-8.406679e+00
-9.177142e+00
-1.001670e+01
-1.074223e+01
-1.119200e+01
0.000000e+00
-4.435821e-01
-9.284022e-01
-1.432215e+00
-1.950495e+00
-2.445477e+00
-2.954257e+00
-3.461797e+00
-3.957544e+00
-4.457976e+00
-4.959490e+00
-5.450083e+00
-5.943175e+00
-6.448170e+00
-6.848046e+00
-6.953340e+00
-7.126853e+00
0.000000e+00
-1.781593e-01
-4.091296e-01
-7.168989e-01
-1.058454e+00
-1.393263e+00
-1.741531e+00
-2.088582e+00
-2.428634e+00
-2.768672e+00
-3.102151e+00
-3.416854e+00
-3.700749e+00
-3.919461e+00
-3.997807e+00
-3.984836e+00
-4.135959e+00
0.000000e+00
-7.904112e-02
-1.723933e-01
-3.108533e-01
-4.637153e-01
-6.317641e-01
-8.061311e-01
-9.791865e-01
-1.150609e+00
-1.317955e+00
-1.474373e+00
-1.604801e+00
-1.682727e+00
-1.682124e+00
-1.615211e+00
-1.604510e+00
-1.727599e+00
0.000000e+00
-2.433091e-03
-5.056388e-03
-7.660329e-03
-9.874175e-03
-1.100036e-02
-1.010001e-02
-5.851273e-03
3.658397e-03
2.131518e-02
5.317574e-02
1.102532e-01
2.024525e-01
3.261950e-01
4.393631e-01
4.656979e-01
3.674586e-01
0.000000e+00
7.477643e-02
1.636908e-01
2.974406e-01
4.463800e-01
6.121923e-01
7.876453e-01
9.682419e-01
1.158283e+00
1.362061e+00
1.580923e+00
1.809104e+00
2.032178e+00
2.230778e+00
2.367853e+00
2.399783e+00
2.335825e+00
0.000000e+00
1.762440e-01
4.049916e-01
7.102977e-01
1.050080e+00
1.384630e+00
1.734447e+00
2.087291e+00
2.440756e+00
2.803389e+00
3.170157e+00
3.527429e+00
3.852487e+00
4.114800e+00
4.283669e+00
4.340899e+00
4.322521e+00
0.000000e+00
4.441126e-01
9.286215e-01
1.431496e+00
1.949105e+00
2.443309e+00
2.949317e+00
3.452519e+00
3.942816e+00
4.432242e+00
4.914349e+00
5.373872e+00
5.787862e+00
6.115413e+00
6.323715e+00
6.414574e+00
6.431162e+00
0.000000e+00
9.417155e-01
1.653477e+00
2.358817e+00
3.048596e+00
3.706487e+00
4.378049e+00
5.039979e+00
5.681536e+00
6.316233e+00
6.933878e+00
7.516939e+00
8.033331e+00
8.412537e+00
8.609222e+00
8.660110e+00
8.660004e+00
0.000000e+00
-5.934856e-01
-1.294173e+00
-2.219463e+00
-3.313153e+00
-4.569639e+00
-6.001265e+00
-7.599273e+00
-9.366730e+00
-1.131162e+01
-1.343031e+01
-1.572236e+01
-1.820450e+01
-2.089711e+01
-2.382179e+01
-2.718006e+01
-3.215897e+01
0.000000e+00
-3.900487e-01
-1.124562e+00
-2.038983e+00
-3.139150e+00
-4.395283e+00
-5.824408e+00
-7.425438e+00
-9.193615e+00
-1.113733e+01
-1.325850e+01
-1.555172e+01
-1.802658e+01
-2.072012e+01
-2.369228e+01
-2.708546e+01
-3.115461e+01
0.000000e+00
-3.533620e-01
-1.022634e+00
-1.928334e+00
-3.019785e+00
-4.271993e+00
-5.700883e+00
-7.302926e+00
-9.072782e+00
-1.102004e+01
-1.314826e+01
-1.545138e+01
-1.793884e+01
-2.066475e+01
-2.368222e+01
-2.691674e+01
-2.994527e+01
0.000000e+00
-3.936158e-01
-1.011098e+00
-1.888955e+00
-2.958927e+00
-4.205898e+00
-5.633772e+00
-7.235819e+00
-9.010292e+00
-1.096543e+01
-1.310650e+01
-1.543056e+01
-1.793967e+01
-2.066875e+01
-2.362184e+01
-2.659536e+01
-2.919136e+01
0.000000e+00
-4.072950e-01
-1.020688e+00
-1.880746e+00
-2.945355e+00
-4.191104e+00
-5.620344e+00
-7.225686e+00
-9.006962e+00
-1.097127e+01
-1.312525e+01
-1.546472e+01
-1.797695e+01
-2.066544e+01
-2.348399e+01
-2.624528e+01
-2.860221e+01
0.000000e+00
-3.932550e-01
-1.011850e+00
-1.892087e+00
-2.966387e+00
-4.219999e+00
-5.656472e+00
-7.269327e+00
-9.057487e+00
-1.102834e+01
-1.318555e+01
-1.552220e+01
-1.801913e+01
-2.065200e+01
-2.334962e+01
-2.594418e+01
-2.818029e+01
0.000000e+00
-3.529083e-01
-1.024148e+00
-1.933836e+00
-3.032390e+00
-4.295632e+00
-5.739141e+00
-7.359453e+00
-9.151801e+00
-1.112373e+01
-1.327515e+01
-1.559735e+01
-1.807161e+01
-2.065534e+01
-2.326077e+01
-2.574456e+01
-2.796147e+01
0.000000e+00
-3.897080e-01
-1.126223e+00
-2.045121e+00
-3.153374e+00
-4.421817e+00
-5.867670e+00
-7.489747e+00
-9.282706e+00
-1.125232e+01
-1.339560e+01
-1.570201e+01
-1.815363e+01
-2.069884e+01
-2.323839e+01
-2.565762e+01
-2.790659e+01
0.000000e+00
-5.935802e-01
-1.296045e+00
-2.225902e+00
-3.327835e+00
-4.596304e+00
-6.043967e+00
-7.662337e+00
-9.452541e+00
-1.141923e+01
-1.355486e+01
-1.584751e+01
-1.827404e+01
-2.077605e+01
-2.326205e+01
-2.564196e+01
-2.790649e+01


0.000000e+00
1.528029e-05
2.656136e-05
3.976526e-05
5.583246e-05
7.065908e-05
8.504098e-05
1.005975e-04
1.157714e-04
1.305994e-04
1.456125e-04
1.613010e-04
1.780203e-04
1.924999e-04
2.013146e-04
2.070688e-04
2.143504e-04
0.000000e+00
1.071039e-05
2.029899e-05
2.950372e-05
4.225214e-05
5.328445e-05
6.344836e-05
7.487373e-05
8.619117e-05
9.657485e-05
1.068329e-04
1.176527e-04
1.290281e-04
1.376332e-04
1.406264e-04
1.450807e-04
1.512346e-04
0.000000e+00
8.408376e-06
1.456703e-05
2.012129e-05
2.858476e-05
3.544316e-05
4.183626e-05
4.900502e-05
5.593434e-05
6.213506e-05
6.805908e-05
7.375951e-05
7.886748e-05
8.162730e-05
8.290788e-05
8.594595e-05
9.045199e-05
0.000000e+00
4.399879e-06
6.174941e-06
9.577848e-06
1.274698e-05
1.586386e-05
1.903215e-05
2.222819e-05
2.485437e-05
2.734645e-05
2.927104e-05
3.010453e-05
2.999126e-05
2.985354e-05
3.080566e-05
3.394784e-05
3.908576e-05
0.000000e+00
-3.055301e-08
-8.539906e-08
-1.685544e-07
-3.138914e-07
-5.146505e-07
-7.732731e-07
-1.165847e-06
-1.846469e-06
-2.917263e-06
-4.594377e-06
-6.811674e-06
-9.206447e-06
-1.102143e-05
-1.086721e-05
-8.629896e-06
-4.975065e-06
0.000000e+00
-4.438242e-06
-6.270733e-06
-9.857316e-06
-1.325849e-05
-1.664198e-05
-2.016411e-05
-2.387688e-05
-2.712567e-05
-3.072562e-05
-3.471670e-05
-3.893085e-05
-4.280279e-05
-4.553460e-05
-4.719962e-05
-4.756990e-05
-4.619230e-05
0.000000e+00
-8.324897e-06
-1.451530e-05
-2.027422e-05
-2.886760e-05
-3.576736e-05
-4.248178e-05
-4.992612e-05
-5.656530e-05
-6.239901e-05
-6.870644e-05
-7.480300e-05
-7.990681e-05
-8.375011e-05
-8.633185e-05
-8.785646e-05
-8.815932e-05
0.000000e+00
-1.059366e-05
-2.016681e-05
-2.951571e-05
-4.225582e-05
-5.311576e-05
-6.349543e-05
-7.522194e-05
-8.612183e-05
-9.598314e-05
-1.062916e-04
-1.159799e-04
-1.236018e-04
-1.288270e-04
-1.317225e-04
-1.328154e-04
-1.330306e-04
0.000000e+00
-1.523762e-05
-2.647024e-05
-3.969054e-05
-5.560085e-05
-7.009572e-05
-8.434503e-05
-9.992404e-05
-1.146650e-04
-1.292849e-04
-1.448768e-04
-1.593731e-04
-1.706855e-04
-1.773456e-04
-1.798941e-04
-1.802550e-04
-1.801773e-04
0.000000e+00
1.303380e-05
2.211525e-05
3.569610e-05
5.346147e-05
7.347389e-05
9.829820e-05
1.280883e-04
1.613897e-04
1.990225e-04
2.418399e-04
2.900816e-04
3.435001e-04
4.006742e-04
4.646615e-04
5.358078e-04
6.093277e-04
0.000000e+00
7.741607e-06
1.758099e-05
2.942486e-05
4.671115e-05
6.737285e-05
9.204948e-05
1.214530e-04
1.550286e-04
1.928653e-04
2.355747e-04
2.834027e-04
3.370837e-04
3.960353e-04
4.592817e-04
5.278360e-04
5.983964e-04
0.000000e+00
4.336253e-06
1.346018e-05
2.460677e-05
4.122571e-05
6.256314e-05
8.751594e-05
1.166610e-04
1.503229e-04
1.885420e-04
2.313067e-04
2.790699e-04
3.330456e-04
3.938872e-04
4.552318e-04
5.205338e-04
5.882873e-04
0.000000e+00
3.393786e-06
1.149465e-05
2.264770e-05
3.883921e-05
6.038848e-05
8.573812e-05
1.149285e-04
1.483762e-04
1.866333e-04
2.297896e-04
2.776995e-04
3.319952e-04
3.923781e-04
4.524385e-04
5.130182e-04
5.745967e-04
0.000000e+00
3.140072e-06
1.107206e-05
2.207195e-05
3.827422e-05
5.968931e-05
8.526752e-05
1.145600e-04
1.478993e-04
1.860819e-04
2.295070e-04
2.779671e-04
3.322857e-04
3.924004e-04
4.504492e-04
5.059001e-04
5.601404e-04
0.000000e+00
3.452378e-06
1.153890e-05
2.275161e-05
3.901151e-05
6.048618e-05
8.575941e-05
1.150796e-04
1.485646e-04
1.867500e-04
2.304647e-04
2.797215e-04
3.343584e-04
3.929798e-04
4.502146e-04
5.024501e-04
5.504926e-04
0.000000e+00
4.404443e-06
1.353795e-05
2.479469e-05
4.150044e-05
6.267610e-05
8.751875e-05
1.167808e-04
1.503931e-04
1.886604e-04
2.328000e-04
2.829406e-04
3.376754e-04
3.945786e-04
4.497624e-04
5.004628e-04
5.470150e-04
0.000000e+00
7.790147e-06
1.771405e-05
2.968514e-05
4.699597e-05
6.752493e-05
9.213899e-05
1.214969e-04
1.547858e-04
1.927832e-04
2.371464e-04
2.872991e-04
3.412842e-04
3.963503e-04
4.495484e-04
4.994460e-04
5.467457e-04
0.000000e+00
1.305963e-05
2.228683e-05
3.600358e-05
5.370689e-05
7.363982e-05
9.855602e-05
1.281903e-04
1.609801e-04
1.989272e-04
2.432907e-04
2.924040e-04
3.447186e-04
3.978533e-04
4.497251e-04
4.992144e-04
5.468558e-04


3.648272e+00
3.434308e+00
3.267151e+00
3.118490e+00
2.997310e+00
3.234370e+00
3.423793e+00
3.681014e+00
4.159426e+00
4.700178e+00
5.328346e+00
6.385010e+00
7.809556e+00
8.428587e+00
7.385894e+00
6.031036e+00
6.313616e+00
5.953183e+00
5.803266e+00
5.478622e+00
5.239151e+00
5.302192e+00
5.360841e+00
5.493490e+00
5.811981e+00
6.210052e+00
6.677724e+00
7.423108e+00
8.287795e+00
8.241082e+00
6.618607e+00
4.939563e+00
8.715359e+00
8.618013e+00
8.459290e+00
8.211315e+00
7.913996e+00
7.824442e+00
7.769705e+00
7.765721e+00
7.875465e+00
8.061512e+00
8.261032e+00
8.430947e+00
8.537073e+00
7.857584e+00
6.210013e+00
4.866141e+00
9.517289e+00
9.465293e+00
9.434946e+00
9.219014e+00
8.981424e+00
8.812131e+00
8.718920e+00
8.677832e+00
8.668178e+00
8.660403e+00
8.494778e+00
8.085142e+00
7.672741e+00
7.209589e+00
6.643900e+00
6.357512e+00
9.522609e+00
9.471853e+00
9.442032e+00
9.226002e+00
8.986578e+00
8.808571e+00
8.698301e+00
8.620188e+00
8.501847e+00
8.250176e+00
7.742066e+00
7.083347e+00
6.834154e+00
7.133878e+00
7.713307e+00
8.165171e+00
8.725720e+00
8.625625e+00
8.461656e+00
8.206392e+00
7.889625e+00
7.759516e+00
7.639873e+00
7.519360e+00
7.387454e+00
7.152559e+00
6.866105e+00
6.809909e+00
7.258755e+00
8.142188e+00
8.910223e+00
9.313320e+00
6.320936e+00
5.950183e+00
5.787102e+00
5.449192e+00
5.179977e+00
5.186956e+00
5.178588e+00
5.227450e+00
5.427351e+00
5.762895e+00
6.386144e+00
7.331977e+00
8.377402e+00
9.136461e+00
9.482435e+00
9.558443e+00
3.651780e+00
3.426976e+00
3.248353e+00
3.094224e+00
2.957171e+00
3.168366e+00
3.351774e+00
3.648820e+00
4.260185e+00
5.177057e+00
6.489310e+00
7.995844e+00
9.067374e+00
9.503259e+00
9.530284e+00
9.481224e+00


-6.836519e-01
-2.692059e-01
-2.802517e-01
-2.771032e-01
-1.687434e-01
-2.331868e-01
-2.243271e-01
-1.782367e-01
-2.082631e-01
-2.198048e-01
-1.874025e-01
-2.412312e-01
-4.187189e-01
-3.107349e-01
3.897358e-01
-7.984099e-01
5.919504e-01
4.215609e-01
3.024963e-01
2.325567e-01
2.791473e-01
2.274563e-01
2.198651e-01
2.374710e-01
2.140306e-01
2.086371e-01
2.512798e-01
3.035361e-01
3.972229e-01
6.658398e-01
7.152782e-01
-1.114857e+00
7.802215e-01
5.612676e-01
3.319064e-01
2.734753e-01
2.788489e-01
2.462447e-01
2.487439e-01
2.588870e-01
2.490310e-01
2.501101e-01
2.902986e-01
3.656858e-01
4.039756e-01
2.921208e-01
7.003105e-02
-2.593329e-01
7.913896e-01
6.150877e-01
3.624771e-01
2.464083e-01
1.986557e-01
1.729138e-01
1.768902e-01
1.898304e-01
1.953174e-01
1.976645e-01
2.122225e-01
2.149746e-01
8.872544e-02
-1.752227e-01
-2.031826e-01
1.039390e-02
7.930984e-01
6.172859e-01
3.656953e-01
2.481780e-01
1.969203e-01
1.650132e-01
1.593008e-01
1.592851e-01
1.509937e-01
1.350890e-01
1.124701e-01
6.532356e-02
-5.966711e-02
-1.696199e-01
-2.538620e-02
3.729190e-01
7.844324e-01
5.677129e-01
3.414336e-01
2.810781e-01
2.804289e-01
2.386492e-01
2.226010e-01
2.004838e-01
1.414765e-01
6.760484e-02
-2.137949e-03
-4.849343e-02
-6.026334e-02
3.955661e-02
3.445266e-01
7.462044e-01
5.945686e-01
4.258440e-01
3.075896e-01
2.342859e-01
2.747898e-01
2.160254e-01
1.914064e-01
1.778582e-01
1.122559e-01
4.569684e-02
8.241554e-03
2.709583e-02
1.561696e-01
4.108699e-01
7.291356e-01
9.522239e-01
-6.890541e-01
-2.717055e-01
-2.812024e-01
-2.797090e-01
-1.694562e-01
-2.225404e-01
-2.017120e-01
-1.427540e-01
-1.385835e-01
-1.064766e-01
-1.737758e-02
1.578381e-01
4.701632e-01
7.841275e-01
9.555965e-01
9.989460e-01
1 2 19 18
2 3 20 19
3 4 21 20
4 5 22 21
5 6 23 22
6 7 24 23
7 8 25 24
8 9 26 25
9 10 27 26
10 11 28 27
11 12 29 28
12 13 30 29
13 14 31 30
14 15 32 31
15 16 33 32
16 17 34 33
18 19 36 35
19 20 37 36
20 21 38 37
21 22 39 38
22 23 40 39
23 24 41 40
24 25 42 41
25 26 43 42
26 27 44 43
27 28 45 44
28 29 46 45
29 30 47 46
30 31 48 47
31 32 49 48
32 33 50 49
33 34 51 50
35 36 53 52
36 37 54 53
37 38 55 54
38 39 56 55
39 40 57 56
40 41 58 57
41 42 59 58
42 43 60 59
43 44 61 60
44 45 62 61
45 46 63 62
46 47 64 63
47 48 65 64
48 49 66 65
49 50 67 66
50 51 68 67
52 53 70 69
53 54 71 70
54 55 72 71
55 56 73 72
56 57 74 73
57 58 75 74
58 59 76 75
59 60 77 76
60 61 78 77
61 62 79 78
62 63 80 79
63 64 81 80
64 65 82 81
65 66 83 82
66 67 84 83
67 68 85 84
69 70 87 86
70 71 88 87
71 72 89 88
72 73 90 89
73 74 91 90
74 75 92 91
75 76 93 92
76 77 94 93
77 78 95 94
78 79 96 95
79 80 97 96
80 81 98 97
81 82 99 98
82 83 100 99
83 84 101 100
84 85 102 101
86 87 104 103
87 88 105 104
88 89 106 105
89 90 107 106
90 91 108 107
91 92 109 108
92 93 110 109
93 94 111 110
94 95 112 111
95 96 113 112
96 97 114 113
97 98 115 114
98 99 116 115
99 100 117 116
100 101 118 117
101 102 119 118
103 104 121 120
104 105 122 121
105 106 123 122
106 107 124 123
107 108 125 124
108 109 126 125
109 110 127 126
110 111 128 127
111 112 129 128
112 113 130 129
113 114 131 130
114 115 132 131
115 116 133 132
116 117 134 133
117 118 135 134
118 119 136 135
120 121 138 137
121 122 139 138
122 123 140 139
123 124 141 140
124 125 142 141
125 126 143 142
126 127 144 143
127 128 145 144
128 129 146 145
129 130 147 146
130 131 148 147
131 132 149 148
132 133 150 149
133 134 151 150
134 135 152 151
135 136 153 152
