TITLE = "Solution"
VARIABLES = x, y, u, v, psiu, psiv, t, stress
ZONE T="structure" N=153 E=128 F=FEBLOCK ET=QUADRILATERAL VARLOCATION=([7,8]=cellcentered)
0.000000e+00
1.250000e+01
2.500000e+01
3.750000e+01
5.000000e+01
6.250000e+01
7.500000e+01
8.750000e+01
1.000000e+02
1.125000e+02
1.250000e+02
1.375000e+02
1.500000e+02
1.625000e+02
1.750000e+02
1.875000e+02
2.000000e+02
0.000000e+00
1.250000e+01
2.500000e+01
3.750000e+01
5.000000e+01
6.250000e+01
7.500000e+01
8.750000e+01
1.000000e+02
1.125000e+02
1.250000e+02
1.375000e+02
1.500000e+02
1.625000e+02
1.750000e+02
1.875000e+02
2.000000e+02
0.000000e+00
1.250000e+01
2.500000e+01
3.750000e+01
5.000000e+01
6.250000e+01
7.500000e+01
8.750000e+01
1.000000e+02
1.125000e+02
1.250000e+02
1.375000e+02
1.500000e+02
1.625000e+02
1.750000e+02
1.875000e+02
2.000000e+02
0.000000e+00
1.250000e+01
2.500000e+01
3.750000e+01
5.000000e+01
6.250000e+01
7.500000e+01
8.750000e+01
1.000000e+02
1.125000e+02
1.250000e+02
1.375000e+02
1.500000e+02
1.625000e+02
1.750000e+02
1.875000e+02
2.000000e+02
0.000000e+00
1.250000e+01
2.500000e+01
3.750000e+01
5.000000e+01
6.250000e+01
7.500000e+01
8.750000e+01
1.000000e+02
1.125000e+02
1.250000e+02
1.375000e+02
1.500000e+02
1.625000e+02
1.750000e+02
1.875000e+02
2.000000e+02
0.000000e+00
1.250000e+01
2.500000e+01
3.750000e+01
5.000000e+01
6.250000e+01
7.500000e+01
8.750000e+01
1.000000e+02
1.125000e+02
1.250000e+02
1.375000e+02
1.500000e+02
1.625000e+02
1.750000e+02
1.875000e+02
2.000000e+02
0.000000e+00
1.250000e+01
2.500000e+01
3.750000e+01
5.000000e+01
6.250000e+01
7.500000e+01
8.750000e+01
1.000000e+02
1.125000e+02
1.250000e+02
1.375000e+02
1.500000e+02
1.625000e+02
1.750000e+02
1.875000e+02
2.000000e+02
0.000000e+00
1.250000e+01
2.500000e+01
3.750000e+01
5.000000e+01
6.250000e+01
7.500000e+01
8.750000e+01
1.000000e+02
1.125000e+02
1.250000e+02
1.375000e+02
1.500000e+02
1.625000e+02
1.750000e+02
1.875000e+02
2.000000e+02
0.000000e+00
1.250000e+01
2.500000e+01
3.750000e+01
5.000000e+01
6.250000e+01
7.500000e+01
8.750000e+01
1.000000e+02
1.125000e+02
1.250000e+02
1.375000e+02
1.500000e+02
1.625000e+02
1.750000e+02
1.875000e+02
2.000000e+02
0.000000e+00
0.000000e+00
0.000000e+00
0.000000e+00
0.000000e+00
0.000000e+00
0.000000e+00
0.000000e+00
0.000000e+00
0.000000e+00
0.000000e+00
0.000000e+00
0.000000e+00
0.000000e+00
0.000000e+00
0.000000e+00
0.000000e+00
1.250000e+01
1.250000e+01
1.250000e+01
1.250000e+01
1.250000e+01
1.250000e+01
1.250000e+01
1.250000e+01
1.250000e+01
1.250000e+01
1.250000e+01
1.250000e+01
1.250000e+01
1.250000e+01
1.250000e+01
1.250000e+01
1.250000e+01
2.500000e+01
2.500000e+01
2.500000e+01
2.500000e+01
2.500000e+01
2.500000e+01
2.500000e+01
2.500000e+01
2.500000e+01
2.500000e+01
2.500000e+01
2.500000e+01
2.500000e+01
2.500000e+01
2.500000e+01
2.500000e+01
2.500000e+01
3.750000e+01
3.750000e+01
3.750000e+01
3.750000e+01
3.750000e+01
3.750000e+01
3.750000e+01
3.750000e+01
3.750000e+01
3.750000e+01
3.750000e+01
3.750000e+01
3.750000e+01
3.750000e+01
3.750000e+01
3.750000e+01
3.750000e+01
5.000000e+01
5.000000e+01
5.000000e+01
5.000000e+01
5.000000e+01
5.000000e+01
5.000000e+01
5.000000e+01
5.000000e+01
5.000000e+01
5.000000e+01
5.000000e+01
5.000000e+01
5.000000e+01
5.000000e+01
5.000000e+01
5.000000e+01
6.250000e+01
6.250000e+01
6.250000e+01
6.250000e+01
6.250000e+01
6.250000e+01
6.250000e+01
6.250000e+01
6.250000e+01
6.250000e+01
6.250000e+01
6.250000e+01
6.250000e+01
6.250000e+01
6.250000e+01
6.250000e+01
6.250000e+01
7.500000e+01
7.500000e+01
7.500000e+01
7.500000e+01
7.500000e+01
7.500000e+01
7.500000e+01
7.500000e+01
7.500000e+01
7.500000e+01
7.500000e+01
7.500000e+01
7.500000e+01
7.500000e+01
7.500000e+01
7.500000e+01
7.500000e+01
8.750000e+01
8.750000e+01
8.750000e+01
8.750000e+01
8.750000e+01
8.750000e+01
8.750000e+01
8.750000e+01
8.750000e+01
8.750000e+01
8.750000e+01
8.750000e+01
8.750000e+01
8.750000e+01
8.750000e+01
8.750000e+01
8.750000e+01
1.000000e+02
1.000000e+02
1.000000e+02
1.000000e+02
1.000000e+02
1.000000e+02
1.000000e+02
1.000000e+02
1.000000e+02
1.000000e+02
1.000000e+02
1.000000e+02
1.000000e+02
1.000000e+02
1.000000e+02
1.000000e+02
1.000000e+02
0.000000e+00
-1.740224e-01
-3.204301e-01
-4.551463e-01
-5.806085e-01
-6.965511e-01
-8.027244e-01
-8.990451e-01
-9.856525e-01
-1.062945e+00
-1.131689e+00
-1.193227e+00
-1.249871e+00
-1.305613e+00
-1.367340e+00
-1.443148e+00
-1.500033e+00
0.000000e+00
-1.039219e-01
-2.158778e-01
-3.192637e-01
-4.145170e-01
-5.019990e-01
-5.818902e-01
-6.542970e-01
-7.193493e-01
-7.772470e-01
-8.282839e-01
-8.728275e-01
-9.111620e-01
-9.428926e-01
-9.652739e-01
-9.701795e-01
-9.877672e-01
0.000000e+00
-6.498901e-02
-1.336342e-01
-2.021196e-01
-2.660505e-01
-3.247498e-01
-3.781691e-01
-4.263683e-01
-4.693592e-01
-5.070695e-01
-5.392963e-01
-5.655891e-01
-5.850106e-01
-5.958522e-01
-5.961532e-01
-5.918222e-01
-6.097603e-01
0.000000e+00
-3.136749e-02
-6.457459e-02
-9.799230e-02
-1.299466e-01
-1.593794e-01
-1.860579e-01
-2.099042e-01
-2.307816e-01
-2.484184e-01
-2.623635e-01
-2.719588e-01
-2.764188e-01
-2.753768e-01
-2.710959e-01
-2.722666e-01
-2.856233e-01
0.000000e+00
-2.890554e-05
-6.571016e-05
-1.023941e-04
-1.218658e-04
-8.601170e-05
8.081950e-05
5.143750e-04
1.437367e-03
3.181536e-03
6.179688e-03
1.086661e-02
1.735979e-02
2.469741e-02
2.976603e-02
2.837591e-02
1.953253e-02
0.000000e+00
3.132302e-02
6.447133e-02
9.782714e-02
1.297412e-01
1.592123e-01
1.861226e-01
2.106037e-01
2.328675e-01
2.531721e-01
2.717828e-01
2.888373e-01
3.040393e-01
3.162295e-01
3.234005e-01
3.239693e-01
3.194807e-01
0.000000e+00
6.498171e-02
1.336120e-01
2.020753e-01
2.659814e-01
3.246636e-01
3.780977e-01
4.263915e-01
4.696448e-01
5.079343e-01
5.412931e-01
5.696395e-01
5.926475e-01
6.096581e-01
6.198682e-01
6.231835e-01
6.221368e-01
0.000000e+00
1.039645e-01
2.159705e-01
3.194115e-01
4.147152e-01
5.022111e-01
5.820093e-01
6.540792e-01
7.183108e-01
7.745180e-01
8.224340e-01
8.617271e-01
8.920830e-01
9.134012e-01
9.261180e-01
9.315410e-01
9.325370e-01
0.000000e+00
1.740937e-01
3.206182e-01
4.554986e-01
5.811712e-01
6.973427e-01
8.036687e-01
8.998391e-01
9.855317e-01
1.060300e+00
1.123497e+00
1.174277e+00
1.211809e+00
1.235795e+00
1.247396e+00
1.250259e+00
1.250204e+00
0.000000e+00
-1.053409e-01
-2.067983e-01
-3.382644e-01
-4.996127e-01
-6.905415e-01
-9.089603e-01
-1.152425e+00
-1.418347e+00
-1.704172e+00
-2.007540e+00
-2.326573e+00
-2.660502e+00
-3.011109e+00
-3.387491e+00
-3.818144e+00
-4.436924e+00
0.000000e+00
-6.484995e-02
-1.706865e-01
-3.037820e-01
-4.677663e-01
-6.612999e-01
-8.823644e-01
-1.128456e+00
-1.396955e+00
-1.685262e+00
-1.990951e+00
-2.312058e+00
-2.647695e+00
-2.999598e+00
-3.375833e+00
-3.803873e+00
-4.328271e+00
0.000000e+00
-4.893550e-02
-1.456521e-01
-2.792383e-01
-4.447723e-01
-6.402975e-01
-8.633935e-01
-1.111532e+00
-1.382113e+00
-1.672571e+00
-1.980530e+00
-2.304091e+00
-2.642451e+00
-2.997060e+00
-3.373619e+00
-3.779201e+00
-4.171717e+00
0.000000e+00
-4.216984e-02
-1.332053e-01
-2.648319e-01
-4.309639e-01
-6.276923e-01
-8.521791e-01
-1.101800e+00
-1.374003e+00
-1.666294e+00
-1.976345e+00
-2.302224e+00
-2.642745e+00
-2.997746e+00
-3.366771e+00
-3.739441e+00
-4.082755e+00
0.000000e+00
-4.022092e-02
-1.294384e-01
-2.602361e-01
-4.264133e-01
-6.236312e-01
-8.487634e-01
-1.099188e+00
-1.372401e+00
-1.665950e+00
-1.977455e+00
-2.304677e+00
-2.645501e+00
-2.997412e+00
-3.355143e+00
-3.706459e+00
-4.030106e+00
0.000000e+00
-4.214481e-02
-1.331875e-01
-2.648636e-01
-4.311197e-01
-6.281026e-01
-8.530567e-01
-1.103462e+00
-1.376868e+00
-1.670810e+00
-1.982755e+00
-2.309992e+00
-2.649357e+00
-2.996529e+00
-3.344840e+00
-3.684109e+00
-4.000847e+00
0.000000e+00
-4.889466e-02
-1.456225e-01
-2.792912e-01
-4.450347e-01
-6.409916e-01
-8.648814e-01
-1.114355e+00
-1.386985e+00
-1.680265e+00
-1.991492e+00
-2.317538e+00
-2.654476e+00
-2.997099e+00
-3.338656e+00
-3.671413e+00
-3.987942e+00
0.000000e+00
-6.481167e-02
-1.706608e-01
-3.038523e-01
-4.680814e-01
-6.621161e-01
-8.840963e-01
-1.131718e+00
-1.402552e+00
-1.694046e+00
-2.003384e+00
-2.327219e+00
-2.661285e+00
-3.000093e+00
-3.337108e+00
-3.666164e+00
-3.984912e+00
0.000000e+00
-1.053250e-01
-2.068005e-01
-3.383732e-01
-4.999779e-01
-6.914137e-01
-9.107326e-01
-1.155659e+00
-1.423738e+00
-1.712373e+00
-2.018680e+00
-2.339237e+00
-2.669750e+00
-3.004852e+00
-3.338424e+00
-3.665204e+00
-3.984960e+00


0.000000e+00
1.371915e-08
2.837086e-08
4.133612e-08
5.226915e-08
6.113685e-08
6.810702e-08
7.344434e-08
7.742900e-08
8.032948e-08
8.239145e-08
8.383553e-08
8.486294e-08
8.566023e-08
8.640262e-08
8.732083e-08
8.842459e-08
0.000000e+00
9.341568e-09
2.200179e-08
3.230126e-08
4.054660e-08
4.704985e-08
5.206056e-08
5.583148e-08
5.859578e-08
6.056069e-08
6.190547e-08
6.277829e-08
6.329076e-08
6.354236e-08
6.379775e-08
6.454842e-08
6.568479e-08
0.000000e+00
6.954808e-09
1.527856e-08
2.222517e-08
2.779770e-08
3.209235e-08
3.531909e-08
3.768643e-08
3.937174e-08
4.052140e-08
4.125514e-08
4.167073e-08
4.185525e-08
4.192637e-08
4.210665e-08
4.269569e-08
4.361570e-08
0.000000e+00
3.720048e-09
7.615555e-09
1.109020e-08
1.392888e-08
1.609547e-08
1.769275e-08
1.883750e-08
1.962639e-08
2.013639e-08
2.043173e-08
2.057301e-08
2.063029e-08
2.069339e-08
2.085253e-08
2.121036e-08
2.177609e-08
0.000000e+00
-4.078709e-12
-9.557604e-12
-1.714630e-11
-2.804186e-11
-4.386259e-11
-6.670678e-11
-9.899141e-11
-1.427911e-10
-1.982167e-10
-2.603801e-10
-3.149415e-10
-3.360355e-10
-2.982783e-10
-2.003175e-10
-2.798795e-11
2.664822e-10
0.000000e+00
-3.727062e-09
-7.631750e-09
-1.111917e-08
-1.397565e-08
-1.616731e-08
-1.779981e-08
-1.899338e-08
-1.984817e-08
-2.044305e-08
-2.083901e-08
-2.108196e-08
-2.120688e-08
-2.124806e-08
-2.124577e-08
-2.120326e-08
-2.107755e-08
0.000000e+00
-6.958445e-09
-1.528854e-08
-2.224360e-08
-2.782698e-08
-3.213507e-08
-3.537782e-08
-3.776379e-08
-3.947091e-08
-4.064794e-08
-4.142037e-08
-4.189575e-08
-4.216667e-08
-4.231173e-08
-4.238972e-08
-4.241645e-08
-4.238108e-08
0.000000e+00
-9.342878e-09
-2.200816e-08
-3.231255e-08
-4.056236e-08
-4.706844e-08
-5.207797e-08
-5.584047e-08
-5.858595e-08
-6.052045e-08
-6.182709e-08
-6.266733e-08
-6.317987e-08
-6.347745e-08
-6.364139e-08
-6.371607e-08
-6.372650e-08
0.000000e+00
-1.372519e-08
-2.838080e-08
-4.134732e-08
-5.227835e-08
-6.113829e-08
-6.809147e-08
-7.339837e-08
-7.733468e-08
-8.016479e-08
-8.212976e-08
-8.344127e-08
-8.427676e-08
-8.477583e-08
-8.503926e-08
-8.514008e-08
-8.515752e-08
0.000000e+00
1.246645e-08
2.239042e-08
3.279662e-08
4.528655e-08
5.998694e-08
7.659819e-08
9.473053e-08
1.140107e-07
1.341313e-07
1.548565e-07
1.760252e-07
1.975716e-07
2.196354e-07
2.428065e-07
2.673910e-07
2.922902e-07
0.000000e+00
6.699316e-09
1.640097e-08
2.751708e-08
4.096266e-08
5.658151e-08
7.399806e-08
9.279605e-08
1.126117e-07
1.331512e-07
1.541943e-07
1.755944e-07
1.972909e-07
2.193498e-07
2.420534e-07
2.659565e-07
2.904541e-07
0.000000e+00
3.301656e-09
1.170279e-08
2.339570e-08
3.762280e-08
5.399745e-08
7.205414e-08
9.137219e-08
1.116016e-07
1.324649e-07
1.537562e-07
1.753390e-07
1.971418e-07
2.191257e-07
2.413169e-07
2.644331e-07
2.882768e-07
0.000000e+00
1.880664e-09
9.489010e-09
2.123714e-08
3.587060e-08
5.266053e-08
7.106513e-08
9.066037e-08
1.111086e-07
1.321442e-07
1.535677e-07
1.752400e-07
1.970651e-07
2.189465e-07
2.408602e-07
2.633513e-07
2.863727e-07
0.000000e+00
1.520760e-09
8.886158e-09
2.058365e-08
3.533170e-08
5.225323e-08
7.076952e-08
9.045442e-08
1.109753e-07
1.320698e-07
1.535370e-07
1.752287e-07
1.970326e-07
2.188496e-07
2.406460e-07
2.627341e-07
2.850186e-07
0.000000e+00
1.883187e-09
9.492492e-09
2.124184e-08
3.587727e-08
5.267117e-08
7.108323e-08
9.069093e-08
1.111569e-07
1.322127e-07
1.536498e-07
1.753098e-07
1.970729e-07
2.188475e-07
2.405975e-07
2.624366e-07
2.842398e-07
0.000000e+00
3.305653e-09
1.170909e-08
2.340501e-08
3.763656e-08
5.401958e-08
7.209113e-08
9.143319e-08
1.116964e-07
1.325991e-07
1.539205e-07
1.754916e-07
1.971848e-07
2.189084e-07
2.406132e-07
2.623051e-07
2.838762e-07
0.000000e+00
6.704944e-09
1.641147e-08
2.753260e-08
4.098508e-08
5.661533e-08
7.405053e-08
9.287709e-08
1.127320e-07
1.333170e-07
1.543971e-07
1.757902e-07
1.973580e-07
2.189994e-07
2.406468e-07
2.622550e-07
2.837548e-07
0.000000e+00
1.247548e-08
2.240592e-08
3.281831e-08
4.531605e-08
6.002766e-08
7.665579e-08
9.481249e-08
1.141249e-07
1.342816e-07
1.550333e-07
1.761845e-07
1.975835e-07
2.191152e-07
2.406943e-07
2.622516e-07
2.837363e-07


5.084623e-01
5.084622e-01
5.084729e-01
5.084915e-01
5.085084e-01
5.085220e-01
5.085325e-01
5.085405e-01
5.085462e-01
5.085502e-01
5.085528e-01
5.085544e-01
5.085549e-01
5.085535e-01
5.085505e-01
5.085482e-01
5.084816e-01
5.084812e-01
5.084893e-01
5.085042e-01
5.085179e-01
5.085289e-01
5.085374e-01
5.085437e-01
5.085483e-01
5.085515e-01
5.085536e-01
5.085548e-01
5.085551e-01
5.085535e-01
5.085505e-01
5.085483e-01
5.085139e-01
5.085132e-01
5.085176e-01
5.085260e-01
5.085339e-01
5.085404e-01
5.085453e-01
5.085490e-01
5.085517e-01
5.085535e-01
5.085547e-01
5.085553e-01
5.085553e-01
5.085540e-01
5.085516e-01
5.085498e-01
5.085370e-01
5.085363e-01
5.085379e-01
5.085415e-01
5.085452e-01
5.085484e-01
5.085508e-01
5.085526e-01
5.085539e-01
5.085547e-01
5.085552e-01
5.085555e-01
5.085554e-01
5.085547e-01
5.085534e-01
5.085524e-01
5.085370e-01
5.085363e-01
5.085379e-01
5.085415e-01
5.085452e-01
5.085483e-01
5.085507e-01
5.085525e-01
5.085537e-01
5.085545e-01
5.085550e-01
5.085554e-01
5.085555e-01
5.085553e-01
5.085549e-01
5.085546e-01
5.085139e-01
5.085131e-01
5.085175e-01
5.085260e-01
5.085338e-01
5.085403e-01
5.085452e-01
5.085488e-01
5.085514e-01
5.085532e-01
5.085543e-01
5.085551e-01
5.085556e-01
5.085558e-01
5.085559e-01
5.085559e-01
5.084816e-01
5.084811e-01
5.084893e-01
5.085042e-01
5.085178e-01
5.085288e-01
5.085373e-01
5.085436e-01
5.085482e-01
5.085514e-01
5.085535e-01
5.085548e-01
5.085557e-01
5.085561e-01
5.085564e-01
5.085565e-01
5.084622e-01
5.084622e-01
5.084729e-01
5.084915e-01
5.085084e-01
5.085220e-01
5.085326e-01
5.085405e-01
5.085463e-01
5.085503e-01
5.085530e-01
5.085547e-01
5.085557e-01
5.085563e-01
5.085566e-01
5.085567e-01


9.318672e-01
9.415289e-01
9.504651e-01
9.573430e-01
9.637280e-01
9.696164e-01
9.749816e-01
9.797606e-01
9.839030e-01
9.873677e-01
9.901228e-01
9.921410e-01
9.933956e-01
9.938433e-01
9.941663e-01
9.742493e-01
9.742245e-01
9.697966e-01
9.726442e-01
9.763607e-01
9.798262e-01
9.829762e-01
9.858282e-01
9.884116e-01
9.907508e-01
9.928698e-01
9.947926e-01
9.965337e-01
9.980527e-01
9.990474e-01
9.965320e-01
9.624379e-01
9.910442e-01
9.885009e-01
9.878138e-01
9.887790e-01
9.900489e-01
9.912792e-01
9.924216e-01
9.935012e-01
9.945470e-01
9.955668e-01
9.965192e-01
9.972566e-01
9.974104e-01
9.960826e-01
9.912651e-01
9.826007e-01
9.981772e-01
9.963223e-01
9.951763e-01
9.948855e-01
9.950013e-01
9.951960e-01
9.953903e-01
9.955804e-01
9.957669e-01
9.959230e-01
9.959664e-01
9.957342e-01
9.949976e-01
9.936755e-01
9.925544e-01
9.922706e-01
9.981840e-01
9.963319e-01
9.951850e-01
9.948837e-01
9.949725e-01
9.951128e-01
9.952101e-01
9.952429e-01
9.951981e-01
9.950544e-01
9.947869e-01
9.944014e-01
9.940344e-01
9.941073e-01
9.951449e-01
9.969410e-01
9.910570e-01
9.885203e-01
9.878324e-01
9.887792e-01
9.899996e-01
9.911269e-01
9.920808e-01
9.928476e-01
9.934219e-01
9.938087e-01
9.940532e-01
9.942923e-01
9.947947e-01
9.958477e-01
9.974296e-01
9.990652e-01
9.742221e-01
9.697948e-01
9.726403e-01
9.763501e-01
9.797990e-01
9.829142e-01
9.856997e-01
9.881663e-01
9.903157e-01
9.921531e-01
9.937086e-01
9.950672e-01
9.963755e-01
9.977471e-01
9.990298e-01
9.998376e-01
9.318207e-01
9.414561e-01
9.503759e-01
9.572429e-01
9.636381e-01
9.695837e-01
9.750925e-01
9.801512e-01
9.847608e-01
9.889123e-01
9.925560e-01
9.955788e-01
9.978276e-01
9.992150e-01
9.998462e-01
9.999967e-01
1 2 19 18
2 3 20 19
3 4 21 20
4 5 22 21
5 6 23 22
6 7 24 23
7 8 25 24
8 9 26 25
9 10 27 26
10 11 28 27
11 12 29 28
12 13 30 29
13 14 31 30
14 15 32 31
15 16 33 32
16 17 34 33
18 19 36 35
19 20 37 36
20 21 38 37
21 22 39 38
22 23 40 39
23 24 41 40
24 25 42 41
25 26 43 42
26 27 44 43
27 28 45 44
28 29 46 45
29 30 47 46
30 31 48 47
31 32 49 48
32 33 50 49
33 34 51 50
35 36 53 52
36 37 54 53
37 38 55 54
38 39 56 55
39 40 57 56
40 41 58 57
41 42 59 58
42 43 60 59
43 44 61 60
44 45 62 61
45 46 63 62
46 47 64 63
47 48 65 64
48 49 66 65
49 50 67 66
50 51 68 67
52 53 70 69
53 54 71 70
54 55 72 71
55 56 73 72
56 57 74 73
57 58 75 74
58 59 76 75
59 60 77 76
60 61 78 77
61 62 79 78
62 63 80 79
63 64 81 80
64 65 82 81
65 66 83 82
66 67 84 83
67 68 85 84
69 70 87 86
70 71 88 87
71 72 89 88
72 73 90 89
73 74 91 90
74 75 92 91
75 76 93 92
76 77 94 93
77 78 95 94
78 79 96 95
79 80 97 96
80 81 98 97
81 82 99 98
82 83 100 99
83 84 101 100
84 85 102 101
86 87 104 103
87 88 105 104
88 89 106 105
89 90 107 106
90 91 108 107
91 92 109 108
92 93 110 109
93 94 111 110
94 95 112 111
95 96 113 112
96 97 114 113
97 98 115 114
98 99 116 115
99 100 117 116
100 101 118 117
101 102 119 118
103 104 121 120
104 105 122 121
105 106 123 122
106 107 124 123
107 108 125 124
108 109 126 125
109 110 127 126
110 111 128 127
111 112 129 128
112 113 130 129
113 114 131 130
114 115 132 131
115 116 133 132
116 117 134 133
117 118 135 134
118 119 136 135
120 121 138 137
121 122 139 138
122 123 140 139
123 124 141 140
124 125 142 141
125 126 143 142
126 127 144 143
127 128 145 144
128 129 146 145
129 130 147 146
130 131 148 147
131 132 149 148
132 133 150 149
133 134 151 150
134 135 152 151
135 136 153 152
