TITLE = "Solution"
VARIABLES = x, y, u, v, psiu, psiv, t, stress
ZONE T="structure" N=153 E=128 F=FEBLOCK ET=QUADRILATERAL VARLOCATION=([7,8]=cellcentered)
0.000000e+00
1.250000e+01
2.500000e+01
3.750000e+01
5.000000e+01
6.250000e+01
7.500000e+01
8.750000e+01
1.000000e+02
1.125000e+02
1.250000e+02
1.375000e+02
1.500000e+02
1.625000e+02
1.750000e+02
1.875000e+02
2.000000e+02
0.000000e+00
1.250000e+01
2.500000e+01
3.750000e+01
5.000000e+01
6.250000e+01
7.500000e+01
8.750000e+01
1.000000e+02
1.125000e+02
1.250000e+02
1.375000e+02
1.500000e+02
1.625000e+02
1.750000e+02
1.875000e+02
2.000000e+02
0.000000e+00
1.250000e+01
2.500000e+01
3.750000e+01
5.000000e+01
6.250000e+01
7.500000e+01
8.750000e+01
1.000000e+02
1.125000e+02
1.250000e+02
1.375000e+02
1.500000e+02
1.625000e+02
1.750000e+02
1.875000e+02
2.000000e+02
0.000000e+00
1.250000e+01
2.500000e+01
3.750000e+01
5.000000e+01
6.250000e+01
7.500000e+01
8.750000e+01
1.000000e+02
1.125000e+02
1.250000e+02
1.375000e+02
1.500000e+02
1.625000e+02
1.750000e+02
1.875000e+02
2.000000e+02
0.000000e+00
1.250000e+01
2.500000e+01
3.750000e+01
5.000000e+01
6.250000e+01
7.500000e+01
8.750000e+01
1.000000e+02
1.125000e+02
1.250000e+02
1.375000e+02
1.500000e+02
1.625000e+02
1.750000e+02
1.875000e+02
2.000000e+02
0.000000e+00
1.250000e+01
2.500000e+01
3.750000e+01
5.000000e+01
6.250000e+01
7.500000e+01
8.750000e+01
1.000000e+02
1.125000e+02
1.250000e+02
1.375000e+02
1.500000e+02
1.625000e+02
1.750000e+02
1.875000e+02
2.000000e+02
0.000000e+00
1.250000e+01
2.500000e+01
3.750000e+01
5.000000e+01
6.250000e+01
7.500000e+01
8.750000e+01
1.000000e+02
1.125000e+02
1.250000e+02
1.375000e+02
1.500000e+02
1.625000e+02
1.750000e+02
1.875000e+02
2.000000e+02
0.000000e+00
1.250000e+01
2.500000e+01
3.750000e+01
5.000000e+01
6.250000e+01
7.500000e+01
8.750000e+01
1.000000e+02
1.125000e+02
1.250000e+02
1.375000e+02
1.500000e+02
1.625000e+02
1.750000e+02
1.875000e+02
2.000000e+02
0.000000e+00
1.250000e+01
2.500000e+01
3.750000e+01
5.000000e+01
6.250000e+01
7.500000e+01
8.750000e+01
1.000000e+02
1.125000e+02
1.250000e+02
1.375000e+02
1.500000e+02
1.625000e+02
1.750000e+02
1.875000e+02
2.000000e+02
0.000000e+00
0.000000e+00
0.000000e+00
0.000000e+00
0.000000e+00
0.000000e+00
0.000000e+00
0.000000e+00
0.000000e+00
0.000000e+00
0.000000e+00
0.000000e+00
0.000000e+00
0.000000e+00
0.000000e+00
0.000000e+00
0.000000e+00
1.250000e+01
1.250000e+01
1.250000e+01
1.250000e+01
1.250000e+01
1.250000e+01
1.250000e+01
1.250000e+01
1.250000e+01
1.250000e+01
1.250000e+01
1.250000e+01
1.250000e+01
1.250000e+01
1.250000e+01
1.250000e+01
1.250000e+01
2.500000e+01
2.500000e+01
2.500000e+01
2.500000e+01
2.500000e+01
2.500000e+01
2.500000e+01
2.500000e+01
2.500000e+01
2.500000e+01
2.500000e+01
2.500000e+01
2.500000e+01
2.500000e+01
2.500000e+01
2.500000e+01
2.500000e+01
3.750000e+01
3.750000e+01
3.750000e+01
3.750000e+01
3.750000e+01
3.750000e+01
3.750000e+01
3.750000e+01
3.750000e+01
3.750000e+01
3.750000e+01
3.750000e+01
3.750000e+01
3.750000e+01
3.750000e+01
3.750000e+01
3.750000e+01
5.000000e+01
5.000000e+01
5.000000e+01
5.000000e+01
5.000000e+01
5.000000e+01
5.000000e+01
5.000000e+01
5.000000e+01
5.000000e+01
5.000000e+01
5.000000e+01
5.000000e+01
5.000000e+01
5.000000e+01
5.000000e+01
5.000000e+01
6.250000e+01
6.250000e+01
6.250000e+01
6.250000e+01
6.250000e+01
6.250000e+01
6.250000e+01
6.250000e+01
6.250000e+01
6.250000e+01
6.250000e+01
6.250000e+01
6.250000e+01
6.250000e+01
6.250000e+01
6.250000e+01
6.250000e+01
7.500000e+01
7.500000e+01
7.500000e+01
7.500000e+01
7.500000e+01
7.500000e+01
7.500000e+01
7.500000e+01
7.500000e+01
7.500000e+01
7.500000e+01
7.500000e+01
7.500000e+01
7.500000e+01
7.500000e+01
7.500000e+01
7.500000e+01
8.750000e+01
8.750000e+01
8.750000e+01
8.750000e+01
8.750000e+01
8.750000e+01
8.750000e+01
8.750000e+01
8.750000e+01
8.750000e+01
8.750000e+01
8.750000e+01
8.750000e+01
8.750000e+01
8.750000e+01
8.750000e+01
8.750000e+01
1.000000e+02
1.000000e+02
1.000000e+02
1.000000e+02
1.000000e+02
1.000000e+02
1.000000e+02
1.000000e+02
1.000000e+02
1.000000e+02
1.000000e+02
1.000000e+02
1.000000e+02
1.000000e+02
1.000000e+02
1.000000e+02
1.000000e+02
0.000000e+00
-3.379973e-01
-6.223471e-01
-8.840849e-01
-1.128014e+00
-1.353579e+00
-1.560244e+00
-1.747802e+00
-1.916494e+00
-2.067072e+00
-2.201012e+00
-2.320922e+00
-2.431299e+00
-2.539916e+00
-2.660182e+00
-2.807863e+00
-2.918671e+00
0.000000e+00
-2.017904e-01
-4.191951e-01
-6.200381e-01
-8.052191e-01
-9.754078e-01
-1.130912e+00
-1.271903e+00
-1.398610e+00
-1.511404e+00
-1.610844e+00
-1.697640e+00
-1.772340e+00
-1.834173e+00
-1.877783e+00
-1.887342e+00
-1.921604e+00
0.000000e+00
-1.261597e-01
-2.594420e-01
-3.924850e-01
-5.167693e-01
-6.309587e-01
-7.349325e-01
-8.287842e-01
-9.125188e-01
-9.859832e-01
-1.048773e+00
-1.100006e+00
-1.137852e+00
-1.158980e+00
-1.159569e+00
-1.151133e+00
-1.186079e+00
0.000000e+00
-6.088217e-02
-1.253530e-01
-1.902732e-01
-2.523940e-01
-3.096487e-01
-3.615730e-01
-4.080039e-01
-4.486661e-01
-4.830234e-01
-5.101930e-01
-5.288892e-01
-5.375800e-01
-5.355498e-01
-5.272082e-01
-5.294885e-01
-5.555116e-01
0.000000e+00
-5.661131e-05
-1.286148e-04
-2.003769e-04
-2.386017e-04
-1.690265e-04
1.557729e-04
1.000343e-03
2.798715e-03
6.197395e-03
1.203984e-02
2.117337e-02
3.382699e-02
4.812649e-02
5.800467e-02
5.529724e-02
3.806623e-02
0.000000e+00
6.079496e-02
1.251507e-01
1.899498e-01
2.519915e-01
3.093203e-01
3.616959e-01
4.093631e-01
4.527265e-01
4.922824e-01
5.285437e-01
5.617757e-01
5.913997e-01
6.151555e-01
6.291305e-01
6.302398e-01
6.214935e-01
0.000000e+00
1.261450e-01
2.593976e-01
3.923971e-01
5.166325e-01
6.307883e-01
7.347905e-01
8.288262e-01
9.130721e-01
9.876650e-01
1.052661e+00
1.107895e+00
1.152730e+00
1.185879e+00
1.205776e+00
1.212237e+00
1.210197e+00
0.000000e+00
2.018729e-01
4.193745e-01
6.203242e-01
8.056029e-01
9.758185e-01
1.131141e+00
1.271476e+00
1.396584e+00
1.506084e+00
1.599443e+00
1.676008e+00
1.735160e+00
1.776702e+00
1.801483e+00
1.812051e+00
1.813992e+00
0.000000e+00
3.381356e-01
6.227122e-01
8.847692e-01
1.129108e+00
1.355119e+00
1.562081e+00
1.749347e+00
1.916257e+00
2.061917e+00
2.185048e+00
2.283996e+00
2.357130e+00
2.403871e+00
2.426476e+00
2.432055e+00
2.431947e+00
0.000000e+00
-2.046132e-01
-4.017663e-01
-6.572783e-01
-9.709032e-01
-1.342067e+00
-1.766727e+00
-2.240147e+00
-2.757301e+00
-3.313225e+00
-3.903325e+00
-4.523948e+00
-5.173595e+00
-5.855739e+00
-6.588098e+00
-7.426182e+00
-8.630732e+00
0.000000e+00
-1.259719e-01
-3.316255e-01
-5.902639e-01
-9.089684e-01
-1.285165e+00
-1.714949e+00
-2.193467e+00
-2.715630e+00
-3.276382e+00
-3.871002e+00
-4.495664e+00
-5.148640e+00
-5.833310e+00
-6.565387e+00
-7.398383e+00
-8.419077e+00
0.000000e+00
-9.507764e-02
-2.830041e-01
-5.425706e-01
-8.642572e-01
-1.244301e+00
-1.678021e+00
-2.160512e+00
-2.686720e+00
-3.251659e+00
-3.850697e+00
-4.480140e+00
-5.138421e+00
-5.828365e+00
-6.561075e+00
-7.350322e+00
-8.114107e+00
0.000000e+00
-8.196319e-02
-2.588383e-01
-5.145797e-01
-8.374125e-01
-1.219781e+00
-1.656195e+00
-2.141564e+00
-2.670926e+00
-3.239430e+00
-3.842544e+00
-4.476502e+00
-5.138992e+00
-5.829700e+00
-6.547733e+00
-7.272863e+00
-7.940791e+00
0.000000e+00
-7.819056e-02
-2.515274e-01
-5.056519e-01
-8.285671e-01
-1.211884e+00
-1.649550e+00
-2.136480e+00
-2.667808e+00
-3.238762e+00
-3.844707e+00
-4.481281e+00
-5.144362e+00
-5.829049e+00
-6.525077e+00
-7.208602e+00
-7.838210e+00
0.000000e+00
-8.191436e-02
-2.588035e-01
-5.146415e-01
-8.377160e-01
-1.220581e+00
-1.657905e+00
-2.144802e+00
-2.676510e+00
-3.248231e+00
-3.855034e+00
-4.491639e+00
-5.151877e+00
-5.827330e+00
-6.505001e+00
-7.165051e+00
-7.781197e+00
0.000000e+00
-9.499799e-02
-2.829465e-01
-5.426736e-01
-8.647684e-01
-1.245653e+00
-1.680920e+00
-2.166011e+00
-2.696214e+00
-3.266650e+00
-3.872057e+00
-4.506342e+00
-5.161851e+00
-5.828439e+00
-6.492951e+00
-7.140313e+00
-7.756049e+00
0.000000e+00
-1.258972e-01
-3.315753e-01
-5.904007e-01
-9.095821e-01
-1.286755e+00
-1.718323e+00
-2.199822e+00
-2.726535e+00
-3.293497e+00
-3.895228e+00
-4.525204e+00
-5.175119e+00
-5.834275e+00
-6.489933e+00
-7.130084e+00
-7.750146e+00
0.000000e+00
-2.045821e-01
-4.017702e-01
-6.574898e-01
-9.716144e-01
-1.343766e+00
-1.770180e+00
-2.246447e+00
-2.767805e+00
-3.329202e+00
-3.925031e+00
-4.548623e+00
-5.191616e+00
-5.843547e+00
-6.492497e+00
-7.128212e+00
-7.750238e+00


0.000000e+00
1.421833e-07
2.941833e-07
4.279937e-07
5.398246e-07
6.295591e-07
6.992556e-07
7.519584e-07
7.908060e-07
8.187324e-07
8.383521e-07
8.519479e-07
8.615454e-07
8.689849e-07
8.759665e-07
8.847203e-07
8.953387e-07
0.000000e+00
9.758783e-08
2.291997e-07
3.354023e-07
4.195102e-07
4.850251e-07
5.348343e-07
5.718094e-07
5.985484e-07
6.173089e-07
6.299952e-07
6.381397e-07
6.428673e-07
6.451363e-07
6.474638e-07
6.546024e-07
6.655235e-07
0.000000e+00
7.275193e-08
1.591098e-07
2.306274e-07
2.874221e-07
3.306446e-07
3.626745e-07
3.858391e-07
4.020957e-07
4.130324e-07
4.199200e-07
4.237654e-07
4.254309e-07
4.260395e-07
4.277048e-07
4.333135e-07
4.421340e-07
0.000000e+00
3.874579e-08
7.895450e-08
1.147163e-07
1.436974e-07
1.655791e-07
1.815100e-07
1.927748e-07
2.004328e-07
2.053174e-07
2.081083e-07
2.094222e-07
2.099449e-07
2.105347e-07
2.120401e-07
2.154334e-07
2.208175e-07
0.000000e+00
-4.370520e-11
-1.004219e-10
-1.767605e-10
-2.836967e-10
-4.364192e-10
-6.543538e-10
-9.597666e-10
-1.371396e-09
-1.889197e-09
-2.465718e-09
-2.965047e-09
-3.142758e-09
-2.762348e-09
-1.824867e-09
-2.070357e-10
2.562909e-09
0.000000e+00
-3.882146e-08
-7.912684e-08
-1.150192e-07
-1.441782e-07
-1.663050e-07
-1.825742e-07
-1.943020e-07
-2.025787e-07
-2.082540e-07
-2.119760e-07
-2.142228e-07
-2.153511e-07
-2.157003e-07
-2.156636e-07
-2.152724e-07
-2.141016e-07
0.000000e+00
-7.279347e-08
-1.592219e-07
-2.308318e-07
-2.877425e-07
-3.311037e-07
-3.632931e-07
-3.866352e-07
-4.030920e-07
-4.142746e-07
-4.215107e-07
-4.259044e-07
-4.283781e-07
-4.296935e-07
-4.304075e-07
-4.306594e-07
-4.303321e-07
0.000000e+00
-9.760404e-08
-2.292758e-07
-3.355390e-07
-4.197054e-07
-4.852613e-07
-5.350677e-07
-5.719629e-07
-5.985152e-07
-6.169747e-07
-6.292897e-07
-6.371250e-07
-6.418686e-07
-6.446144e-07
-6.461314e-07
-6.468261e-07
-6.469238e-07
0.000000e+00
-1.422470e-07
-2.942928e-07
-4.281271e-07
-5.399511e-07
-6.296228e-07
-6.991644e-07
-7.515785e-07
-7.899637e-07
-8.172199e-07
-8.359269e-07
-8.482887e-07
-8.561050e-07
-8.607537e-07
-8.632050e-07
-8.641436e-07
-8.643057e-07
0.000000e+00
1.291854e-07
2.309811e-07
3.372730e-07
4.648525e-07
6.150231e-07
7.846134e-07
9.695256e-07
1.165880e-06
1.370519e-06
1.581049e-06
1.795844e-06
2.014222e-06
2.237478e-06
2.471304e-06
2.718807e-06
2.969452e-06
0.000000e+00
6.902412e-08
1.687774e-07
2.828933e-07
4.207929e-07
5.807484e-07
7.587891e-07
9.505722e-07
1.152356e-06
1.361165e-06
1.574803e-06
1.791824e-06
2.011627e-06
2.234832e-06
2.464145e-06
2.705027e-06
2.951759e-06
0.000000e+00
3.365467e-08
1.201924e-07
2.406609e-07
3.869340e-07
5.548766e-07
7.395842e-07
9.366957e-07
1.142643e-06
1.354651e-06
1.570697e-06
1.789464e-06
2.010273e-06
2.232758e-06
2.457143e-06
2.690420e-06
2.930834e-06
0.000000e+00
1.909568e-08
9.754194e-08
2.186920e-07
3.692585e-07
5.415367e-07
7.298352e-07
9.297683e-07
1.137907e-06
1.351610e-06
1.568935e-06
1.788555e-06
2.009571e-06
2.231077e-06
2.452831e-06
2.680125e-06
2.912642e-06
0.000000e+00
1.546827e-08
9.142478e-08
2.120472e-07
3.638132e-07
5.374559e-07
7.269044e-07
9.277491e-07
1.136615e-06
1.350897e-06
1.568644e-06
1.788449e-06
2.009261e-06
2.230161e-06
2.450846e-06
2.674338e-06
2.899810e-06
0.000000e+00
1.911946e-08
9.757294e-08
2.187323e-07
3.693159e-07
5.416313e-07
7.300022e-07
9.300554e-07
1.138363e-06
1.352256e-06
1.569703e-06
1.789199e-06
2.009622e-06
2.230134e-06
2.450424e-06
2.671593e-06
2.892482e-06
0.000000e+00
3.369273e-08
1.202497e-07
2.407438e-07
3.870573e-07
5.550790e-07
7.399303e-07
9.372726e-07
1.143541e-06
1.355918e-06
1.572239e-06
1.790881e-06
2.010647e-06
2.230694e-06
2.450585e-06
2.670385e-06
2.889077e-06
0.000000e+00
6.908014e-08
1.688798e-07
2.830415e-07
4.210052e-07
5.810681e-07
7.592867e-07
9.513412e-07
1.153494e-06
1.362728e-06
1.576704e-06
1.793648e-06
2.012239e-06
2.231531e-06
2.450900e-06
2.669923e-06
2.887944e-06
0.000000e+00
1.292798e-07
2.311392e-07
3.374901e-07
4.651423e-07
6.154172e-07
7.851642e-07
9.703028e-07
1.166956e-06
1.371929e-06
1.582700e-06
1.797327e-06
2.014329e-06
2.232603e-06
2.451341e-06
2.669891e-06
2.887770e-06


9.868820e-01
9.868738e-01
9.873651e-01
9.882295e-01
9.890163e-01
9.896363e-01
9.901027e-01
9.904399e-01
9.906734e-01
9.908277e-01
9.909232e-01
9.909744e-01
9.909792e-01
9.909000e-01
9.907480e-01
9.906349e-01
9.877273e-01
9.877098e-01
9.880894e-01
9.887867e-01
9.894252e-01
9.899267e-01
9.903027e-01
9.905729e-01
9.907590e-01
9.908810e-01
9.909552e-01
9.909927e-01
9.909888e-01
9.909042e-01
9.907536e-01
9.906432e-01
9.891541e-01
9.891253e-01
9.893392e-01
9.897427e-01
9.901144e-01
9.904100e-01
9.906302e-01
9.907865e-01
9.908925e-01
9.909603e-01
9.909994e-01
9.910157e-01
9.910035e-01
9.909307e-01
9.908079e-01
9.907213e-01
9.901761e-01
9.901531e-01
9.902425e-01
9.904212e-01
9.905992e-01
9.907450e-01
9.908532e-01
9.909283e-01
9.909774e-01
9.910069e-01
9.910217e-01
9.910250e-01
9.910133e-01
9.909684e-01
9.908962e-01
9.908462e-01
9.901756e-01
9.901525e-01
9.902416e-01
9.904200e-01
9.905974e-01
9.907426e-01
9.908499e-01
9.909240e-01
9.909721e-01
9.910011e-01
9.910162e-01
9.910217e-01
9.910180e-01
9.909989e-01
9.909679e-01
9.909468e-01
9.891523e-01
9.891231e-01
9.893366e-01
9.897395e-01
9.901104e-01
9.904049e-01
9.906237e-01
9.907785e-01
9.908829e-01
9.909496e-01
9.909894e-01
9.910109e-01
9.910199e-01
9.910184e-01
9.910104e-01
9.910045e-01
9.877240e-01
9.877061e-01
9.880853e-01
9.887826e-01
9.894211e-01
9.899228e-01
9.902990e-01
9.905694e-01
9.907554e-01
9.908774e-01
9.909526e-01
9.909959e-01
9.910184e-01
9.910280e-01
9.910305e-01
9.910308e-01
9.868779e-01
9.868692e-01
9.873604e-01
9.882253e-01
9.890131e-01
9.896346e-01
9.901030e-01
9.904422e-01
9.906774e-01
9.908329e-01
9.909300e-01
9.909865e-01
9.910168e-01
9.910314e-01
9.910376e-01
9.910399e-01


7.430276e-01
7.794676e-01
8.130312e-01
8.387622e-01
8.627165e-01
8.848840e-01
9.051378e-01
9.232152e-01
9.389069e-01
9.520442e-01
9.624975e-01
9.701585e-01
9.749230e-01
9.766273e-01
9.778604e-01
9.022889e-01
9.028256e-01
8.860961e-01
8.967446e-01
9.106447e-01
9.236428e-01
9.354984e-01
9.462624e-01
9.560338e-01
9.648955e-01
9.729313e-01
9.802275e-01
9.868372e-01
9.926050e-01
9.963828e-01
9.868384e-01
8.574618e-01
9.662387e-01
9.566191e-01
9.539787e-01
9.575688e-01
9.623257e-01
9.669514e-01
9.712596e-01
9.753411e-01
9.793020e-01
9.831691e-01
9.867830e-01
9.895823e-01
9.901669e-01
9.851269e-01
9.668441e-01
9.339622e-01
9.931146e-01
9.861006e-01
9.817577e-01
9.806419e-01
9.810640e-01
9.817877e-01
9.825141e-01
9.832279e-01
9.839310e-01
9.845209e-01
9.846843e-01
9.838019e-01
9.810049e-01
9.759862e-01
9.717324e-01
9.706569e-01
9.931405e-01
9.861374e-01
9.817906e-01
9.806352e-01
9.809548e-01
9.814722e-01
9.818305e-01
9.819471e-01
9.817717e-01
9.812231e-01
9.802055e-01
9.787407e-01
9.773467e-01
9.776242e-01
9.815649e-01
9.883851e-01
9.662875e-01
9.566929e-01
9.540495e-01
9.575698e-01
9.621390e-01
9.663739e-01
9.699667e-01
9.728608e-01
9.750312e-01
9.764941e-01
9.774197e-01
9.783262e-01
9.802333e-01
9.842323e-01
9.902394e-01
9.964504e-01
9.028171e-01
8.860899e-01
8.967306e-01
9.106050e-01
9.235402e-01
9.352633e-01
9.457750e-01
9.551029e-01
9.632437e-01
9.702101e-01
9.761119e-01
9.812688e-01
9.862362e-01
9.914449e-01
9.963157e-01
9.993834e-01
7.428527e-01
7.791935e-01
8.126947e-01
8.383841e-01
8.623761e-01
8.847602e-01
9.055581e-01
9.246972e-01
9.421630e-01
9.579084e-01
9.717367e-01
9.832123e-01
9.917508e-01
9.970191e-01
9.994158e-01
9.999876e-01
1 2 19 18
2 3 20 19
3 4 21 20
4 5 22 21
5 6 23 22
6 7 24 23
7 8 25 24
8 9 26 25
9 10 27 26
10 11 28 27
11 12 29 28
12 13 30 29
13 14 31 30
14 15 32 31
15 16 33 32
16 17 34 33
18 19 36 35
19 20 37 36
20 21 38 37
21 22 39 38
22 23 40 39
23 24 41 40
24 25 42 41
25 26 43 42
26 27 44 43
27 28 45 44
28 29 46 45
29 30 47 46
30 31 48 47
31 32 49 48
32 33 50 49
33 34 51 50
35 36 53 52
36 37 54 53
37 38 55 54
38 39 56 55
39 40 57 56
40 41 58 57
41 42 59 58
42 43 60 59
43 44 61 60
44 45 62 61
45 46 63 62
46 47 64 63
47 48 65 64
48 49 66 65
49 50 67 66
50 51 68 67
52 53 70 69
53 54 71 70
54 55 72 71
55 56 73 72
56 57 74 73
57 58 75 74
58 59 76 75
59 60 77 76
60 61 78 77
61 62 79 78
62 63 80 79
63 64 81 80
64 65 82 81
65 66 83 82
66 67 84 83
67 68 85 84
69 70 87 86
70 71 88 87
71 72 89 88
72 73 90 89
73 74 91 90
74 75 92 91
75 76 93 92
76 77 94 93
77 78 95 94
78 79 96 95
79 80 97 96
80 81 98 97
81 82 99 98
82 83 100 99
83 84 101 100
84 85 102 101
86 87 104 103
87 88 105 104
88 89 106 105
89 90 107 106
90 91 108 107
91 92 109 108
92 93 110 109
93 94 111 110
94 95 112 111
95 96 113 112
96 97 114 113
97 98 115 114
98 99 116 115
99 100 117 116
100 101 118 117
101 102 119 118
103 104 121 120
104 105 122 121
105 106 123 122
106 107 124 123
107 108 125 124
108 109 126 125
109 110 127 126
110 111 128 127
111 112 129 128
112 113 130 129
113 114 131 130
114 115 132 131
115 116 133 132
116 117 134 133
117 118 135 134
118 119 136 135
120 121 138 137
121 122 139 138
122 123 140 139
123 124 141 140
124 125 142 141
125 126 143 142
126 127 144 143
127 128 145 144
128 129 146 145
129 130 147 146
130 131 148 147
131 132 149 148
132 133 150 149
133 134 151 150
134 135 152 151
135 136 153 152
