TITLE = "Solution"
VARIABLES = x, y, u, v, psiu, psiv, t, stress
ZONE T="structure" N=153 E=128 F=FEBLOCK ET=QUADRILATERAL VARLOCATION=([7,8]=cellcentered)
0.000000e+00
1.250000e+01
2.500000e+01
3.750000e+01
5.000000e+01
6.250000e+01
7.500000e+01
8.750000e+01
1.000000e+02
1.125000e+02
1.250000e+02
1.375000e+02
1.500000e+02
1.625000e+02
1.750000e+02
1.875000e+02
2.000000e+02
0.000000e+00
1.250000e+01
2.500000e+01
3.750000e+01
5.000000e+01
6.250000e+01
7.500000e+01
8.750000e+01
1.000000e+02
1.125000e+02
1.250000e+02
1.375000e+02
1.500000e+02
1.625000e+02
1.750000e+02
1.875000e+02
2.000000e+02
0.000000e+00
1.250000e+01
2.500000e+01
3.750000e+01
5.000000e+01
6.250000e+01
7.500000e+01
8.750000e+01
1.000000e+02
1.125000e+02
1.250000e+02
1.375000e+02
1.500000e+02
1.625000e+02
1.750000e+02
1.875000e+02
2.000000e+02
0.000000e+00
1.250000e+01
2.500000e+01
3.750000e+01
5.000000e+01
6.250000e+01
7.500000e+01
8.750000e+01
1.000000e+02
1.125000e+02
1.250000e+02
1.375000e+02
1.500000e+02
1.625000e+02
1.750000e+02
1.875000e+02
2.000000e+02
0.000000e+00
1.250000e+01
2.500000e+01
3.750000e+01
5.000000e+01
6.250000e+01
7.500000e+01
8.750000e+01
1.000000e+02
1.125000e+02
1.250000e+02
1.375000e+02
1.500000e+02
1.625000e+02
1.750000e+02
1.875000e+02
2.000000e+02
0.000000e+00
1.250000e+01
2.500000e+01
3.750000e+01
5.000000e+01
6.250000e+01
7.500000e+01
8.750000e+01
1.000000e+02
1.125000e+02
1.250000e+02
1.375000e+02
1.500000e+02
1.625000e+02
1.750000e+02
1.875000e+02
2.000000e+02
0.000000e+00
1.250000e+01
2.500000e+01
3.750000e+01
5.000000e+01
6.250000e+01
7.500000e+01
8.750000e+01
1.000000e+02
1.125000e+02
1.250000e+02
1.375000e+02
1.500000e+02
1.625000e+02
1.750000e+02
1.875000e+02
2.000000e+02
0.000000e+00
1.250000e+01
2.500000e+01
3.750000e+01
5.000000e+01
6.250000e+01
7.500000e+01
8.750000e+01
1.000000e+02
1.125000e+02
1.250000e+02
1.375000e+02
1.500000e+02
1.625000e+02
1.750000e+02
1.875000e+02
2.000000e+02
0.000000e+00
1.250000e+01
2.500000e+01
3.750000e+01
5.000000e+01
6.250000e+01
7.500000e+01
8.750000e+01
1.000000e+02
1.125000e+02
1.250000e+02
1.375000e+02
1.500000e+02
1.625000e+02
1.750000e+02
1.875000e+02
2.000000e+02
0.000000e+00
0.000000e+00
0.000000e+00
0.000000e+00
0.000000e+00
0.000000e+00
0.000000e+00
0.000000e+00
0.000000e+00
0.000000e+00
0.000000e+00
0.000000e+00
0.000000e+00
0.000000e+00
0.000000e+00
0.000000e+00
0.000000e+00
1.250000e+01
1.250000e+01
1.250000e+01
1.250000e+01
1.250000e+01
1.250000e+01
1.250000e+01
1.250000e+01
1.250000e+01
1.250000e+01
1.250000e+01
1.250000e+01
1.250000e+01
1.250000e+01
1.250000e+01
1.250000e+01
1.250000e+01
2.500000e+01
2.500000e+01
2.500000e+01
2.500000e+01
2.500000e+01
2.500000e+01
2.500000e+01
2.500000e+01
2.500000e+01
2.500000e+01
2.500000e+01
2.500000e+01
2.500000e+01
2.500000e+01
2.500000e+01
2.500000e+01
2.500000e+01
3.750000e+01
3.750000e+01
3.750000e+01
3.750000e+01
3.750000e+01
3.750000e+01
3.750000e+01
3.750000e+01
3.750000e+01
3.750000e+01
3.750000e+01
3.750000e+01
3.750000e+01
3.750000e+01
3.750000e+01
3.750000e+01
3.750000e+01
5.000000e+01
5.000000e+01
5.000000e+01
5.000000e+01
5.000000e+01
5.000000e+01
5.000000e+01
5.000000e+01
5.000000e+01
5.000000e+01
5.000000e+01
5.000000e+01
5.000000e+01
5.000000e+01
5.000000e+01
5.000000e+01
5.000000e+01
6.250000e+01
6.250000e+01
6.250000e+01
6.250000e+01
6.250000e+01
6.250000e+01
6.250000e+01
6.250000e+01
6.250000e+01
6.250000e+01
6.250000e+01
6.250000e+01
6.250000e+01
6.250000e+01
6.250000e+01
6.250000e+01
6.250000e+01
7.500000e+01
7.500000e+01
7.500000e+01
7.500000e+01
7.500000e+01
7.500000e+01
7.500000e+01
7.500000e+01
7.500000e+01
7.500000e+01
7.500000e+01
7.500000e+01
7.500000e+01
7.500000e+01
7.500000e+01
7.500000e+01
7.500000e+01
8.750000e+01
8.750000e+01
8.750000e+01
8.750000e+01
8.750000e+01
8.750000e+01
8.750000e+01
8.750000e+01
8.750000e+01
8.750000e+01
8.750000e+01
8.750000e+01
8.750000e+01
8.750000e+01
8.750000e+01
8.750000e+01
8.750000e+01
1.000000e+02
1.000000e+02
1.000000e+02
1.000000e+02
1.000000e+02
1.000000e+02
1.000000e+02
1.000000e+02
1.000000e+02
1.000000e+02
1.000000e+02
1.000000e+02
1.000000e+02
1.000000e+02
1.000000e+02
1.000000e+02
1.000000e+02
0.000000e+00
-7.205109e-02
-1.326689e-01
-1.884452e-01
-2.403884e-01
-2.883891e-01
-3.323442e-01
-3.722197e-01
-4.080736e-01
-4.400710e-01
-4.685291e-01
-4.940042e-01
-5.174531e-01
-5.405288e-01
-5.660821e-01
-5.974648e-01
-6.210141e-01
0.000000e+00
-4.302764e-02
-8.938156e-02
-1.321864e-01
-1.716229e-01
-2.078408e-01
-2.409153e-01
-2.708908e-01
-2.978212e-01
-3.217896e-01
-3.429176e-01
-3.613574e-01
-3.772268e-01
-3.903623e-01
-3.996276e-01
-4.016583e-01
-4.089392e-01
0.000000e+00
-2.690827e-02
-5.533012e-02
-8.368512e-02
-1.101536e-01
-1.344554e-01
-1.565707e-01
-1.765246e-01
-1.943221e-01
-2.099333e-01
-2.232744e-01
-2.341589e-01
-2.421989e-01
-2.466869e-01
-2.468115e-01
-2.450186e-01
-2.524445e-01
0.000000e+00
-1.298759e-02
-2.673670e-02
-4.057263e-02
-5.380228e-02
-6.598760e-02
-7.703239e-02
-8.690448e-02
-9.554737e-02
-1.028486e-01
-1.086215e-01
-1.125937e-01
-1.144400e-01
-1.140087e-01
-1.122365e-01
-1.127212e-01
-1.182505e-01
0.000000e+00
-1.196398e-05
-2.719788e-05
-4.238176e-05
-5.044010e-05
-3.559486e-05
3.347140e-05
2.129540e-04
5.950487e-04
1.317087e-03
2.558235e-03
4.498483e-03
7.186465e-03
1.022402e-02
1.232227e-02
1.174679e-02
8.085866e-03
0.000000e+00
1.296919e-02
2.669396e-02
4.050427e-02
5.371725e-02
6.591844e-02
7.705922e-02
8.719407e-02
9.641088e-02
1.048165e-01
1.125209e-01
1.195810e-01
1.258742e-01
1.309206e-01
1.338891e-01
1.341246e-01
1.322664e-01
0.000000e+00
2.690525e-02
5.532091e-02
8.366680e-02
1.101250e-01
1.344198e-01
1.565412e-01
1.765342e-01
1.944403e-01
2.102913e-01
2.241010e-01
2.358357e-01
2.453603e-01
2.524022e-01
2.566289e-01
2.580013e-01
2.575680e-01
0.000000e+00
4.304530e-02
8.941994e-02
1.322476e-01
1.717049e-01
2.079286e-01
2.409646e-01
2.708007e-01
2.973914e-01
3.206599e-01
3.404959e-01
3.567622e-01
3.693287e-01
3.781538e-01
3.834181e-01
3.856631e-01
3.860754e-01
0.000000e+00
7.208061e-02
1.327468e-01
1.885910e-01
2.406214e-01
2.887168e-01
3.327351e-01
3.725484e-01
4.080236e-01
4.389761e-01
4.651377e-01
4.861597e-01
5.016966e-01
5.116264e-01
5.164285e-01
5.176138e-01
5.175910e-01
0.000000e+00
-4.361451e-02
-8.562034e-02
-1.400501e-01
-2.068514e-01
-2.858992e-01
-3.763279e-01
-4.771253e-01
-5.872197e-01
-7.055535e-01
-8.311497e-01
-9.632308e-01
-1.101478e+00
-1.246630e+00
-1.402452e+00
-1.580741e+00
-1.836910e+00
0.000000e+00
-2.684989e-02
-7.066887e-02
-1.257736e-01
-1.936667e-01
-2.737932e-01
-3.653174e-01
-4.672023e-01
-5.783638e-01
-6.977251e-01
-8.242822e-01
-9.572221e-01
-1.096177e+00
-1.241865e+00
-1.397626e+00
-1.574833e+00
-1.791931e+00
0.000000e+00
-2.026062e-02
-6.030376e-02
-1.156119e-01
-1.841468e-01
-2.650982e-01
-3.574636e-01
-4.601963e-01
-5.722194e-01
-6.924715e-01
-8.199681e-01
-9.539239e-01
-1.094006e+00
-1.240814e+00
-1.396710e+00
-1.564620e+00
-1.727121e+00
0.000000e+00
-1.745915e-02
-5.515028e-02
-1.096472e-01
-1.784299e-01
-2.598795e-01
-3.528208e-01
-4.561672e-01
-5.688620e-01
-6.898726e-01
-8.182358e-01
-9.531511e-01
-1.094127e+00
-1.241098e+00
-1.393875e+00
-1.548160e+00
-1.690293e+00
0.000000e+00
-1.665211e-02
-5.359059e-02
-1.077445e-01
-1.765459e-01
-2.581982e-01
-3.514067e-01
-4.550858e-01
-5.681988e-01
-6.897302e-01
-8.186951e-01
-9.541663e-01
-1.095268e+00
-1.240960e+00
-1.389061e+00
-1.534506e+00
-1.668498e+00
0.000000e+00
-1.744879e-02
-5.514290e-02
-1.096604e-01
-1.784944e-01
-2.600494e-01
-3.531841e-01
-4.568552e-01
-5.700483e-01
-6.917424e-01
-8.208892e-01
-9.563668e-01
-1.096865e+00
-1.240595e+00
-1.384796e+00
-1.525254e+00
-1.656385e+00
0.000000e+00
-2.024372e-02
-6.029154e-02
-1.156338e-01
-1.842555e-01
-2.653855e-01
-3.580795e-01
-4.613646e-01
-5.742364e-01
-6.956566e-01
-8.245061e-01
-9.594905e-01
-1.098984e+00
-1.240830e+00
-1.382236e+00
-1.519999e+00
-1.651043e+00
0.000000e+00
-2.683404e-02
-7.065823e-02
-1.258027e-01
-1.937971e-01
-2.741311e-01
-3.660344e-01
-4.685527e-01
-5.806808e-01
-7.013613e-01
-8.294293e-01
-9.634979e-01
-1.101802e+00
-1.242070e+00
-1.381595e+00
-1.517826e+00
-1.649789e+00
0.000000e+00
-4.360796e-02
-8.562126e-02
-1.400951e-01
-2.070026e-01
-2.862603e-01
-3.770615e-01
-4.784639e-01
-5.894514e-01
-7.089483e-01
-8.357613e-01
-9.684732e-01
-1.105307e+00
-1.244040e+00
-1.382140e+00
-1.517428e+00
-1.649808e+00


0.000000e+00
1.212074e-10
2.506741e-10
3.653711e-10
4.622748e-10
5.409946e-10
6.030003e-10
6.505279e-10
6.860852e-10
7.119877e-10
7.304422e-10
7.433920e-10
7.526249e-10
7.597990e-10
7.664701e-10
7.746917e-10
7.845557e-10
0.000000e+00
8.243557e-11
1.942676e-10
2.853914e-10
3.584933e-10
4.162711e-10
4.608640e-10
4.944935e-10
5.191783e-10
5.367479e-10
5.488043e-10
5.566311e-10
5.612569e-10
5.635345e-10
5.658432e-10
5.725683e-10
5.827240e-10
0.000000e+00
6.137726e-11
1.349380e-10
1.964065e-10
2.458110e-10
2.839519e-10
3.126909e-10
3.337976e-10
3.488673e-10
3.591499e-10
3.657318e-10
3.694559e-10
3.711176e-10
3.717575e-10
3.733789e-10
3.786455e-10
3.868658e-10
0.000000e+00
3.284995e-11
6.730715e-11
9.805481e-11
1.232139e-10
1.424472e-10
1.566543e-10
1.668502e-10
1.738909e-10
1.784447e-10
1.810886e-10
1.823525e-10
1.828656e-10
1.834335e-10
1.848537e-10
1.880571e-10
1.931223e-10
0.000000e+00
-3.034411e-14
-8.340647e-14
-1.558040e-13
-2.582294e-13
-4.100865e-13
-6.113134e-13
-9.076556e-13
-1.300217e-12
-1.796957e-12
-2.365078e-12
-2.855277e-12
-3.060130e-12
-2.729969e-12
-1.859322e-12
-3.168898e-13
2.320691e-12
0.000000e+00
-3.292752e-11
-6.746212e-11
-9.832717e-11
-1.236347e-10
-1.430899e-10
-1.576211e-10
-1.682663e-10
-1.759165e-10
-1.812546e-10
-1.848115e-10
-1.870042e-10
-1.881316e-10
-1.885072e-10
-1.884887e-10
-1.881075e-10
-1.869745e-10
0.000000e+00
-6.140732e-11
-1.350305e-10
-1.965835e-10
-2.461003e-10
-2.843749e-10
-3.132579e-10
-3.345334e-10
-3.497999e-10
-3.603294e-10
-3.672670e-10
-3.715369e-10
-3.739857e-10
-3.753006e-10
-3.760077e-10
-3.762514e-10
-3.759323e-10
0.000000e+00
-8.246647e-11
-1.943406e-10
-2.855205e-10
-3.586550e-10
-4.164603e-10
-4.610519e-10
-4.946137e-10
-5.191426e-10
-5.364569e-10
-5.481735e-10
-5.557176e-10
-5.603328e-10
-5.630110e-10
-5.644923e-10
-5.651665e-10
-5.652584e-10
0.000000e+00
-1.212671e-10
-2.507806e-10
-3.654921e-10
-4.623865e-10
-5.410551e-10
-6.029017e-10
-6.501686e-10
-6.852900e-10
-7.105589e-10
-7.281555e-10
-7.399064e-10
-7.474262e-10
-7.519253e-10
-7.542950e-10
-7.552104e-10
-7.553522e-10
0.000000e+00
1.101009e-10
1.978979e-10
2.900506e-10
4.006806e-10
5.309321e-10
6.781342e-10
8.388400e-10
1.009753e-09
1.188128e-09
1.371888e-09
1.559632e-09
1.750747e-09
1.946553e-09
2.152260e-09
2.370580e-09
2.591740e-09
0.000000e+00
5.919145e-11
1.449895e-10
2.433204e-10
3.623649e-10
5.006743e-10
6.549908e-10
8.215984e-10
9.972491e-10
1.179366e-09
1.365958e-09
1.555759e-09
1.748239e-09
1.943980e-09
2.145524e-09
2.357767e-09
2.575321e-09
0.000000e+00
2.919006e-11
1.034495e-10
2.068355e-10
3.327251e-10
4.777092e-10
6.376839e-10
8.088967e-10
9.882311e-10
1.173224e-09
1.362033e-09
1.553467e-09
1.746892e-09
1.941965e-09
2.138932e-09
2.344147e-09
2.555867e-09
0.000000e+00
1.660287e-11
8.384414e-11
1.877063e-10
3.171797e-10
4.658257e-10
6.288755e-10
8.025427e-10
9.838216e-10
1.170352e-09
1.360350e-09
1.552582e-09
1.746216e-09
1.940365e-09
2.134840e-09
2.334468e-09
2.538811e-09
0.000000e+00
1.340951e-11
7.849383e-11
1.819207e-10
3.123977e-10
4.622151e-10
6.262505e-10
8.007081e-10
9.826447e-10
1.169691e-09
1.360083e-09
1.552491e-09
1.745925e-09
1.939504e-09
2.132915e-09
2.328925e-09
2.526677e-09
0.000000e+00
1.663135e-11
8.388304e-11
1.877627e-10
3.172510e-10
4.659321e-10
6.290452e-10
8.028185e-10
9.842622e-10
1.170969e-09
1.361094e-09
1.553217e-09
1.746294e-09
1.939484e-09
2.132471e-09
2.326250e-09
2.519687e-09
0.000000e+00
2.922942e-11
1.035098e-10
2.069380e-10
3.328494e-10
4.779237e-10
6.380314e-10
8.094474e-10
9.891037e-10
1.174433e-09
1.363528e-09
1.554854e-09
1.747292e-09
1.940033e-09
2.132604e-09
2.325060e-09
2.516420e-09
0.000000e+00
5.925982e-11
1.450909e-10
2.434956e-10
3.625704e-10
5.009988e-10
6.554803e-10
8.223389e-10
9.983514e-10
1.180865e-09
1.367799e-09
1.557529e-09
1.748853e-09
1.940842e-09
2.132906e-09
2.324608e-09
2.515329e-09
0.000000e+00
1.101857e-10
1.980445e-10
2.902712e-10
4.009649e-10
5.313119e-10
6.786665e-10
8.395896e-10
1.010794e-09
1.189492e-09
1.373500e-09
1.561075e-09
1.750880e-09
1.941894e-09
2.133336e-09
2.324578e-09
2.515154e-09


2.105272e-01
2.105272e-01
2.105272e-01
2.105272e-01
2.105272e-01
2.105272e-01
2.105272e-01
2.105272e-01
2.105272e-01
2.105272e-01
2.105272e-01
2.105272e-01
2.105272e-01
2.105272e-01
2.105272e-01
2.105272e-01
2.105272e-01
2.105272e-01
2.105272e-01
2.105272e-01
2.105272e-01
2.105272e-01
2.105272e-01
2.105272e-01
2.105272e-01
2.105272e-01
2.105272e-01
2.105272e-01
2.105272e-01
2.105272e-01
2.105272e-01
2.105272e-01
2.105272e-01
2.105272e-01
2.105272e-01
2.105272e-01
2.105272e-01
2.105272e-01
2.105272e-01
2.105272e-01
2.105272e-01
2.105272e-01
2.105272e-01
2.105272e-01
2.105272e-01
2.105272e-01
2.105272e-01
2.105272e-01
2.105272e-01
2.105272e-01
2.105272e-01
2.105272e-01
2.105272e-01
2.105272e-01
2.105272e-01
2.105272e-01
2.105272e-01
2.105272e-01
2.105272e-01
2.105272e-01
2.105272e-01
2.105272e-01
2.105272e-01
2.105272e-01
2.105272e-01
2.105272e-01
2.105272e-01
2.105272e-01
2.105272e-01
2.105272e-01
2.105272e-01
2.105272e-01
2.105272e-01
2.105272e-01
2.105272e-01
2.105272e-01
2.105272e-01
2.105272e-01
2.105272e-01
2.105272e-01
2.105272e-01
2.105272e-01
2.105272e-01
2.105272e-01
2.105272e-01
2.105272e-01
2.105272e-01
2.105272e-01
2.105272e-01
2.105272e-01
2.105272e-01
2.105272e-01
2.105272e-01
2.105272e-01
2.105272e-01
2.105272e-01
2.105272e-01
2.105272e-01
2.105272e-01
2.105272e-01
2.105272e-01
2.105272e-01
2.105272e-01
2.105272e-01
2.105272e-01
2.105272e-01
2.105272e-01
2.105272e-01
2.105272e-01
2.105272e-01
2.105272e-01
2.105272e-01
2.105272e-01
2.105272e-01
2.105272e-01
2.105272e-01
2.105272e-01
2.105272e-01
2.105272e-01
2.105272e-01
2.105272e-01
2.105272e-01
2.105272e-01
2.105272e-01
2.105272e-01
2.105272e-01
2.105272e-01
2.105272e-01


9.883203e-01
9.899766e-01
9.915087e-01
9.926882e-01
9.937830e-01
9.947925e-01
9.957122e-01
9.965314e-01
9.972413e-01
9.978351e-01
9.983073e-01
9.986532e-01
9.988682e-01
9.989449e-01
9.990003e-01
9.955869e-01
9.955813e-01
9.948224e-01
9.953107e-01
9.959480e-01
9.965422e-01
9.970823e-01
9.975712e-01
9.980140e-01
9.984149e-01
9.987781e-01
9.991076e-01
9.994060e-01
9.996663e-01
9.998367e-01
9.994057e-01
9.935627e-01
9.984647e-01
9.980288e-01
9.979111e-01
9.980767e-01
9.982944e-01
9.985054e-01
9.987012e-01
9.988862e-01
9.990655e-01
9.992403e-01
9.994035e-01
9.995299e-01
9.995562e-01
9.993287e-01
9.985031e-01
9.970182e-01
9.996875e-01
9.993696e-01
9.991732e-01
9.991234e-01
9.991433e-01
9.991767e-01
9.992100e-01
9.992426e-01
9.992745e-01
9.993013e-01
9.993088e-01
9.992690e-01
9.991427e-01
9.989162e-01
9.987240e-01
9.986754e-01
9.996887e-01
9.993713e-01
9.991747e-01
9.991231e-01
9.991383e-01
9.991624e-01
9.991791e-01
9.991847e-01
9.991771e-01
9.991525e-01
9.991066e-01
9.990406e-01
9.989777e-01
9.989902e-01
9.991680e-01
9.994758e-01
9.984669e-01
9.980321e-01
9.979143e-01
9.980767e-01
9.982860e-01
9.984793e-01
9.986428e-01
9.987742e-01
9.988727e-01
9.989390e-01
9.989809e-01
9.990219e-01
9.991080e-01
9.992884e-01
9.995595e-01
9.998398e-01
9.955809e-01
9.948220e-01
9.953100e-01
9.959462e-01
9.965376e-01
9.970717e-01
9.975492e-01
9.979719e-01
9.983403e-01
9.986552e-01
9.989218e-01
9.991547e-01
9.993789e-01
9.996139e-01
9.998337e-01
9.999722e-01
9.883123e-01
9.899641e-01
9.914935e-01
9.926711e-01
9.937676e-01
9.947869e-01
9.957312e-01
9.965983e-01
9.973884e-01
9.980998e-01
9.987243e-01
9.992423e-01
9.996277e-01
9.998655e-01
9.999736e-01
9.999994e-01
1 2 19 18
2 3 20 19
3 4 21 20
4 5 22 21
5 6 23 22
6 7 24 23
7 8 25 24
8 9 26 25
9 10 27 26
10 11 28 27
11 12 29 28
12 13 30 29
13 14 31 30
14 15 32 31
15 16 33 32
16 17 34 33
18 19 36 35
19 20 37 36
20 21 38 37
21 22 39 38
22 23 40 39
23 24 41 40
24 25 42 41
25 26 43 42
26 27 44 43
27 28 45 44
28 29 46 45
29 30 47 46
30 31 48 47
31 32 49 48
32 33 50 49
33 34 51 50
35 36 53 52
36 37 54 53
37 38 55 54
38 39 56 55
39 40 57 56
40 41 58 57
41 42 59 58
42 43 60 59
43 44 61 60
44 45 62 61
45 46 63 62
46 47 64 63
47 48 65 64
48 49 66 65
49 50 67 66
50 51 68 67
52 53 70 69
53 54 71 70
54 55 72 71
55 56 73 72
56 57 74 73
57 58 75 74
58 59 76 75
59 60 77 76
60 61 78 77
61 62 79 78
62 63 80 79
63 64 81 80
64 65 82 81
65 66 83 82
66 67 84 83
67 68 85 84
69 70 87 86
70 71 88 87
71 72 89 88
72 73 90 89
73 74 91 90
74 75 92 91
75 76 93 92
76 77 94 93
77 78 95 94
78 79 96 95
79 80 97 96
80 81 98 97
81 82 99 98
82 83 100 99
83 84 101 100
84 85 102 101
86 87 104 103
87 88 105 104
88 89 106 105
89 90 107 106
90 91 108 107
91 92 109 108
92 93 110 109
93 94 111 110
94 95 112 111
95 96 113 112
96 97 114 113
97 98 115 114
98 99 116 115
99 100 117 116
100 101 118 117
101 102 119 118
103 104 121 120
104 105 122 121
105 106 123 122
106 107 124 123
107 108 125 124
108 109 126 125
109 110 127 126
110 111 128 127
111 112 129 128
112 113 130 129
113 114 131 130
114 115 132 131
115 116 133 132
116 117 134 133
117 118 135 134
118 119 136 135
120 121 138 137
121 122 139 138
122 123 140 139
123 124 141 140
124 125 142 141
125 126 143 142
126 127 144 143
127 128 145 144
128 129 146 145
129 130 147 146
130 131 148 147
131 132 149 148
132 133 150 149
133 134 151 150
134 135 152 151
135 136 153 152
