TITLE = "Solution"
VARIABLES = x, y, u, v, psiu, psiv, t, stress
ZONE T="structure" N=153 E=128 F=FEBLOCK ET=QUADRILATERAL VARLOCATION=([7,8]=cellcentered)
0.000000e+00
1.250000e+01
2.500000e+01
3.750000e+01
5.000000e+01
6.250000e+01
7.500000e+01
8.750000e+01
1.000000e+02
1.125000e+02
1.250000e+02
1.375000e+02
1.500000e+02
1.625000e+02
1.750000e+02
1.875000e+02
2.000000e+02
0.000000e+00
1.250000e+01
2.500000e+01
3.750000e+01
5.000000e+01
6.250000e+01
7.500000e+01
8.750000e+01
1.000000e+02
1.125000e+02
1.250000e+02
1.375000e+02
1.500000e+02
1.625000e+02
1.750000e+02
1.875000e+02
2.000000e+02
0.000000e+00
1.250000e+01
2.500000e+01
3.750000e+01
5.000000e+01
6.250000e+01
7.500000e+01
8.750000e+01
1.000000e+02
1.125000e+02
1.250000e+02
1.375000e+02
1.500000e+02
1.625000e+02
1.750000e+02
1.875000e+02
2.000000e+02
0.000000e+00
1.250000e+01
2.500000e+01
3.750000e+01
5.000000e+01
6.250000e+01
7.500000e+01
8.750000e+01
1.000000e+02
1.125000e+02
1.250000e+02
1.375000e+02
1.500000e+02
1.625000e+02
1.750000e+02
1.875000e+02
2.000000e+02
0.000000e+00
1.250000e+01
2.500000e+01
3.750000e+01
5.000000e+01
6.250000e+01
7.500000e+01
8.750000e+01
1.000000e+02
1.125000e+02
1.250000e+02
1.375000e+02
1.500000e+02
1.625000e+02
1.750000e+02
1.875000e+02
2.000000e+02
0.000000e+00
1.250000e+01
2.500000e+01
3.750000e+01
5.000000e+01
6.250000e+01
7.500000e+01
8.750000e+01
1.000000e+02
1.125000e+02
1.250000e+02
1.375000e+02
1.500000e+02
1.625000e+02
1.750000e+02
1.875000e+02
2.000000e+02
0.000000e+00
1.250000e+01
2.500000e+01
3.750000e+01
5.000000e+01
6.250000e+01
7.500000e+01
8.750000e+01
1.000000e+02
1.125000e+02
1.250000e+02
1.375000e+02
1.500000e+02
1.625000e+02
1.750000e+02
1.875000e+02
2.000000e+02
0.000000e+00
1.250000e+01
2.500000e+01
3.750000e+01
5.000000e+01
6.250000e+01
7.500000e+01
8.750000e+01
1.000000e+02
1.125000e+02
1.250000e+02
1.375000e+02
1.500000e+02
1.625000e+02
1.750000e+02
1.875000e+02
2.000000e+02
0.000000e+00
1.250000e+01
2.500000e+01
3.750000e+01
5.000000e+01
6.250000e+01
7.500000e+01
8.750000e+01
1.000000e+02
1.125000e+02
1.250000e+02
1.375000e+02
1.500000e+02
1.625000e+02
1.750000e+02
1.875000e+02
2.000000e+02
0.000000e+00
0.000000e+00
0.000000e+00
0.000000e+00
0.000000e+00
0.000000e+00
0.000000e+00
0.000000e+00
0.000000e+00
0.000000e+00
0.000000e+00
0.000000e+00
0.000000e+00
0.000000e+00
0.000000e+00
0.000000e+00
0.000000e+00
1.250000e+01
1.250000e+01
1.250000e+01
1.250000e+01
1.250000e+01
1.250000e+01
1.250000e+01
1.250000e+01
1.250000e+01
1.250000e+01
1.250000e+01
1.250000e+01
1.250000e+01
1.250000e+01
1.250000e+01
1.250000e+01
1.250000e+01
2.500000e+01
2.500000e+01
2.500000e+01
2.500000e+01
2.500000e+01
2.500000e+01
2.500000e+01
2.500000e+01
2.500000e+01
2.500000e+01
2.500000e+01
2.500000e+01
2.500000e+01
2.500000e+01
2.500000e+01
2.500000e+01
2.500000e+01
3.750000e+01
3.750000e+01
3.750000e+01
3.750000e+01
3.750000e+01
3.750000e+01
3.750000e+01
3.750000e+01
3.750000e+01
3.750000e+01
3.750000e+01
3.750000e+01
3.750000e+01
3.750000e+01
3.750000e+01
3.750000e+01
3.750000e+01
5.000000e+01
5.000000e+01
5.000000e+01
5.000000e+01
5.000000e+01
5.000000e+01
5.000000e+01
5.000000e+01
5.000000e+01
5.000000e+01
5.000000e+01
5.000000e+01
5.000000e+01
5.000000e+01
5.000000e+01
5.000000e+01
5.000000e+01
6.250000e+01
6.250000e+01
6.250000e+01
6.250000e+01
6.250000e+01
6.250000e+01
6.250000e+01
6.250000e+01
6.250000e+01
6.250000e+01
6.250000e+01
6.250000e+01
6.250000e+01
6.250000e+01
6.250000e+01
6.250000e+01
6.250000e+01
7.500000e+01
7.500000e+01
7.500000e+01
7.500000e+01
7.500000e+01
7.500000e+01
7.500000e+01
7.500000e+01
7.500000e+01
7.500000e+01
7.500000e+01
7.500000e+01
7.500000e+01
7.500000e+01
7.500000e+01
7.500000e+01
7.500000e+01
8.750000e+01
8.750000e+01
8.750000e+01
8.750000e+01
8.750000e+01
8.750000e+01
8.750000e+01
8.750000e+01
8.750000e+01
8.750000e+01
8.750000e+01
8.750000e+01
8.750000e+01
8.750000e+01
8.750000e+01
8.750000e+01
8.750000e+01
1.000000e+02
1.000000e+02
1.000000e+02
1.000000e+02
1.000000e+02
1.000000e+02
1.000000e+02
1.000000e+02
1.000000e+02
1.000000e+02
1.000000e+02
1.000000e+02
1.000000e+02
1.000000e+02
1.000000e+02
1.000000e+02
1.000000e+02
0.000000e+00
-7.156707e-02
-1.317777e-01
-1.871792e-01
-2.387735e-01
-2.864518e-01
-3.301116e-01
-3.697192e-01
-4.053322e-01
-4.371147e-01
-4.653817e-01
-4.906856e-01
-5.139770e-01
-5.368976e-01
-5.622793e-01
-5.934512e-01
-6.168423e-01
0.000000e+00
-4.273859e-02
-8.878111e-02
-1.312984e-01
-1.704699e-01
-2.064446e-01
-2.392969e-01
-2.690710e-01
-2.958206e-01
-3.196279e-01
-3.406139e-01
-3.589299e-01
-3.746927e-01
-3.877400e-01
-3.969430e-01
-3.989601e-01
-4.061921e-01
0.000000e+00
-2.672750e-02
-5.495843e-02
-8.312295e-02
-1.094136e-01
-1.335522e-01
-1.555189e-01
-1.753388e-01
-1.930167e-01
-2.085230e-01
-2.217745e-01
-2.325859e-01
-2.405718e-01
-2.450297e-01
-2.451535e-01
-2.433726e-01
-2.507486e-01
0.000000e+00
-1.290035e-02
-2.655709e-02
-4.030007e-02
-5.344085e-02
-6.554431e-02
-7.651490e-02
-8.632068e-02
-9.490550e-02
-1.021577e-01
-1.078918e-01
-1.118374e-01
-1.136713e-01
-1.132428e-01
-1.114826e-01
-1.119639e-01
-1.174561e-01
0.000000e+00
-1.188360e-05
-2.701517e-05
-4.209705e-05
-5.010126e-05
-3.535574e-05
3.324655e-05
2.115234e-04
5.910513e-04
1.308239e-03
2.541050e-03
4.468264e-03
7.138188e-03
1.015534e-02
1.223949e-02
1.166787e-02
8.031548e-03
0.000000e+00
1.288206e-02
2.651464e-02
4.023217e-02
5.335639e-02
6.547562e-02
7.654155e-02
8.660832e-02
9.576321e-02
1.041124e-01
1.117650e-01
1.187777e-01
1.250286e-01
1.300411e-01
1.329897e-01
1.332236e-01
1.313779e-01
0.000000e+00
2.672450e-02
5.494928e-02
8.310475e-02
1.093852e-01
1.335168e-01
1.554896e-01
1.753483e-01
1.931341e-01
2.088787e-01
2.225956e-01
2.342514e-01
2.437120e-01
2.507066e-01
2.549049e-01
2.562681e-01
2.558377e-01
0.000000e+00
4.275613e-02
8.881924e-02
1.313592e-01
1.705515e-01
2.065318e-01
2.393459e-01
2.689815e-01
2.953936e-01
3.185058e-01
3.382085e-01
3.543655e-01
3.668476e-01
3.756134e-01
3.808424e-01
3.830723e-01
3.834819e-01
0.000000e+00
7.159639e-02
1.318550e-01
1.873241e-01
2.390050e-01
2.867773e-01
3.304999e-01
3.700457e-01
4.052826e-01
4.360272e-01
4.620131e-01
4.828938e-01
4.983263e-01
5.081894e-01
5.129593e-01
5.141366e-01
5.141139e-01
0.000000e+00
-4.332152e-02
-8.504517e-02
-1.391093e-01
-2.054618e-01
-2.839786e-01
-3.737998e-01
-4.739201e-01
-5.832749e-01
-7.008138e-01
-8.255662e-01
-9.567600e-01
-1.094079e+00
-1.238256e+00
-1.393031e+00
-1.570122e+00
-1.824570e+00
0.000000e+00
-2.666952e-02
-7.019413e-02
-1.249287e-01
-1.923656e-01
-2.719539e-01
-3.628633e-01
-4.640638e-01
-5.744785e-01
-6.930380e-01
-8.187449e-01
-9.507917e-01
-1.088813e+00
-1.233522e+00
-1.388237e+00
-1.564254e+00
-1.779893e+00
0.000000e+00
-2.012452e-02
-5.989865e-02
-1.148352e-01
-1.829098e-01
-2.633173e-01
-3.550622e-01
-4.571048e-01
-5.683753e-01
-6.878197e-01
-8.144598e-01
-9.475157e-01
-1.086657e+00
-1.232479e+00
-1.387327e+00
-1.554109e+00
-1.715519e+00
0.000000e+00
-1.734187e-02
-5.477979e-02
-1.089106e-01
-1.772313e-01
-2.581337e-01
-3.504507e-01
-4.531027e-01
-5.650405e-01
-6.852382e-01
-8.127391e-01
-9.467480e-01
-1.086777e+00
-1.232761e+00
-1.384511e+00
-1.537760e+00
-1.678938e+00
0.000000e+00
-1.654024e-02
-5.323059e-02
-1.070207e-01
-1.753599e-01
-2.564637e-01
-3.490461e-01
-4.520286e-01
-5.643818e-01
-6.850968e-01
-8.131953e-01
-9.477565e-01
-1.087910e+00
-1.232623e+00
-1.379730e+00
-1.524198e+00
-1.657289e+00
0.000000e+00
-1.733157e-02
-5.477247e-02
-1.089237e-01
-1.772953e-01
-2.583024e-01
-3.508115e-01
-4.537862e-01
-5.662188e-01
-6.870955e-01
-8.153747e-01
-9.499422e-01
-1.089496e+00
-1.232261e+00
-1.375493e+00
-1.515008e+00
-1.645258e+00
0.000000e+00
-2.010772e-02
-5.988651e-02
-1.148570e-01
-1.830177e-01
-2.636027e-01
-3.556740e-01
-4.582653e-01
-5.703788e-01
-6.909834e-01
-8.189673e-01
-9.530449e-01
-1.091601e+00
-1.232495e+00
-1.372950e+00
-1.509788e+00
-1.639951e+00
0.000000e+00
-2.665378e-02
-7.018356e-02
-1.249576e-01
-1.924952e-01
-2.722896e-01
-3.635754e-01
-4.654051e-01
-5.767799e-01
-6.966498e-01
-8.238574e-01
-9.570254e-01
-1.094401e+00
-1.233726e+00
-1.372314e+00
-1.507629e+00
-1.638706e+00
0.000000e+00
-4.331502e-02
-8.504608e-02
-1.391540e-01
-2.056120e-01
-2.843373e-01
-3.745285e-01
-4.752497e-01
-5.854916e-01
-7.041857e-01
-8.301469e-01
-9.619673e-01
-1.097882e+00
-1.235683e+00
-1.372855e+00
-1.507234e+00
-1.638725e+00


0.000000e+00
7.473758e-11
1.545680e-10
2.252929e-10
2.850478e-10
3.335914e-10
3.718292e-10
4.011395e-10
4.230683e-10
4.390433e-10
4.504249e-10
4.584118e-10
4.641064e-10
4.685312e-10
4.726456e-10
4.777162e-10
4.837996e-10
0.000000e+00
5.082941e-11
1.197858e-10
1.759751e-10
2.210533e-10
2.566832e-10
2.841832e-10
3.049229e-10
3.201467e-10
3.309826e-10
3.384185e-10
3.432457e-10
3.460989e-10
3.475037e-10
3.489277e-10
3.530754e-10
3.593387e-10
0.000000e+00
3.784498e-11
8.320340e-11
1.211066e-10
1.515719e-10
1.750922e-10
1.928153e-10
2.058321e-10
2.151261e-10
2.214678e-10
2.255273e-10
2.278242e-10
2.288491e-10
2.292439e-10
2.302439e-10
2.334921e-10
2.385619e-10
0.000000e+00
2.025548e-11
4.150254e-11
6.046241e-11
7.597658e-11
8.783706e-11
9.659836e-11
1.028862e-10
1.072284e-10
1.100368e-10
1.116675e-10
1.124470e-10
1.127635e-10
1.131138e-10
1.139897e-10
1.159654e-10
1.190893e-10
0.000000e+00
-1.870776e-14
-5.142677e-14
-9.606962e-14
-1.592349e-13
-2.528851e-13
-3.769896e-13
-5.597561e-13
-8.018700e-13
-1.108240e-12
-1.458638e-12
-1.760984e-12
-1.887346e-12
-1.683743e-12
-1.146782e-12
-1.954767e-13
1.431262e-12
0.000000e+00
-2.030330e-11
-4.159809e-11
-6.063034e-11
-7.623610e-11
-8.823337e-11
-9.719455e-11
-1.037595e-10
-1.084776e-10
-1.117698e-10
-1.139635e-10
-1.153159e-10
-1.160113e-10
-1.162430e-10
-1.162316e-10
-1.159965e-10
-1.152977e-10
0.000000e+00
-3.786350e-11
-8.326045e-11
-1.212157e-10
-1.517502e-10
-1.753530e-10
-1.931649e-10
-2.062858e-10
-2.157012e-10
-2.221952e-10
-2.264740e-10
-2.291076e-10
-2.306180e-10
-2.314291e-10
-2.318652e-10
-2.320155e-10
-2.318187e-10
0.000000e+00
-5.084846e-11
-1.198308e-10
-1.760547e-10
-2.211529e-10
-2.567997e-10
-2.842990e-10
-3.049969e-10
-3.201246e-10
-3.308031e-10
-3.380293e-10
-3.426823e-10
-3.455288e-10
-3.471807e-10
-3.480943e-10
-3.485102e-10
-3.485669e-10
0.000000e+00
-7.477434e-11
-1.546337e-10
-2.253675e-10
-2.851167e-10
-3.336286e-10
-3.717683e-10
-4.009178e-10
-4.225778e-10
-4.381620e-10
-4.490145e-10
-4.562620e-10
-4.609000e-10
-4.636749e-10
-4.651364e-10
-4.657010e-10
-4.657885e-10
0.000000e+00
6.788931e-11
1.220276e-10
1.788524e-10
2.470711e-10
3.273891e-10
4.181597e-10
5.172576e-10
6.226503e-10
7.326444e-10
8.459597e-10
9.617325e-10
1.079584e-09
1.200329e-09
1.327180e-09
1.461810e-09
1.598191e-09
0.000000e+00
3.649858e-11
8.940363e-11
1.500372e-10
2.234436e-10
3.087299e-10
4.038874e-10
5.066245e-10
6.149387e-10
7.272406e-10
8.423026e-10
9.593437e-10
1.078037e-09
1.198742e-09
1.323025e-09
1.453908e-09
1.588065e-09
0.000000e+00
1.799956e-11
6.378932e-11
1.275392e-10
2.051660e-10
2.945678e-10
3.932142e-10
4.987912e-10
6.093770e-10
7.234523e-10
8.398818e-10
9.579298e-10
1.077206e-09
1.197499e-09
1.318960e-09
1.445507e-09
1.576067e-09
0.000000e+00
1.023785e-11
5.169993e-11
1.157433e-10
1.955798e-10
2.872396e-10
3.877821e-10
4.948726e-10
6.066575e-10
7.216813e-10
8.388438e-10
9.573839e-10
1.076790e-09
1.196512e-09
1.316436e-09
1.439538e-09
1.565548e-09
0.000000e+00
8.268620e-12
4.840067e-11
1.121756e-10
1.926309e-10
2.850130e-10
3.861633e-10
4.937411e-10
6.059316e-10
7.212734e-10
8.386791e-10
9.573279e-10
1.076610e-09
1.195981e-09
1.315249e-09
1.436119e-09
1.558064e-09
0.000000e+00
1.025541e-11
5.172393e-11
1.157781e-10
1.956238e-10
2.873052e-10
3.878867e-10
4.950426e-10
6.069292e-10
7.220619e-10
8.393025e-10
9.577759e-10
1.076837e-09
1.195969e-09
1.314975e-09
1.434469e-09
1.553753e-09
0.000000e+00
1.802383e-11
6.382649e-11
1.276025e-10
2.052427e-10
2.947001e-10
3.934285e-10
4.991308e-10
6.099151e-10
7.241982e-10
8.408037e-10
9.587856e-10
1.077453e-09
1.196307e-09
1.315057e-09
1.433736e-09
1.551738e-09
0.000000e+00
3.654074e-11
8.946621e-11
1.501452e-10
2.235704e-10
3.089300e-10
4.041892e-10
5.070812e-10
6.156185e-10
7.281653e-10
8.434381e-10
9.604353e-10
1.078416e-09
1.196806e-09
1.315243e-09
1.433457e-09
1.551065e-09
0.000000e+00
6.794161e-11
1.221179e-10
1.789885e-10
2.472464e-10
3.276233e-10
4.184880e-10
5.177199e-10
6.232924e-10
7.334856e-10
8.469541e-10
9.626223e-10
1.079666e-09
1.197455e-09
1.315508e-09
1.433438e-09
1.550958e-09


2.091129e-01
2.091129e-01
2.091129e-01
2.091129e-01
2.091129e-01
2.091129e-01
2.091129e-01
2.091129e-01
2.091129e-01
2.091129e-01
2.091129e-01
2.091129e-01
2.091129e-01
2.091129e-01
2.091129e-01
2.091129e-01
2.091129e-01
2.091129e-01
2.091129e-01
2.091129e-01
2.091129e-01
2.091129e-01
2.091129e-01
2.091129e-01
2.091129e-01
2.091129e-01
2.091129e-01
2.091129e-01
2.091129e-01
2.091129e-01
2.091129e-01
2.091129e-01
2.091129e-01
2.091129e-01
2.091129e-01
2.091129e-01
2.091129e-01
2.091129e-01
2.091129e-01
2.091129e-01
2.091129e-01
2.091129e-01
2.091129e-01
2.091129e-01
2.091129e-01
2.091129e-01
2.091129e-01
2.091129e-01
2.091129e-01
2.091129e-01
2.091129e-01
2.091129e-01
2.091129e-01
2.091129e-01
2.091129e-01
2.091129e-01
2.091129e-01
2.091129e-01
2.091129e-01
2.091129e-01
2.091129e-01
2.091129e-01
2.091129e-01
2.091129e-01
2.091129e-01
2.091129e-01
2.091129e-01
2.091129e-01
2.091129e-01
2.091129e-01
2.091129e-01
2.091129e-01
2.091129e-01
2.091129e-01
2.091129e-01
2.091129e-01
2.091129e-01
2.091129e-01
2.091129e-01
2.091129e-01
2.091129e-01
2.091129e-01
2.091129e-01
2.091129e-01
2.091129e-01
2.091129e-01
2.091129e-01
2.091129e-01
2.091129e-01
2.091129e-01
2.091129e-01
2.091129e-01
2.091129e-01
2.091129e-01
2.091129e-01
2.091129e-01
2.091129e-01
2.091129e-01
2.091129e-01
2.091129e-01
2.091129e-01
2.091129e-01
2.091129e-01
2.091129e-01
2.091129e-01
2.091129e-01
2.091129e-01
2.091129e-01
2.091129e-01
2.091129e-01
2.091129e-01
2.091129e-01
2.091129e-01
2.091129e-01
2.091129e-01
2.091129e-01
2.091129e-01
2.091129e-01
2.091129e-01
2.091129e-01
2.091129e-01
2.091129e-01
2.091129e-01
2.091129e-01
2.091129e-01
2.091129e-01
2.091129e-01
2.091129e-01


9.884767e-01
9.901108e-01
9.916224e-01
9.927861e-01
9.938663e-01
9.948622e-01
9.957696e-01
9.965778e-01
9.972783e-01
9.978641e-01
9.983300e-01
9.986712e-01
9.988833e-01
9.989590e-01
9.990136e-01
9.956460e-01
9.956405e-01
9.948917e-01
9.953735e-01
9.960023e-01
9.965885e-01
9.971214e-01
9.976037e-01
9.980406e-01
9.984361e-01
9.987944e-01
9.991195e-01
9.994139e-01
9.996708e-01
9.998389e-01
9.994136e-01
9.936489e-01
9.984853e-01
9.980552e-01
9.979391e-01
9.981024e-01
9.983173e-01
9.985254e-01
9.987186e-01
9.989012e-01
9.990780e-01
9.992504e-01
9.994115e-01
9.995361e-01
9.995622e-01
9.993376e-01
9.985231e-01
9.970581e-01
9.996917e-01
9.993780e-01
9.991843e-01
9.991351e-01
9.991547e-01
9.991877e-01
9.992206e-01
9.992527e-01
9.992843e-01
9.993107e-01
9.993180e-01
9.992787e-01
9.991542e-01
9.989307e-01
9.987411e-01
9.986931e-01
9.996929e-01
9.993797e-01
9.991857e-01
9.991348e-01
9.991499e-01
9.991736e-01
9.991901e-01
9.991957e-01
9.991881e-01
9.991638e-01
9.991186e-01
9.990534e-01
9.989914e-01
9.990037e-01
9.991791e-01
9.994828e-01
9.984874e-01
9.980585e-01
9.979422e-01
9.981024e-01
9.983089e-01
9.984996e-01
9.986610e-01
9.987906e-01
9.988878e-01
9.989532e-01
9.989945e-01
9.990350e-01
9.991199e-01
9.992979e-01
9.995654e-01
9.998419e-01
9.956401e-01
9.948914e-01
9.953728e-01
9.960005e-01
9.965839e-01
9.971109e-01
9.975820e-01
9.979991e-01
9.983626e-01
9.986733e-01
9.989363e-01
9.991660e-01
9.993872e-01
9.996191e-01
9.998360e-01
9.999725e-01
9.884688e-01
9.900985e-01
9.916074e-01
9.927692e-01
9.938511e-01
9.948567e-01
9.957884e-01
9.966439e-01
9.974233e-01
9.981253e-01
9.987414e-01
9.992525e-01
9.996327e-01
9.998673e-01
9.999740e-01
9.999994e-01
1 2 19 18
2 3 20 19
3 4 21 20
4 5 22 21
5 6 23 22
6 7 24 23
7 8 25 24
8 9 26 25
9 10 27 26
10 11 28 27
11 12 29 28
12 13 30 29
13 14 31 30
14 15 32 31
15 16 33 32
16 17 34 33
18 19 36 35
19 20 37 36
20 21 38 37
21 22 39 38
22 23 40 39
23 24 41 40
24 25 42 41
25 26 43 42
26 27 44 43
27 28 45 44
28 29 46 45
29 30 47 46
30 31 48 47
31 32 49 48
32 33 50 49
33 34 51 50
35 36 53 52
36 37 54 53
37 38 55 54
38 39 56 55
39 40 57 56
40 41 58 57
41 42 59 58
42 43 60 59
43 44 61 60
44 45 62 61
45 46 63 62
46 47 64 63
47 48 65 64
48 49 66 65
49 50 67 66
50 51 68 67
52 53 70 69
53 54 71 70
54 55 72 71
55 56 73 72
56 57 74 73
57 58 75 74
58 59 76 75
59 60 77 76
60 61 78 77
61 62 79 78
62 63 80 79
63 64 81 80
64 65 82 81
65 66 83 82
66 67 84 83
67 68 85 84
69 70 87 86
70 71 88 87
71 72 89 88
72 73 90 89
73 74 91 90
74 75 92 91
75 76 93 92
76 77 94 93
77 78 95 94
78 79 96 95
79 80 97 96
80 81 98 97
81 82 99 98
82 83 100 99
83 84 101 100
84 85 102 101
86 87 104 103
87 88 105 104
88 89 106 105
89 90 107 106
90 91 108 107
91 92 109 108
92 93 110 109
93 94 111 110
94 95 112 111
95 96 113 112
96 97 114 113
97 98 115 114
98 99 116 115
99 100 117 116
100 101 118 117
101 102 119 118
103 104 121 120
104 105 122 121
105 106 123 122
106 107 124 123
107 108 125 124
108 109 126 125
109 110 127 126
110 111 128 127
111 112 129 128
112 113 130 129
113 114 131 130
114 115 132 131
115 116 133 132
116 117 134 133
117 118 135 134
118 119 136 135
120 121 138 137
121 122 139 138
122 123 140 139
123 124 141 140
124 125 142 141
125 126 143 142
126 127 144 143
127 128 145 144
128 129 146 145
129 130 147 146
130 131 148 147
131 132 149 148
132 133 150 149
133 134 151 150
134 135 152 151
135 136 153 152
