TITLE = "Solution"
VARIABLES = x, y, u, v, psiu, psiv, t, stress
ZONE T="structure" N=153 E=128 F=FEBLOCK ET=QUADRILATERAL VARLOCATION=([7,8]=cellcentered)
0.000000e+00
1.250000e+01
2.500000e+01
3.750000e+01
5.000000e+01
6.250000e+01
7.500000e+01
8.750000e+01
1.000000e+02
1.125000e+02
1.250000e+02
1.375000e+02
1.500000e+02
1.625000e+02
1.750000e+02
1.875000e+02
2.000000e+02
0.000000e+00
1.250000e+01
2.500000e+01
3.750000e+01
5.000000e+01
6.250000e+01
7.500000e+01
8.750000e+01
1.000000e+02
1.125000e+02
1.250000e+02
1.375000e+02
1.500000e+02
1.625000e+02
1.750000e+02
1.875000e+02
2.000000e+02
0.000000e+00
1.250000e+01
2.500000e+01
3.750000e+01
5.000000e+01
6.250000e+01
7.500000e+01
8.750000e+01
1.000000e+02
1.125000e+02
1.250000e+02
1.375000e+02
1.500000e+02
1.625000e+02
1.750000e+02
1.875000e+02
2.000000e+02
0.000000e+00
1.250000e+01
2.500000e+01
3.750000e+01
5.000000e+01
6.250000e+01
7.500000e+01
8.750000e+01
1.000000e+02
1.125000e+02
1.250000e+02
1.375000e+02
1.500000e+02
1.625000e+02
1.750000e+02
1.875000e+02
2.000000e+02
0.000000e+00
1.250000e+01
2.500000e+01
3.750000e+01
5.000000e+01
6.250000e+01
7.500000e+01
8.750000e+01
1.000000e+02
1.125000e+02
1.250000e+02
1.375000e+02
1.500000e+02
1.625000e+02
1.750000e+02
1.875000e+02
2.000000e+02
0.000000e+00
1.250000e+01
2.500000e+01
3.750000e+01
5.000000e+01
6.250000e+01
7.500000e+01
8.750000e+01
1.000000e+02
1.125000e+02
1.250000e+02
1.375000e+02
1.500000e+02
1.625000e+02
1.750000e+02
1.875000e+02
2.000000e+02
0.000000e+00
1.250000e+01
2.500000e+01
3.750000e+01
5.000000e+01
6.250000e+01
7.500000e+01
8.750000e+01
1.000000e+02
1.125000e+02
1.250000e+02
1.375000e+02
1.500000e+02
1.625000e+02
1.750000e+02
1.875000e+02
2.000000e+02
0.000000e+00
1.250000e+01
2.500000e+01
3.750000e+01
5.000000e+01
6.250000e+01
7.500000e+01
8.750000e+01
1.000000e+02
1.125000e+02
1.250000e+02
1.375000e+02
1.500000e+02
1.625000e+02
1.750000e+02
1.875000e+02
2.000000e+02
0.000000e+00
1.250000e+01
2.500000e+01
3.750000e+01
5.000000e+01
6.250000e+01
7.500000e+01
8.750000e+01
1.000000e+02
1.125000e+02
1.250000e+02
1.375000e+02
1.500000e+02
1.625000e+02
1.750000e+02
1.875000e+02
2.000000e+02
0.000000e+00
0.000000e+00
0.000000e+00
0.000000e+00
0.000000e+00
0.000000e+00
0.000000e+00
0.000000e+00
0.000000e+00
0.000000e+00
0.000000e+00
0.000000e+00
0.000000e+00
0.000000e+00
0.000000e+00
0.000000e+00
0.000000e+00
1.250000e+01
1.250000e+01
1.250000e+01
1.250000e+01
1.250000e+01
1.250000e+01
1.250000e+01
1.250000e+01
1.250000e+01
1.250000e+01
1.250000e+01
1.250000e+01
1.250000e+01
1.250000e+01
1.250000e+01
1.250000e+01
1.250000e+01
2.500000e+01
2.500000e+01
2.500000e+01
2.500000e+01
2.500000e+01
2.500000e+01
2.500000e+01
2.500000e+01
2.500000e+01
2.500000e+01
2.500000e+01
2.500000e+01
2.500000e+01
2.500000e+01
2.500000e+01
2.500000e+01
2.500000e+01
3.750000e+01
3.750000e+01
3.750000e+01
3.750000e+01
3.750000e+01
3.750000e+01
3.750000e+01
3.750000e+01
3.750000e+01
3.750000e+01
3.750000e+01
3.750000e+01
3.750000e+01
3.750000e+01
3.750000e+01
3.750000e+01
3.750000e+01
5.000000e+01
5.000000e+01
5.000000e+01
5.000000e+01
5.000000e+01
5.000000e+01
5.000000e+01
5.000000e+01
5.000000e+01
5.000000e+01
5.000000e+01
5.000000e+01
5.000000e+01
5.000000e+01
5.000000e+01
5.000000e+01
5.000000e+01
6.250000e+01
6.250000e+01
6.250000e+01
6.250000e+01
6.250000e+01
6.250000e+01
6.250000e+01
6.250000e+01
6.250000e+01
6.250000e+01
6.250000e+01
6.250000e+01
6.250000e+01
6.250000e+01
6.250000e+01
6.250000e+01
6.250000e+01
7.500000e+01
7.500000e+01
7.500000e+01
7.500000e+01
7.500000e+01
7.500000e+01
7.500000e+01
7.500000e+01
7.500000e+01
7.500000e+01
7.500000e+01
7.500000e+01
7.500000e+01
7.500000e+01
7.500000e+01
7.500000e+01
7.500000e+01
8.750000e+01
8.750000e+01
8.750000e+01
8.750000e+01
8.750000e+01
8.750000e+01
8.750000e+01
8.750000e+01
8.750000e+01
8.750000e+01
8.750000e+01
8.750000e+01
8.750000e+01
8.750000e+01
8.750000e+01
8.750000e+01
8.750000e+01
1.000000e+02
1.000000e+02
1.000000e+02
1.000000e+02
1.000000e+02
1.000000e+02
1.000000e+02
1.000000e+02
1.000000e+02
1.000000e+02
1.000000e+02
1.000000e+02
1.000000e+02
1.000000e+02
1.000000e+02
1.000000e+02
1.000000e+02
0.000000e+00
-7.387446e-02
-1.360263e-01
-1.932140e-01
-2.464718e-01
-2.956872e-01
-3.407547e-01
-3.816393e-01
-4.184005e-01
-4.512077e-01
-4.803860e-01
-5.065058e-01
-5.305481e-01
-5.542077e-01
-5.804077e-01
-6.125846e-01
-6.367299e-01
0.000000e+00
-4.411652e-02
-9.164349e-02
-1.355316e-01
-1.759660e-01
-2.131005e-01
-2.470120e-01
-2.777461e-01
-3.053581e-01
-3.299330e-01
-3.515956e-01
-3.705021e-01
-3.867731e-01
-4.002411e-01
-4.097408e-01
-4.118229e-01
-4.192881e-01
0.000000e+00
-2.758922e-02
-5.673033e-02
-8.580290e-02
-1.129412e-01
-1.378580e-01
-1.605330e-01
-1.809919e-01
-1.992397e-01
-2.152460e-01
-2.289247e-01
-2.400847e-01
-2.483281e-01
-2.529297e-01
-2.530574e-01
-2.512192e-01
-2.588330e-01
0.000000e+00
-1.331626e-02
-2.741331e-02
-4.159938e-02
-5.516382e-02
-6.765751e-02
-7.898181e-02
-8.910373e-02
-9.796534e-02
-1.054513e-01
-1.113704e-01
-1.154431e-01
-1.173361e-01
-1.168939e-01
-1.150769e-01
-1.155738e-01
-1.212430e-01
0.000000e+00
-1.226674e-05
-2.788617e-05
-4.345430e-05
-5.171657e-05
-3.649565e-05
3.431844e-05
2.183431e-04
6.101073e-04
1.350418e-03
2.622975e-03
4.612325e-03
7.368330e-03
1.048275e-02
1.263410e-02
1.204406e-02
8.290492e-03
0.000000e+00
1.329739e-02
2.736950e-02
4.152929e-02
5.507665e-02
6.758661e-02
7.900932e-02
8.940065e-02
9.885070e-02
1.074691e-01
1.153684e-01
1.226072e-01
1.290596e-01
1.342337e-01
1.372774e-01
1.375188e-01
1.356136e-01
0.000000e+00
2.758612e-02
5.672089e-02
8.578412e-02
1.129119e-01
1.378215e-01
1.605027e-01
1.810017e-01
1.993610e-01
2.156131e-01
2.297722e-01
2.418038e-01
2.515695e-01
2.587896e-01
2.631233e-01
2.645304e-01
2.640862e-01
0.000000e+00
4.413462e-02
9.168284e-02
1.355944e-01
1.760502e-01
2.131906e-01
2.470626e-01
2.776537e-01
3.049173e-01
3.287747e-01
3.491126e-01
3.657906e-01
3.786751e-01
3.877235e-01
3.931211e-01
3.954229e-01
3.958457e-01
0.000000e+00
7.390472e-02
1.361061e-01
1.933636e-01
2.467107e-01
2.960232e-01
3.411555e-01
3.819763e-01
4.183492e-01
4.500851e-01
4.769088e-01
4.984627e-01
5.143928e-01
5.245739e-01
5.294975e-01
5.307129e-01
5.306894e-01
0.000000e+00
-4.471824e-02
-8.778710e-02
-1.435943e-01
-2.120861e-01
-2.931343e-01
-3.858514e-01
-4.891997e-01
-6.020802e-01
-7.234086e-01
-8.521832e-01
-9.876068e-01
-1.129353e+00
-1.278178e+00
-1.437943e+00
-1.620744e+00
-1.883396e+00
0.000000e+00
-2.752937e-02
-7.245725e-02
-1.289565e-01
-1.985677e-01
-2.807220e-01
-3.745623e-01
-4.790256e-01
-5.930002e-01
-7.153821e-01
-8.451420e-01
-9.814460e-01
-1.123917e+00
-1.273292e+00
-1.432995e+00
-1.614687e+00
-1.837278e+00
0.000000e+00
-2.077335e-02
-6.182984e-02
-1.185376e-01
-1.888069e-01
-2.718069e-01
-3.665097e-01
-4.718422e-01
-5.867003e-01
-7.099956e-01
-8.407187e-01
-9.780644e-01
-1.121691e+00
-1.272215e+00
-1.432056e+00
-1.604215e+00
-1.770828e+00
0.000000e+00
-1.790098e-02
-5.654594e-02
-1.124220e-01
-1.829454e-01
-2.664562e-01
-3.617495e-01
-4.677112e-01
-5.832579e-01
-7.073309e-01
-8.389425e-01
-9.772720e-01
-1.121816e+00
-1.272506e+00
-1.429149e+00
-1.587339e+00
-1.733068e+00
0.000000e+00
-1.707351e-02
-5.494679e-02
-1.104711e-01
-1.810137e-01
-2.647323e-01
-3.602996e-01
-4.666024e-01
-5.825780e-01
-7.071849e-01
-8.394135e-01
-9.783130e-01
-1.122986e+00
-1.272364e+00
-1.424213e+00
-1.573340e+00
-1.710722e+00
0.000000e+00
-1.789036e-02
-5.653838e-02
-1.124355e-01
-1.830115e-01
-2.666303e-01
-3.621220e-01
-4.684167e-01
-5.844742e-01
-7.092480e-01
-8.416631e-01
-9.805691e-01
-1.124622e+00
-1.271990e+00
-1.419840e+00
-1.563853e+00
-1.698303e+00
0.000000e+00
-2.075601e-02
-6.181731e-02
-1.185601e-01
-1.889183e-01
-2.721015e-01
-3.671413e-01
-4.730401e-01
-5.887683e-01
-7.132613e-01
-8.453715e-01
-9.837719e-01
-1.126795e+00
-1.272231e+00
-1.417216e+00
-1.558464e+00
-1.692825e+00
0.000000e+00
-2.751312e-02
-7.244634e-02
-1.289863e-01
-1.987014e-01
-2.810684e-01
-3.752974e-01
-4.804102e-01
-5.953758e-01
-7.191104e-01
-8.504193e-01
-9.878807e-01
-1.129685e+00
-1.273502e+00
-1.416558e+00
-1.556236e+00
-1.691539e+00
0.000000e+00
-4.471153e-02
-8.778804e-02
-1.436404e-01
-2.122411e-01
-2.935045e-01
-3.866036e-01
-4.905721e-01
-6.043684e-01
-7.268893e-01
-8.569116e-01
-9.929820e-01
-1.133278e+00
-1.275522e+00
-1.417117e+00
-1.555829e+00
-1.691559e+00


0.000000e+00
3.309508e-10
6.843854e-10
9.974402e-10
1.261820e-09
1.476607e-09
1.645712e-09
1.775412e-09
1.872391e-09
1.943085e-09
1.993408e-09
2.028692e-09
2.053815e-09
2.073313e-09
2.091452e-09
2.113852e-09
2.140752e-09
0.000000e+00
2.250847e-10
5.303943e-10
7.791270e-10
9.786042e-10
1.136226e-09
1.257892e-09
1.349610e-09
1.416952e-09
1.464890e-09
1.497741e-09
1.519088e-09
1.531636e-09
1.537812e-09
1.544073e-09
1.562391e-09
1.590088e-09
0.000000e+00
1.675647e-10
3.683725e-10
5.361718e-10
6.709943e-10
7.750915e-10
8.534502e-10
9.110425e-10
9.521119e-10
9.801716e-10
9.981060e-10
1.008280e-09
1.012808e-09
1.014563e-09
1.018977e-09
1.033349e-09
1.055779e-09
0.000000e+00
8.969745e-11
1.837507e-10
2.676823e-10
3.363375e-10
3.888214e-10
4.275822e-10
4.554105e-10
4.746203e-10
4.870584e-10
4.942720e-10
4.977286e-10
4.991332e-10
5.006760e-10
5.045617e-10
5.132966e-10
5.271008e-10
0.000000e+00
-9.763166e-14
-2.295129e-13
-4.130383e-13
-6.775665e-13
-1.062618e-12
-1.619679e-12
-2.407838e-12
-3.478055e-12
-4.833330e-12
-6.354514e-12
-7.691644e-12
-8.212894e-12
-7.297556e-12
-4.908625e-12
-6.972847e-13
6.497215e-12
0.000000e+00
-8.986492e-11
-1.841385e-10
-2.683782e-10
-3.374648e-10
-3.905580e-10
-4.301768e-10
-4.591964e-10
-4.800165e-10
-4.945304e-10
-5.042071e-10
-5.101547e-10
-5.132205e-10
-5.142375e-10
-5.141859e-10
-5.131447e-10
-5.100700e-10
0.000000e+00
-1.676503e-10
-3.686084e-10
-5.366093e-10
-6.716921e-10
-7.761135e-10
-8.548606e-10
-9.129073e-10
-9.545110e-10
-9.832428e-10
-1.002127e-09
-1.013765e-09
-1.020406e-09
-1.023964e-09
-1.025876e-09
-1.026529e-09
-1.025663e-09
0.000000e+00
-2.251143e-10
-5.305424e-10
-7.793899e-10
-9.789707e-10
-1.136657e-09
-1.258291e-09
-1.349804e-09
-1.416689e-09
-1.463888e-09
-1.495810e-09
-1.516361e-09
-1.528907e-09
-1.536194e-09
-1.540207e-09
-1.542034e-09
-1.542289e-09
0.000000e+00
-3.310950e-10
-6.846207e-10
-9.977013e-10
-1.262029e-09
-1.476622e-09
-1.645311e-09
-1.774267e-09
-1.870067e-09
-1.939044e-09
-1.986997e-09
-2.019038e-09
-2.039465e-09
-2.051673e-09
-2.058117e-09
-2.060583e-09
-2.061010e-09
0.000000e+00
3.007530e-10
5.405557e-10
7.921781e-10
1.094178e-09
1.449619e-09
1.851298e-09
2.289837e-09
2.756231e-09
3.243048e-09
3.744584e-09
4.256927e-09
4.778493e-09
5.312697e-09
5.873912e-09
6.469548e-09
7.072824e-09
0.000000e+00
1.617566e-10
3.960799e-10
6.646447e-10
9.895510e-10
1.367068e-09
1.788158e-09
2.242782e-09
2.722148e-09
3.219137e-09
3.728406e-09
4.246391e-09
4.771621e-09
5.305708e-09
5.855534e-09
6.434582e-09
7.028085e-09
0.000000e+00
7.983344e-11
2.826784e-10
5.650183e-10
9.086832e-10
1.304390e-09
1.740924e-09
2.208126e-09
2.697523e-09
3.202383e-09
3.717696e-09
4.240140e-09
4.767965e-09
5.300225e-09
5.837562e-09
6.397443e-09
6.975015e-09
0.000000e+00
4.548578e-11
2.291616e-10
5.127971e-10
8.662382e-10
1.271954e-09
1.716889e-09
2.190799e-09
2.685506e-09
3.194553e-09
3.713088e-09
4.237715e-09
4.766085e-09
5.295844e-09
5.826408e-09
6.371047e-09
6.928574e-09
0.000000e+00
3.676558e-11
2.145718e-10
4.969879e-10
8.531895e-10
1.262079e-09
1.709711e-09
2.185791e-09
2.682259e-09
3.192739e-09
3.712338e-09
4.237439e-09
4.765293e-09
5.293479e-09
5.821165e-09
6.355960e-09
6.895518e-09
0.000000e+00
4.554740e-11
2.292471e-10
5.129129e-10
8.664024e-10
1.272215e-09
1.717332e-09
2.191546e-09
2.686685e-09
3.196227e-09
3.715094e-09
4.239425e-09
4.766283e-09
5.293429e-09
5.819971e-09
6.348677e-09
6.876488e-09
0.000000e+00
7.993073e-11
2.828327e-10
5.652467e-10
9.090208e-10
1.304931e-09
1.741828e-09
2.209615e-09
2.699838e-09
3.205660e-09
3.721714e-09
4.243874e-09
4.769026e-09
5.294920e-09
5.820351e-09
6.345455e-09
6.867602e-09
0.000000e+00
1.618927e-10
3.963347e-10
6.650224e-10
9.900972e-10
1.367893e-09
1.789438e-09
2.244760e-09
2.725083e-09
3.223189e-09
3.733365e-09
4.251182e-09
4.773268e-09
5.297148e-09
5.821172e-09
6.344229e-09
6.864634e-09
0.000000e+00
3.009697e-10
5.409289e-10
7.927024e-10
1.094894e-09
1.450609e-09
1.852702e-09
2.291837e-09
2.759020e-09
3.246723e-09
3.748907e-09
4.260825e-09
4.778787e-09
5.299985e-09
5.822333e-09
6.344145e-09
6.864181e-09


2.158549e-01
2.158549e-01
2.158549e-01
2.158549e-01
2.158549e-01
2.158549e-01
2.158549e-01
2.158549e-01
2.158549e-01
2.158549e-01
2.158549e-01
2.158549e-01
2.158549e-01
2.158549e-01
2.158549e-01
2.158549e-01
2.158549e-01
2.158549e-01
2.158549e-01
2.158549e-01
2.158549e-01
2.158549e-01
2.158549e-01
2.158549e-01
2.158549e-01
2.158549e-01
2.158549e-01
2.158549e-01
2.158549e-01
2.158549e-01
2.158549e-01
2.158549e-01
2.158549e-01
2.158549e-01
2.158549e-01
2.158549e-01
2.158549e-01
2.158549e-01
2.158549e-01
2.158549e-01
2.158549e-01
2.158549e-01
2.158549e-01
2.158549e-01
2.158549e-01
2.158549e-01
2.158549e-01
2.158549e-01
2.158549e-01
2.158549e-01
2.158549e-01
2.158549e-01
2.158549e-01
2.158549e-01
2.158549e-01
2.158549e-01
2.158549e-01
2.158549e-01
2.158549e-01
2.158549e-01
2.158549e-01
2.158549e-01
2.158549e-01
2.158549e-01
2.158549e-01
2.158549e-01
2.158549e-01
2.158549e-01
2.158549e-01
2.158549e-01
2.158549e-01
2.158549e-01
2.158549e-01
2.158549e-01
2.158549e-01
2.158549e-01
2.158549e-01
2.158549e-01
2.158549e-01
2.158549e-01
2.158549e-01
2.158549e-01
2.158549e-01
2.158549e-01
2.158549e-01
2.158549e-01
2.158549e-01
2.158549e-01
2.158549e-01
2.158549e-01
2.158549e-01
2.158549e-01
2.158549e-01
2.158549e-01
2.158549e-01
2.158549e-01
2.158549e-01
2.158549e-01
2.158549e-01
2.158549e-01
2.158549e-01
2.158549e-01
2.158549e-01
2.158549e-01
2.158549e-01
2.158549e-01
2.158549e-01
2.158549e-01
2.158549e-01
2.158549e-01
2.158549e-01
2.158549e-01
2.158549e-01
2.158549e-01
2.158549e-01
2.158549e-01
2.158549e-01
2.158549e-01
2.158549e-01
2.158549e-01
2.158549e-01
2.158549e-01
2.158549e-01
2.158549e-01
2.158549e-01
2.158549e-01
2.158549e-01
2.158549e-01


9.877217e-01
9.894628e-01
9.910735e-01
9.923134e-01
9.934644e-01
9.945256e-01
9.954925e-01
9.963536e-01
9.970999e-01
9.977242e-01
9.982206e-01
9.985842e-01
9.988102e-01
9.988908e-01
9.989490e-01
9.953607e-01
9.953549e-01
9.945570e-01
9.950703e-01
9.957403e-01
9.963650e-01
9.969327e-01
9.974467e-01
9.979122e-01
9.983337e-01
9.987154e-01
9.990618e-01
9.993755e-01
9.996492e-01
9.998284e-01
9.993752e-01
9.932328e-01
9.983860e-01
9.979278e-01
9.978040e-01
9.979781e-01
9.982070e-01
9.984287e-01
9.986346e-01
9.988292e-01
9.990176e-01
9.992013e-01
9.993729e-01
9.995058e-01
9.995335e-01
9.992942e-01
9.984263e-01
9.968654e-01
9.996715e-01
9.993373e-01
9.991308e-01
9.990784e-01
9.990994e-01
9.991345e-01
9.991695e-01
9.992038e-01
9.992374e-01
9.992655e-01
9.992733e-01
9.992315e-01
9.990988e-01
9.988606e-01
9.986586e-01
9.986075e-01
9.996728e-01
9.993390e-01
9.991324e-01
9.990781e-01
9.990942e-01
9.991195e-01
9.991370e-01
9.991430e-01
9.991349e-01
9.991090e-01
9.990608e-01
9.989914e-01
9.989253e-01
9.989384e-01
9.991253e-01
9.994489e-01
9.983883e-01
9.979312e-01
9.978074e-01
9.979781e-01
9.981981e-01
9.984013e-01
9.985732e-01
9.987114e-01
9.988149e-01
9.988846e-01
9.989287e-01
9.989717e-01
9.990622e-01
9.992519e-01
9.995369e-01
9.998316e-01
9.953544e-01
9.945567e-01
9.950696e-01
9.957384e-01
9.963601e-01
9.969216e-01
9.974235e-01
9.978680e-01
9.982553e-01
9.985863e-01
9.988666e-01
9.991113e-01
9.993470e-01
9.995941e-01
9.998252e-01
9.999707e-01
9.877133e-01
9.894497e-01
9.910575e-01
9.922954e-01
9.934482e-01
9.945197e-01
9.955124e-01
9.964240e-01
9.972545e-01
9.980025e-01
9.986589e-01
9.992035e-01
9.996086e-01
9.998586e-01
9.999723e-01
9.999994e-01
1 2 19 18
2 3 20 19
3 4 21 20
4 5 22 21
5 6 23 22
6 7 24 23
7 8 25 24
8 9 26 25
9 10 27 26
10 11 28 27
11 12 29 28
12 13 30 29
13 14 31 30
14 15 32 31
15 16 33 32
16 17 34 33
18 19 36 35
19 20 37 36
20 21 38 37
21 22 39 38
22 23 40 39
23 24 41 40
24 25 42 41
25 26 43 42
26 27 44 43
27 28 45 44
28 29 46 45
29 30 47 46
30 31 48 47
31 32 49 48
32 33 50 49
33 34 51 50
35 36 53 52
36 37 54 53
37 38 55 54
38 39 56 55
39 40 57 56
40 41 58 57
41 42 59 58
42 43 60 59
43 44 61 60
44 45 62 61
45 46 63 62
46 47 64 63
47 48 65 64
48 49 66 65
49 50 67 66
50 51 68 67
52 53 70 69
53 54 71 70
54 55 72 71
55 56 73 72
56 57 74 73
57 58 75 74
58 59 76 75
59 60 77 76
60 61 78 77
61 62 79 78
62 63 80 79
63 64 81 80
64 65 82 81
65 66 83 82
66 67 84 83
67 68 85 84
69 70 87 86
70 71 88 87
71 72 89 88
72 73 90 89
73 74 91 90
74 75 92 91
75 76 93 92
76 77 94 93
77 78 95 94
78 79 96 95
79 80 97 96
80 81 98 97
81 82 99 98
82 83 100 99
83 84 101 100
84 85 102 101
86 87 104 103
87 88 105 104
88 89 106 105
89 90 107 106
90 91 108 107
91 92 109 108
92 93 110 109
93 94 111 110
94 95 112 111
95 96 113 112
96 97 114 113
97 98 115 114
98 99 116 115
99 100 117 116
100 101 118 117
101 102 119 118
103 104 121 120
104 105 122 121
105 106 123 122
106 107 124 123
107 108 125 124
108 109 126 125
109 110 127 126
110 111 128 127
111 112 129 128
112 113 130 129
113 114 131 130
114 115 132 131
115 116 133 132
116 117 134 133
117 118 135 134
118 119 136 135
120 121 138 137
121 122 139 138
122 123 140 139
123 124 141 140
124 125 142 141
125 126 143 142
126 127 144 143
127 128 145 144
128 129 146 145
129 130 147 146
130 131 148 147
131 132 149 148
132 133 150 149
133 134 151 150
134 135 152 151
135 136 153 152
