TITLE = "Solution"
VARIABLES = x, y, u, v, psiu, psiv, t, stress
ZONE T="structure" N=153 E=128 F=FEBLOCK ET=QUADRILATERAL VARLOCATION=([7,8]=cellcentered)
0.000000e+00
1.250000e+01
2.500000e+01
3.750000e+01
5.000000e+01
6.250000e+01
7.500000e+01
8.750000e+01
1.000000e+02
1.125000e+02
1.250000e+02
1.375000e+02
1.500000e+02
1.625000e+02
1.750000e+02
1.875000e+02
2.000000e+02
0.000000e+00
1.250000e+01
2.500000e+01
3.750000e+01
5.000000e+01
6.250000e+01
7.500000e+01
8.750000e+01
1.000000e+02
1.125000e+02
1.250000e+02
1.375000e+02
1.500000e+02
1.625000e+02
1.750000e+02
1.875000e+02
2.000000e+02
0.000000e+00
1.250000e+01
2.500000e+01
3.750000e+01
5.000000e+01
6.250000e+01
7.500000e+01
8.750000e+01
1.000000e+02
1.125000e+02
1.250000e+02
1.375000e+02
1.500000e+02
1.625000e+02
1.750000e+02
1.875000e+02
2.000000e+02
0.000000e+00
1.250000e+01
2.500000e+01
3.750000e+01
5.000000e+01
6.250000e+01
7.500000e+01
8.750000e+01
1.000000e+02
1.125000e+02
1.250000e+02
1.375000e+02
1.500000e+02
1.625000e+02
1.750000e+02
1.875000e+02
2.000000e+02
0.000000e+00
1.250000e+01
2.500000e+01
3.750000e+01
5.000000e+01
6.250000e+01
7.500000e+01
8.750000e+01
1.000000e+02
1.125000e+02
1.250000e+02
1.375000e+02
1.500000e+02
1.625000e+02
1.750000e+02
1.875000e+02
2.000000e+02
0.000000e+00
1.250000e+01
2.500000e+01
3.750000e+01
5.000000e+01
6.250000e+01
7.500000e+01
8.750000e+01
1.000000e+02
1.125000e+02
1.250000e+02
1.375000e+02
1.500000e+02
1.625000e+02
1.750000e+02
1.875000e+02
2.000000e+02
0.000000e+00
1.250000e+01
2.500000e+01
3.750000e+01
5.000000e+01
6.250000e+01
7.500000e+01
8.750000e+01
1.000000e+02
1.125000e+02
1.250000e+02
1.375000e+02
1.500000e+02
1.625000e+02
1.750000e+02
1.875000e+02
2.000000e+02
0.000000e+00
1.250000e+01
2.500000e+01
3.750000e+01
5.000000e+01
6.250000e+01
7.500000e+01
8.750000e+01
1.000000e+02
1.125000e+02
1.250000e+02
1.375000e+02
1.500000e+02
1.625000e+02
1.750000e+02
1.875000e+02
2.000000e+02
0.000000e+00
1.250000e+01
2.500000e+01
3.750000e+01
5.000000e+01
6.250000e+01
7.500000e+01
8.750000e+01
1.000000e+02
1.125000e+02
1.250000e+02
1.375000e+02
1.500000e+02
1.625000e+02
1.750000e+02
1.875000e+02
2.000000e+02
0.000000e+00
0.000000e+00
0.000000e+00
0.000000e+00
0.000000e+00
0.000000e+00
0.000000e+00
0.000000e+00
0.000000e+00
0.000000e+00
0.000000e+00
0.000000e+00
0.000000e+00
0.000000e+00
0.000000e+00
0.000000e+00
0.000000e+00
1.250000e+01
1.250000e+01
1.250000e+01
1.250000e+01
1.250000e+01
1.250000e+01
1.250000e+01
1.250000e+01
1.250000e+01
1.250000e+01
1.250000e+01
1.250000e+01
1.250000e+01
1.250000e+01
1.250000e+01
1.250000e+01
1.250000e+01
2.500000e+01
2.500000e+01
2.500000e+01
2.500000e+01
2.500000e+01
2.500000e+01
2.500000e+01
2.500000e+01
2.500000e+01
2.500000e+01
2.500000e+01
2.500000e+01
2.500000e+01
2.500000e+01
2.500000e+01
2.500000e+01
2.500000e+01
3.750000e+01
3.750000e+01
3.750000e+01
3.750000e+01
3.750000e+01
3.750000e+01
3.750000e+01
3.750000e+01
3.750000e+01
3.750000e+01
3.750000e+01
3.750000e+01
3.750000e+01
3.750000e+01
3.750000e+01
3.750000e+01
3.750000e+01
5.000000e+01
5.000000e+01
5.000000e+01
5.000000e+01
5.000000e+01
5.000000e+01
5.000000e+01
5.000000e+01
5.000000e+01
5.000000e+01
5.000000e+01
5.000000e+01
5.000000e+01
5.000000e+01
5.000000e+01
5.000000e+01
5.000000e+01
6.250000e+01
6.250000e+01
6.250000e+01
6.250000e+01
6.250000e+01
6.250000e+01
6.250000e+01
6.250000e+01
6.250000e+01
6.250000e+01
6.250000e+01
6.250000e+01
6.250000e+01
6.250000e+01
6.250000e+01
6.250000e+01
6.250000e+01
7.500000e+01
7.500000e+01
7.500000e+01
7.500000e+01
7.500000e+01
7.500000e+01
7.500000e+01
7.500000e+01
7.500000e+01
7.500000e+01
7.500000e+01
7.500000e+01
7.500000e+01
7.500000e+01
7.500000e+01
7.500000e+01
7.500000e+01
8.750000e+01
8.750000e+01
8.750000e+01
8.750000e+01
8.750000e+01
8.750000e+01
8.750000e+01
8.750000e+01
8.750000e+01
8.750000e+01
8.750000e+01
8.750000e+01
8.750000e+01
8.750000e+01
8.750000e+01
8.750000e+01
8.750000e+01
1.000000e+02
1.000000e+02
1.000000e+02
1.000000e+02
1.000000e+02
1.000000e+02
1.000000e+02
1.000000e+02
1.000000e+02
1.000000e+02
1.000000e+02
1.000000e+02
1.000000e+02
1.000000e+02
1.000000e+02
1.000000e+02
1.000000e+02
0.000000e+00
-9.152558e-01
-1.615330e+00
-2.311798e+00
-3.001842e+00
-3.661679e+00
-4.333321e+00
-5.004092e+00
-5.664589e+00
-6.327472e+00
-6.993472e+00
-7.670523e+00
-8.377054e+00
-9.114704e+00
-9.869413e+00
-1.056551e+01
-1.101288e+01
0.000000e+00
-4.505166e-01
-9.384515e-01
-1.440507e+00
-1.957857e+00
-2.452683e+00
-2.956190e+00
-3.460996e+00
-3.957380e+00
-4.453804e+00
-4.948974e+00
-5.442396e+00
-5.935743e+00
-6.403103e+00
-6.744933e+00
-6.832148e+00
-6.998801e+00
0.000000e+00
-2.026237e-01
-4.489842e-01
-7.593271e-01
-1.098272e+00
-1.431797e+00
-1.775211e+00
-2.119233e+00
-2.458262e+00
-2.794347e+00
-3.120407e+00
-3.425100e+00
-3.689918e+00
-3.876868e+00
-3.931112e+00
-3.909509e+00
-4.062154e+00
0.000000e+00
-8.588908e-02
-1.876735e-01
-3.289154e-01
-4.851780e-01
-6.537253e-01
-8.274591e-01
-9.998157e-01
-1.169113e+00
-1.330970e+00
-1.475609e+00
-1.587997e+00
-1.648371e+00
-1.639032e+00
-1.576600e+00
-1.573295e+00
-1.701788e+00
0.000000e+00
-1.696113e-03
-3.473858e-03
-5.128979e-03
-6.283617e-03
-6.309807e-03
-4.208891e-03
1.672346e-03
1.377826e-02
3.577741e-02
7.378301e-02
1.361813e-01
2.290339e-01
3.453136e-01
4.425856e-01
4.532340e-01
3.518571e-01
0.000000e+00
8.292646e-02
1.817580e-01
3.201474e-01
4.743840e-01
6.426626e-01
8.197373e-01
1.001952e+00
1.191677e+00
1.390975e+00
1.599469e+00
1.813221e+00
2.022285e+00
2.205981e+00
2.327485e+00
2.351545e+00
2.292073e+00
0.000000e+00
2.011407e-01
4.459706e-01
7.549307e-01
1.092730e+00
1.425714e+00
1.770490e+00
2.119219e+00
2.467154e+00
2.819738e+00
3.174270e+00
3.517109e+00
3.825021e+00
4.070132e+00
4.225875e+00
4.279373e+00
4.264479e+00
0.000000e+00
4.504809e-01
9.381066e-01
1.439948e+00
1.956848e+00
2.450200e+00
2.951549e+00
3.453050e+00
3.941893e+00
4.426959e+00
4.908150e+00
5.365879e+00
5.764073e+00
6.066307e+00
6.255011e+00
6.337299e+00
6.352482e+00
0.000000e+00
9.162223e-01
1.617355e+00
2.315345e+00
3.006771e+00
3.666410e+00
4.336090e+00
5.001376e+00
5.647842e+00
6.286990e+00
6.915798e+00
7.503688e+00
7.994949e+00
8.335296e+00
8.508000e+00
8.551845e+00
8.551097e+00
0.000000e+00
-5.723770e-01
-1.230344e+00
-2.102394e+00
-3.144661e+00
-4.353048e+00
-5.738847e+00
-7.295494e+00
-9.023064e+00
-1.092546e+01
-1.300191e+01
-1.525713e+01
-1.770209e+01
-2.034565e+01
-2.322530e+01
-2.654674e+01
-3.145591e+01
0.000000e+00
-3.720351e-01
-1.061365e+00
-1.922259e+00
-2.969619e+00
-4.179148e+00
-5.562881e+00
-7.121461e+00
-8.850521e+00
-1.075337e+01
-1.283052e+01
-1.508444e+01
-1.752824e+01
-2.018562e+01
-2.310537e+01
-2.644808e+01
-3.048403e+01
0.000000e+00
-3.282882e-01
-9.571812e-01
-1.808951e+00
-2.848698e+00
-4.055856e+00
-5.439453e+00
-6.998831e+00
-8.730275e+00
-1.063783e+01
-1.272248e+01
-1.498741e+01
-1.744797e+01
-2.013806e+01
-2.309627e+01
-2.627397e+01
-2.925563e+01
0.000000e+00
-3.540842e-01
-9.359450e-01
-1.761492e+00
-2.783669e+00
-3.986609e+00
-5.370353e+00
-6.930715e+00
-8.667069e+00
-1.058391e+01
-1.268344e+01
-1.496880e+01
-1.744954e+01
-2.014441e+01
-2.304127e+01
-2.594628e+01
-2.848177e+01
0.000000e+00
-3.657053e-01
-9.401323e-01
-1.750810e+00
-2.766873e+00
-3.968659e+00
-5.354360e+00
-6.918504e+00
-8.661414e+00
-1.058796e+01
-1.270180e+01
-1.500314e+01
-1.748794e+01
-2.014573e+01
-2.291092e+01
-2.559596e+01
-2.789180e+01
0.000000e+00
-3.538417e-01
-9.364726e-01
-1.764023e+00
-2.789702e+00
-3.997509e+00
-5.388312e+00
-6.958786e+00
-8.707379e+00
-1.063908e+01
-1.275878e+01
-1.506356e+01
-1.753577e+01
-2.013670e+01
-2.277925e+01
-2.530484e+01
-2.749488e+01
0.000000e+00
-3.280020e-01
-9.582092e-01
-1.813163e+00
-2.858520e+00
-4.073787e+00
-5.469144e+00
-7.045078e+00
-8.796563e+00
-1.072842e+01
-1.284603e+01
-1.514417e+01
-1.759564e+01
-2.014317e+01
-2.269331e+01
-2.512149e+01
-2.730409e+01
0.000000e+00
-3.718031e-01
-1.062554e+00
-1.926933e+00
-2.980474e+00
-4.199182e+00
-5.596259e+00
-7.173129e+00
-8.924401e+00
-1.085453e+01
-1.296708e+01
-1.525339e+01
-1.768072e+01
-2.018406e+01
-2.267061e+01
-2.504240e+01
-2.725773e+01
0.000000e+00
-5.723603e-01
-1.231763e+00
-2.107389e+00
-3.155704e+00
-4.373118e+00
-5.772058e+00
-7.345943e+00
-9.094074e+00
-1.102240e+01
-1.312920e+01
-1.539901e+01
-1.779455e+01
-2.025282e+01
-2.269048e+01
-2.502774e+01
-2.725836e+01


0.000000e+00
1.395622e-05
2.471843e-05
3.686547e-05
5.163517e-05
6.535951e-05
7.855600e-05
9.259881e-05
1.062135e-04
1.192334e-04
1.326242e-04
1.462133e-04
1.579958e-04
1.661492e-04
1.710538e-04
1.749752e-04
1.797270e-04
0.000000e+00
1.022338e-05
1.967389e-05
2.842341e-05
4.020253e-05
5.068051e-05
6.018924e-05
7.063711e-05
8.088117e-05
9.021114e-05
9.975436e-05
1.091804e-04
1.162559e-04
1.191735e-04
1.196363e-04
1.228220e-04
1.278647e-04
0.000000e+00
8.204354e-06
1.464903e-05
2.033750e-05
2.829442e-05
3.504557e-05
4.114739e-05
4.782732e-05
5.429418e-05
6.001017e-05
6.540477e-05
6.998676e-05
7.259625e-05
7.284541e-05
7.293140e-05
7.578037e-05
8.051492e-05
0.000000e+00
4.288063e-06
6.676758e-06
1.016339e-05
1.353653e-05
1.667344e-05
1.974938e-05
2.283075e-05
2.558505e-05
2.798054e-05
2.962964e-05
3.031407e-05
3.020727e-05
3.014317e-05
3.102351e-05
3.391026e-05
3.843999e-05
0.000000e+00
-3.956040e-08
-9.203664e-08
-1.575719e-07
-2.523733e-07
-3.744299e-07
-5.436556e-07
-8.084161e-07
-1.229297e-06
-1.895558e-06
-2.972750e-06
-4.407917e-06
-5.801705e-06
-6.405923e-06
-5.585562e-06
-3.664493e-06
-8.951451e-07
0.000000e+00
-4.340200e-06
-6.804860e-06
-1.042452e-05
-1.392893e-05
-1.722826e-05
-2.055144e-05
-2.395655e-05
-2.711144e-05
-3.023727e-05
-3.314422e-05
-3.574079e-05
-3.792866e-05
-3.926540e-05
-3.988424e-05
-3.993999e-05
-3.905264e-05
0.000000e+00
-8.173082e-06
-1.466964e-05
-2.046224e-05
-2.846227e-05
-3.529000e-05
-4.158234e-05
-4.827705e-05
-5.460388e-05
-6.030979e-05
-6.551288e-05
-6.955004e-05
-7.240495e-05
-7.446277e-05
-7.587361e-05
-7.671279e-05
-7.683635e-05
0.000000e+00
-1.015298e-05
-1.961150e-05
-2.840716e-05
-4.013317e-05
-5.060604e-05
-6.027404e-05
-7.064537e-05
-8.065825e-05
-9.008386e-05
-9.908515e-05
-1.061768e-04
-1.107154e-04
-1.134495e-04
-1.149764e-04
-1.156482e-04
-1.158004e-04
0.000000e+00
-1.391369e-05
-2.463612e-05
-3.674822e-05
-5.137321e-05
-6.496877e-05
-7.814677e-05
-9.203242e-05
-1.054151e-04
-1.187011e-04
-1.319536e-04
-1.430961e-04
-1.506245e-04
-1.545107e-04
-1.558190e-04
-1.559539e-04
-1.558971e-04
0.000000e+00
1.179147e-05
1.962476e-05
3.113194e-05
4.640321e-05
6.362771e-05
8.490313e-05
1.105580e-04
1.393119e-04
1.716692e-04
2.082784e-04
2.483850e-04
2.910217e-04
3.367942e-04
3.896564e-04
4.497384e-04
5.106599e-04
0.000000e+00
6.703641e-06
1.519352e-05
2.527000e-05
4.003725e-05
5.784965e-05
7.906123e-05
1.044584e-04
1.335510e-04
1.660862e-04
2.025783e-04
2.431326e-04
2.873640e-04
3.348181e-04
3.861456e-04
4.435813e-04
5.025112e-04
0.000000e+00
3.334887e-06
1.112653e-05
2.076579e-05
3.500232e-05
5.339777e-05
7.486267e-05
1.000981e-04
1.293974e-04
1.622806e-04
1.989049e-04
2.399229e-04
2.853198e-04
3.338398e-04
3.822917e-04
4.359257e-04
4.924137e-04
0.000000e+00
2.196891e-06
9.029883e-06
1.877603e-05
3.290134e-05
5.149812e-05
7.323331e-05
9.849153e-05
1.277746e-04
1.609153e-04
1.978370e-04
2.389398e-04
2.846021e-04
3.328768e-04
3.792883e-04
4.282269e-04
4.801200e-04
0.000000e+00
1.906699e-06
8.452000e-06
1.814867e-05
3.236410e-05
5.088183e-05
7.276148e-05
9.808260e-05
1.273530e-04
1.606499e-04
1.978504e-04
2.390449e-04
2.845651e-04
3.326561e-04
3.779108e-04
4.227135e-04
4.689923e-04
0.000000e+00
2.229361e-06
9.063544e-06
1.883524e-05
3.294684e-05
5.146887e-05
7.319194e-05
9.848803e-05
1.277746e-04
1.611537e-04
1.986883e-04
2.402949e-04
2.857792e-04
3.329475e-04
3.780240e-04
4.207203e-04
4.623240e-04
0.000000e+00
3.376918e-06
1.118388e-05
2.086151e-05
3.506310e-05
5.333474e-05
7.478284e-05
1.000313e-04
1.293097e-04
1.627012e-04
2.005765e-04
2.426466e-04
2.878120e-04
3.338071e-04
3.779730e-04
4.198433e-04
4.599043e-04
0.000000e+00
6.742116e-06
1.527587e-05
2.538433e-05
4.010603e-05
5.782089e-05
7.898406e-05
1.043049e-04
1.333724e-04
1.664764e-04
2.042049e-04
2.457902e-04
2.898884e-04
3.345952e-04
3.779207e-04
4.194147e-04
4.595845e-04
0.000000e+00
1.181876e-05
1.972279e-05
3.125030e-05
4.646101e-05
6.365348e-05
8.487939e-05
1.103585e-04
1.391418e-04
1.720844e-04
2.092770e-04
2.494541e-04
2.918983e-04
3.353272e-04
3.780019e-04
4.193134e-04
4.596352e-04


2.988254e+00
2.835723e+00
2.834653e+00
2.840197e+00
2.853255e+00
3.111249e+00
3.358933e+00
3.662818e+00
4.123874e+00
4.692882e+00
5.453345e+00
6.408383e+00
7.222696e+00
7.299184e+00
6.297751e+00
5.229450e+00
4.988354e+00
4.777264e+00
4.732862e+00
4.639720e+00
4.584861e+00
4.726561e+00
4.867646e+00
5.061914e+00
5.377379e+00
5.762362e+00
6.267894e+00
6.892179e+00
7.381883e+00
7.126522e+00
5.833413e+00
4.524843e+00
7.171202e+00
7.083147e+00
7.003948e+00
6.897764e+00
6.796845e+00
6.806683e+00
6.813828e+00
6.857735e+00
6.962784e+00
7.074539e+00
7.200608e+00
7.357793e+00
7.441830e+00
6.988690e+00
5.769107e+00
4.695532e+00
8.159998e+00
8.116412e+00
8.082577e+00
7.980894e+00
7.897101e+00
7.828165e+00
7.758607e+00
7.716061e+00
7.675310e+00
7.584115e+00
7.431708e+00
7.269464e+00
7.161346e+00
6.904552e+00
6.356470e+00
5.906397e+00
8.160333e+00
8.117199e+00
8.083148e+00
7.977967e+00
7.886471e+00
7.806812e+00
7.721185e+00
7.646619e+00
7.549185e+00
7.378651e+00
7.140677e+00
6.932752e+00
6.903830e+00
7.002222e+00
7.079742e+00
7.109936e+00
7.169216e+00
7.080822e+00
6.998952e+00
6.881840e+00
6.759049e+00
6.740907e+00
6.704736e+00
6.667813e+00
6.660351e+00
6.660761e+00
6.685555e+00
6.785520e+00
7.031804e+00
7.385567e+00
7.695370e+00
7.866109e+00
4.983696e+00
4.770019e+00
4.721239e+00
4.616083e+00
4.538830e+00
4.655901e+00
4.763020e+00
4.901962e+00
5.196013e+00
5.656556e+00
6.241759e+00
6.848625e+00
7.385426e+00
7.814576e+00
8.092385e+00
8.215285e+00
2.984396e+00
2.829435e+00
2.825951e+00
2.825697e+00
2.828388e+00
3.083426e+00
3.334236e+00
3.653531e+00
4.228663e+00
5.070174e+00
6.067018e+00
6.983745e+00
7.647321e+00
8.053524e+00
8.258271e+00
8.332353e+00


-6.407947e-01
-2.518261e-01
-2.598112e-01
-2.784427e-01
-1.730532e-01
-2.147869e-01
-2.173617e-01
-1.821145e-01
-1.888317e-01
-1.938125e-01
-2.119325e-01
-2.667251e-01
-2.612544e-01
-2.936017e-02
4.557048e-01
-7.441860e-01
5.680720e-01
4.158641e-01
3.190889e-01
2.528766e-01
2.924647e-01
2.539026e-01
2.381256e-01
2.460441e-01
2.362934e-01
2.437446e-01
2.795410e-01
3.527754e-01
5.123189e-01
7.577061e-01
7.323260e-01
-1.186267e+00
8.057237e-01
6.310126e-01
4.546666e-01
3.911768e-01
3.819686e-01
3.507655e-01
3.426566e-01
3.449169e-01
3.451445e-01
3.661802e-01
4.141797e-01
4.759704e-01
5.010468e-01
3.815296e-01
1.276228e-01
-2.985517e-01
8.372201e-01
6.859205e-01
4.910067e-01
3.891130e-01
3.442401e-01
3.231295e-01
3.237508e-01
3.313233e-01
3.367034e-01
3.393084e-01
3.287078e-01
2.757962e-01
1.268492e-01
-1.008015e-01
-1.149396e-01
2.822017e-02
8.384433e-01
6.875027e-01
4.928947e-01
3.896881e-01
3.419219e-01
3.144042e-01
3.038130e-01
2.951854e-01
2.751015e-01
2.355400e-01
1.675369e-01
6.380012e-02
-7.029613e-02
-1.278542e-01
6.107219e-02
4.358936e-01
8.087258e-01
6.350911e-01
4.592452e-01
3.934029e-01
3.785823e-01
3.345334e-01
3.032163e-01
2.710674e-01
2.122275e-01
1.337105e-01
5.203693e-02
-6.387257e-03
-1.755730e-03
1.376218e-01
4.408200e-01
7.960186e-01
5.703972e-01
4.186601e-01
3.209674e-01
2.532162e-01
2.903711e-01
2.436191e-01
2.129342e-01
2.021809e-01
1.527065e-01
8.713872e-02
5.667423e-02
1.100320e-01
2.646535e-01
5.064179e-01
7.779904e-01
9.623678e-01
-6.424610e-01
-2.534040e-01
-2.626938e-01
-2.808028e-01
-1.706655e-01
-2.086008e-01
-2.036426e-01
-1.468543e-01
-1.341508e-01
-1.198311e-01
-1.524386e-02
2.335572e-01
5.603005e-01
8.260890e-01
9.642814e-01
9.992246e-01
1 2 19 18
2 3 20 19
3 4 21 20
4 5 22 21
5 6 23 22
6 7 24 23
7 8 25 24
8 9 26 25
9 10 27 26
10 11 28 27
11 12 29 28
12 13 30 29
13 14 31 30
14 15 32 31
15 16 33 32
16 17 34 33
18 19 36 35
19 20 37 36
20 21 38 37
21 22 39 38
22 23 40 39
23 24 41 40
24 25 42 41
25 26 43 42
26 27 44 43
27 28 45 44
28 29 46 45
29 30 47 46
30 31 48 47
31 32 49 48
32 33 50 49
33 34 51 50
35 36 53 52
36 37 54 53
37 38 55 54
38 39 56 55
39 40 57 56
40 41 58 57
41 42 59 58
42 43 60 59
43 44 61 60
44 45 62 61
45 46 63 62
46 47 64 63
47 48 65 64
48 49 66 65
49 50 67 66
50 51 68 67
52 53 70 69
53 54 71 70
54 55 72 71
55 56 73 72
56 57 74 73
57 58 75 74
58 59 76 75
59 60 77 76
60 61 78 77
61 62 79 78
62 63 80 79
63 64 81 80
64 65 82 81
65 66 83 82
66 67 84 83
67 68 85 84
69 70 87 86
70 71 88 87
71 72 89 88
72 73 90 89
73 74 91 90
74 75 92 91
75 76 93 92
76 77 94 93
77 78 95 94
78 79 96 95
79 80 97 96
80 81 98 97
81 82 99 98
82 83 100 99
83 84 101 100
84 85 102 101
86 87 104 103
87 88 105 104
88 89 106 105
89 90 107 106
90 91 108 107
91 92 109 108
92 93 110 109
93 94 111 110
94 95 112 111
95 96 113 112
96 97 114 113
97 98 115 114
98 99 116 115
99 100 117 116
100 101 118 117
101 102 119 118
103 104 121 120
104 105 122 121
105 106 123 122
106 107 124 123
107 108 125 124
108 109 126 125
109 110 127 126
110 111 128 127
111 112 129 128
112 113 130 129
113 114 131 130
114 115 132 131
115 116 133 132
116 117 134 133
117 118 135 134
118 119 136 135
120 121 138 137
121 122 139 138
122 123 140 139
123 124 141 140
124 125 142 141
125 126 143 142
126 127 144 143
127 128 145 144
128 129 146 145
129 130 147 146
130 131 148 147
131 132 149 148
132 133 150 149
133 134 151 150
134 135 152 151
135 136 153 152
