TITLE = "Solution"
VARIABLES = x, y, u, v, psiu, psiv, t, stress
ZONE T="structure" N=153 E=128 F=FEBLOCK ET=QUADRILATERAL VARLOCATION=([7,8]=cellcentered)
0.000000e+00
1.250000e+01
2.500000e+01
3.750000e+01
5.000000e+01
6.250000e+01
7.500000e+01
8.750000e+01
1.000000e+02
1.125000e+02
1.250000e+02
1.375000e+02
1.500000e+02
1.625000e+02
1.750000e+02
1.875000e+02
2.000000e+02
0.000000e+00
1.250000e+01
2.500000e+01
3.750000e+01
5.000000e+01
6.250000e+01
7.500000e+01
8.750000e+01
1.000000e+02
1.125000e+02
1.250000e+02
1.375000e+02
1.500000e+02
1.625000e+02
1.750000e+02
1.875000e+02
2.000000e+02
0.000000e+00
1.250000e+01
2.500000e+01
3.750000e+01
5.000000e+01
6.250000e+01
7.500000e+01
8.750000e+01
1.000000e+02
1.125000e+02
1.250000e+02
1.375000e+02
1.500000e+02
1.625000e+02
1.750000e+02
1.875000e+02
2.000000e+02
0.000000e+00
1.250000e+01
2.500000e+01
3.750000e+01
5.000000e+01
6.250000e+01
7.500000e+01
8.750000e+01
1.000000e+02
1.125000e+02
1.250000e+02
1.375000e+02
1.500000e+02
1.625000e+02
1.750000e+02
1.875000e+02
2.000000e+02
0.000000e+00
1.250000e+01
2.500000e+01
3.750000e+01
5.000000e+01
6.250000e+01
7.500000e+01
8.750000e+01
1.000000e+02
1.125000e+02
1.250000e+02
1.375000e+02
1.500000e+02
1.625000e+02
1.750000e+02
1.875000e+02
2.000000e+02
0.000000e+00
1.250000e+01
2.500000e+01
3.750000e+01
5.000000e+01
6.250000e+01
7.500000e+01
8.750000e+01
1.000000e+02
1.125000e+02
1.250000e+02
1.375000e+02
1.500000e+02
1.625000e+02
1.750000e+02
1.875000e+02
2.000000e+02
0.000000e+00
1.250000e+01
2.500000e+01
3.750000e+01
5.000000e+01
6.250000e+01
7.500000e+01
8.750000e+01
1.000000e+02
1.125000e+02
1.250000e+02
1.375000e+02
1.500000e+02
1.625000e+02
1.750000e+02
1.875000e+02
2.000000e+02
0.000000e+00
1.250000e+01
2.500000e+01
3.750000e+01
5.000000e+01
6.250000e+01
7.500000e+01
8.750000e+01
1.000000e+02
1.125000e+02
1.250000e+02
1.375000e+02
1.500000e+02
1.625000e+02
1.750000e+02
1.875000e+02
2.000000e+02
0.000000e+00
1.250000e+01
2.500000e+01
3.750000e+01
5.000000e+01
6.250000e+01
7.500000e+01
8.750000e+01
1.000000e+02
1.125000e+02
1.250000e+02
1.375000e+02
1.500000e+02
1.625000e+02
1.750000e+02
1.875000e+02
2.000000e+02
0.000000e+00
0.000000e+00
0.000000e+00
0.000000e+00
0.000000e+00
0.000000e+00
0.000000e+00
0.000000e+00
0.000000e+00
0.000000e+00
0.000000e+00
0.000000e+00
0.000000e+00
0.000000e+00
0.000000e+00
0.000000e+00
0.000000e+00
1.250000e+01
1.250000e+01
1.250000e+01
1.250000e+01
1.250000e+01
1.250000e+01
1.250000e+01
1.250000e+01
1.250000e+01
1.250000e+01
1.250000e+01
1.250000e+01
1.250000e+01
1.250000e+01
1.250000e+01
1.250000e+01
1.250000e+01
2.500000e+01
2.500000e+01
2.500000e+01
2.500000e+01
2.500000e+01
2.500000e+01
2.500000e+01
2.500000e+01
2.500000e+01
2.500000e+01
2.500000e+01
2.500000e+01
2.500000e+01
2.500000e+01
2.500000e+01
2.500000e+01
2.500000e+01
3.750000e+01
3.750000e+01
3.750000e+01
3.750000e+01
3.750000e+01
3.750000e+01
3.750000e+01
3.750000e+01
3.750000e+01
3.750000e+01
3.750000e+01
3.750000e+01
3.750000e+01
3.750000e+01
3.750000e+01
3.750000e+01
3.750000e+01
5.000000e+01
5.000000e+01
5.000000e+01
5.000000e+01
5.000000e+01
5.000000e+01
5.000000e+01
5.000000e+01
5.000000e+01
5.000000e+01
5.000000e+01
5.000000e+01
5.000000e+01
5.000000e+01
5.000000e+01
5.000000e+01
5.000000e+01
6.250000e+01
6.250000e+01
6.250000e+01
6.250000e+01
6.250000e+01
6.250000e+01
6.250000e+01
6.250000e+01
6.250000e+01
6.250000e+01
6.250000e+01
6.250000e+01
6.250000e+01
6.250000e+01
6.250000e+01
6.250000e+01
6.250000e+01
7.500000e+01
7.500000e+01
7.500000e+01
7.500000e+01
7.500000e+01
7.500000e+01
7.500000e+01
7.500000e+01
7.500000e+01
7.500000e+01
7.500000e+01
7.500000e+01
7.500000e+01
7.500000e+01
7.500000e+01
7.500000e+01
7.500000e+01
8.750000e+01
8.750000e+01
8.750000e+01
8.750000e+01
8.750000e+01
8.750000e+01
8.750000e+01
8.750000e+01
8.750000e+01
8.750000e+01
8.750000e+01
8.750000e+01
8.750000e+01
8.750000e+01
8.750000e+01
8.750000e+01
8.750000e+01
1.000000e+02
1.000000e+02
1.000000e+02
1.000000e+02
1.000000e+02
1.000000e+02
1.000000e+02
1.000000e+02
1.000000e+02
1.000000e+02
1.000000e+02
1.000000e+02
1.000000e+02
1.000000e+02
1.000000e+02
1.000000e+02
1.000000e+02
0.000000e+00
-8.986701e-01
-1.592642e+00
-2.282605e+00
-2.972991e+00
-3.634402e+00
-4.303435e+00
-4.973925e+00
-5.635021e+00
-6.295685e+00
-6.961980e+00
-7.640984e+00
-8.336982e+00
-9.043857e+00
-9.753619e+00
-1.043037e+01
-1.087295e+01
0.000000e+00
-4.535683e-01
-9.431868e-01
-1.443910e+00
-1.960766e+00
-2.456095e+00
-2.956713e+00
-3.460140e+00
-3.956107e+00
-4.449431e+00
-4.942270e+00
-5.434066e+00
-5.916837e+00
-6.357801e+00
-6.669766e+00
-6.747191e+00
-6.908426e+00
0.000000e+00
-2.162641e-01
-4.718107e-01
-7.847419e-01
-1.122957e+00
-1.455886e+00
-1.796295e+00
-2.138218e+00
-2.475041e+00
-2.806321e+00
-3.126436e+00
-3.423933e+00
-3.677461e+00
-3.849081e+00
-3.891997e+00
-3.866945e+00
-4.020016e+00
0.000000e+00
-9.126020e-02
-1.992192e-01
-3.430255e-01
-5.011862e-01
-6.688353e-01
-8.409945e-01
-1.012171e+00
-1.179195e+00
-1.336968e+00
-1.476232e+00
-1.582797e+00
-1.638192e+00
-1.626876e+00
-1.567720e+00
-1.567471e+00
-1.696663e+00
0.000000e+00
-1.344372e-03
-2.706582e-03
-3.884748e-03
-4.546204e-03
-4.138751e-03
-1.637476e-03
4.680376e-03
1.725559e-02
3.977621e-02
7.824011e-02
1.403006e-01
2.307982e-01
3.412464e-01
4.299222e-01
4.344940e-01
3.341092e-01
0.000000e+00
8.892091e-02
1.945712e-01
3.362792e-01
4.931871e-01
6.613560e-01
8.375078e-01
1.018835e+00
1.206244e+00
1.401174e+00
1.603509e+00
1.809752e+00
2.010378e+00
2.184633e+00
2.297486e+00
2.317733e+00
2.260814e+00
0.000000e+00
2.150025e-01
4.692787e-01
7.810339e-01
1.118215e+00
1.450832e+00
1.792663e+00
2.138260e+00
2.482366e+00
2.828991e+00
3.175740e+00
3.508465e+00
3.804479e+00
4.037976e+00
4.184847e+00
4.235032e+00
4.221442e+00
0.000000e+00
4.533977e-01
9.428162e-01
1.443381e+00
1.959611e+00
2.453749e+00
2.952832e+00
3.452538e+00
3.940614e+00
4.424131e+00
4.902423e+00
5.352446e+00
5.737076e+00
6.024550e+00
6.201998e+00
6.278897e+00
6.293170e+00
0.000000e+00
8.992844e-01
1.594286e+00
2.285658e+00
2.977065e+00
3.638634e+00
4.306869e+00
4.972607e+00
5.621582e+00
6.263344e+00
6.893351e+00
7.474195e+00
7.948446e+00
8.270054e+00
8.430305e+00
8.470013e+00
8.468973e+00
0.000000e+00
-5.592234e-01
-1.191305e+00
-2.030235e+00
-3.039401e+00
-4.215611e+00
-5.569958e+00
-7.097447e+00
-8.796297e+00
-1.066956e+01
-1.271877e+01
-1.494753e+01
-1.736084e+01
-1.996498e+01
-2.280512e+01
-2.608993e+01
-3.093059e+01
0.000000e+00
-3.610014e-01
-1.022789e+00
-1.850678e+00
-2.863791e+00
-4.041906e+00
-5.394492e+00
-6.923469e+00
-8.624331e+00
-1.049822e+01
-1.254742e+01
-1.477617e+01
-1.719301e+01
-1.981520e+01
-2.269027e+01
-2.598878e+01
-2.998889e+01
0.000000e+00
-3.129826e-01
-9.169688e-01
-1.735955e+00
-2.742278e+00
-3.918495e+00
-5.271051e+00
-6.801371e+00
-8.505281e+00
-1.038406e+01
-1.244081e+01
-1.468128e+01
-1.711692e+01
-1.977238e+01
-2.268010e+01
-2.581009e+01
-2.875458e+01
0.000000e+00
-3.301455e-01
-8.898037e-01
-1.684447e+00
-2.675866e+00
-3.847804e+00
-5.200949e+00
-6.733502e+00
-8.442869e+00
-1.033123e+01
-1.240292e+01
-1.466308e+01
-1.711838e+01
-1.977903e+01
-2.262492e+01
-2.547783e+01
-2.797448e+01
0.000000e+00
-3.398740e-01
-8.905426e-01
-1.672378e+00
-2.657763e+00
-3.828477e+00
-5.183870e+00
-6.720602e+00
-8.436508e+00
-1.033489e+01
-1.242117e+01
-1.469668e+01
-1.715550e+01
-1.977982e+01
-2.249811e+01
-2.513145e+01
-2.739333e+01
0.000000e+00
-3.299457e-01
-8.902678e-01
-1.686638e+00
-2.680987e+00
-3.857266e+00
-5.217137e+00
-6.759072e+00
-8.479897e+00
-1.038384e+01
-1.247732e+01
-1.475722e+01
-1.720327e+01
-1.977101e+01
-2.237026e+01
-2.485084e+01
-2.701374e+01
0.000000e+00
-3.127059e-01
-9.177803e-01
-1.739514e+00
-2.750577e+00
-3.933924e+00
-5.297445e+00
-6.843117e+00
-8.566071e+00
-1.047072e+01
-1.256379e+01
-1.483856e+01
-1.726355e+01
-1.977769e+01
-2.228750e+01
-2.467735e+01
-2.683593e+01
0.000000e+00
-3.607400e-01
-1.023705e+00
-1.854586e+00
-2.872978e+00
-4.059179e+00
-5.423961e+00
-6.969860e+00
-8.692303e+00
-1.059558e+01
-1.268424e+01
-1.494734e+01
-1.734727e+01
-1.981685e+01
-2.226560e+01
-2.460324e+01
-2.679390e+01
0.000000e+00
-5.591335e-01
-1.192444e+00
-2.034387e+00
-3.048746e+00
-4.233060e+00
-5.599308e+00
-7.142621e+00
-8.862079e+00
-1.076365e+01
-1.284582e+01
-1.509030e+01
-1.745668e+01
-1.988148e+01
-2.228375e+01
-2.458944e+01
-2.679484e+01


0.000000e+00
1.351412e-05
2.428440e-05
3.600682e-05
5.006103e-05
6.337458e-05
7.607840e-05
8.916822e-05
1.017992e-04
1.138539e-04
1.258541e-04
1.369904e-04
1.456142e-04
1.513767e-04
1.551850e-04
1.586657e-04
1.627000e-04
0.000000e+00
9.978285e-06
1.958539e-05
2.820248e-05
3.935996e-05
4.959154e-05
5.887073e-05
6.861739e-05
7.808939e-05
8.682715e-05
9.540034e-05
1.029655e-04
1.077160e-04
1.091254e-04
1.092820e-04
1.121393e-04
1.167786e-04
0.000000e+00
7.955353e-06
1.464731e-05
2.046408e-05
2.802030e-05
3.468710e-05
4.075191e-05
4.704944e-05
5.300031e-05
5.825579e-05
6.301308e-05
6.666439e-05
6.835814e-05
6.826491e-05
6.832312e-05
7.107829e-05
7.570608e-05
0.000000e+00
4.140424e-06
6.877830e-06
1.048726e-05
1.386069e-05
1.697807e-05
2.004277e-05
2.301998e-05
2.560006e-05
2.775242e-05
2.931317e-05
3.011884e-05
3.030685e-05
3.047602e-05
3.132877e-05
3.385912e-05
3.779103e-05
0.000000e+00
-3.568877e-08
-7.809907e-08
-1.284007e-07
-1.908545e-07
-2.663270e-07
-3.715414e-07
-5.273143e-07
-7.675326e-07
-1.188994e-06
-1.906279e-06
-2.812426e-06
-3.556179e-06
-3.639224e-06
-2.820684e-06
-1.352761e-06
8.269359e-07
0.000000e+00
-4.200234e-06
-7.008816e-06
-1.071170e-05
-1.417257e-05
-1.740172e-05
-2.062822e-05
-2.377370e-05
-2.655887e-05
-2.917579e-05
-3.157769e-05
-3.363499e-05
-3.512928e-05
-3.585073e-05
-3.609854e-05
-3.607978e-05
-3.540635e-05
0.000000e+00
-7.975450e-06
-1.472298e-05
-2.059406e-05
-2.818276e-05
-3.493520e-05
-4.110901e-05
-4.738045e-05
-5.327927e-05
-5.848812e-05
-6.290672e-05
-6.610362e-05
-6.815575e-05
-6.945793e-05
-7.031429e-05
-7.082624e-05
-7.083463e-05
0.000000e+00
-9.968684e-06
-1.960132e-05
-2.822292e-05
-3.934447e-05
-4.961849e-05
-5.896635e-05
-6.860839e-05
-7.806492e-05
-8.684623e-05
-9.450072e-05
-9.997582e-05
-1.032235e-04
-1.050851e-04
-1.061431e-04
-1.066405e-04
-1.067472e-04
0.000000e+00
-1.351174e-05
-2.426693e-05
-3.594270e-05
-4.989267e-05
-6.314597e-05
-7.580012e-05
-8.871912e-05
-1.013099e-04
-1.135439e-04
-1.247984e-04
-1.335125e-04
-1.390649e-04
-1.419455e-04
-1.430912e-04
-1.433459e-04
-1.433482e-04
0.000000e+00
1.148599e-05
1.909839e-05
2.981392e-05
4.402715e-05
6.025912e-05
8.018116e-05
1.040981e-04
1.309996e-04
1.611128e-04
1.946228e-04
2.305499e-04
2.682452e-04
3.087703e-04
3.557440e-04
4.096854e-04
4.641300e-04
0.000000e+00
6.401570e-06
1.463342e-05
2.417641e-05
3.786561e-05
5.457251e-05
7.457885e-05
9.841568e-05
1.256165e-04
1.559446e-04
1.896857e-04
2.265434e-04
2.658319e-04
3.075042e-04
3.526951e-04
4.040466e-04
4.569342e-04
0.000000e+00
3.041659e-06
1.059572e-05
1.992153e-05
3.310806e-05
5.019726e-05
7.049059e-05
9.438750e-05
1.218439e-04
1.525055e-04
1.865863e-04
2.241723e-04
2.646080e-04
3.067130e-04
3.489075e-04
3.964862e-04
4.471416e-04
0.000000e+00
1.863149e-06
8.540512e-06
1.808101e-05
3.121128e-05
4.827754e-05
6.874477e-05
9.284680e-05
1.204599e-04
1.513525e-04
1.856902e-04
2.234477e-04
2.640755e-04
3.058256e-04
3.459338e-04
3.892824e-04
4.361794e-04
0.000000e+00
1.566088e-06
7.951994e-06
1.749943e-05
3.074203e-05
4.766147e-05
6.819803e-05
9.242915e-05
1.201220e-04
1.511759e-04
1.857131e-04
2.234985e-04
2.639188e-04
3.053766e-04
3.447708e-04
3.848753e-04
4.271430e-04
0.000000e+00
1.881748e-06
8.567816e-06
1.811143e-05
3.120513e-05
4.822456e-05
6.869949e-05
9.280865e-05
1.204552e-04
1.516448e-04
1.864466e-04
2.243954e-04
2.646140e-04
3.054273e-04
3.449142e-04
3.835254e-04
4.219633e-04
0.000000e+00
3.070293e-06
1.064300e-05
1.997188e-05
3.310224e-05
5.012173e-05
7.041215e-05
9.427662e-05
1.217960e-04
1.530293e-04
1.880315e-04
2.260841e-04
2.659002e-04
3.059768e-04
3.450222e-04
3.829995e-04
4.199296e-04
0.000000e+00
6.438763e-06
1.469665e-05
2.423591e-05
3.787804e-05
5.452584e-05
7.448582e-05
9.825642e-05
1.255489e-04
1.564411e-04
1.910219e-04
2.283706e-04
2.672801e-04
3.065335e-04
3.451051e-04
3.827313e-04
4.195026e-04
0.000000e+00
1.152870e-05
1.916972e-05
2.986872e-05
4.404605e-05
6.025425e-05
8.009416e-05
1.039240e-04
1.309986e-04
1.615072e-04
1.951962e-04
2.311251e-04
2.687172e-04
3.070935e-04
3.452469e-04
3.826743e-04
4.194914e-04


2.718780e+00
2.587967e+00
2.643840e+00
2.712406e+00
2.767636e+00
3.032453e+00
3.314256e+00
3.636635e+00
4.098132e+00
4.702858e+00
5.465743e+00
6.275414e+00
6.839926e+00
6.723344e+00
5.744140e+00
4.799905e+00
4.386429e+00
4.230088e+00
4.235371e+00
4.222668e+00
4.220615e+00
4.389739e+00
4.574125e+00
4.783590e+00
5.092992e+00
5.508388e+00
6.036867e+00
6.592711e+00
6.933980e+00
6.592509e+00
5.421903e+00
4.310601e+00
6.355882e+00
6.289721e+00
6.257405e+00
6.198563e+00
6.148861e+00
6.212128e+00
6.273537e+00
6.327098e+00
6.417149e+00
6.549962e+00
6.728317e+00
6.916710e+00
6.987045e+00
6.562290e+00
5.502600e+00
4.597306e+00
7.340591e+00
7.316823e+00
7.299984e+00
7.221120e+00
7.173767e+00
7.179689e+00
7.174864e+00
7.136346e+00
7.080290e+00
7.019476e+00
6.956569e+00
6.907064e+00
6.867622e+00
6.640233e+00
6.125733e+00
5.697274e+00
7.339072e+00
7.315691e+00
7.299320e+00
7.218854e+00
7.166277e+00
7.162865e+00
7.142566e+00
7.080505e+00
6.994730e+00
6.897635e+00
6.794847e+00
6.729849e+00
6.756888e+00
6.795621e+00
6.753855e+00
6.695100e+00
6.351322e+00
6.285476e+00
6.252627e+00
6.188000e+00
6.125363e+00
6.168211e+00
6.192996e+00
6.194019e+00
6.238355e+00
6.336157e+00
6.463572e+00
6.617262e+00
6.818174e+00
7.031353e+00
7.188899e+00
7.270137e+00
4.380916e+00
4.224051e+00
4.227491e+00
4.207774e+00
4.194661e+00
4.350621e+00
4.509142e+00
4.692118e+00
5.032430e+00
5.531574e+00
6.087556e+00
6.587243e+00
6.979189e+00
7.262948e+00
7.445525e+00
7.533658e+00
2.714621e+00
2.583621e+00
2.638497e+00
2.702927e+00
2.755141e+00
3.023158e+00
3.306494e+00
3.652108e+00
4.234431e+00
5.039472e+00
5.898673e+00
6.617937e+00
7.109072e+00
7.402070e+00
7.561857e+00
7.635645e+00


-6.084886e-01
-2.410820e-01
-2.432499e-01
-2.777414e-01
-1.769780e-01
-2.037754e-01
-2.140869e-01
-1.822877e-01
-1.778297e-01
-1.890832e-01
-2.109380e-01
-2.200058e-01
-1.421415e-01
1.043963e-01
4.943538e-01
-6.841713e-01
5.552238e-01
4.121705e-01
3.271086e-01
2.638657e-01
3.004672e-01
2.709497e-01
2.513602e-01
2.585576e-01
2.592716e-01
2.692046e-01
3.069906e-01
3.991857e-01
5.764146e-01
7.999567e-01
7.397271e-01
-1.224523e+00
8.167722e-01
6.636663e-01
5.129894e-01
4.530343e-01
4.429764e-01
4.147737e-01
4.011514e-01
4.025665e-01
4.086384e-01
4.291170e-01
4.705287e-01
5.262859e-01
5.484497e-01
4.344108e-01
1.594388e-01
-3.170301e-01
8.625959e-01
7.274257e-01
5.638175e-01
4.755241e-01
4.368302e-01
4.148377e-01
4.083547e-01
4.123633e-01
4.155083e-01
4.091185e-01
3.839502e-01
3.194484e-01
1.766144e-01
-2.121864e-02
-4.074492e-02
6.223530e-02
8.635954e-01
7.286200e-01
5.649050e-01
4.751923e-01
4.334253e-01
4.049712e-01
3.875488e-01
3.748038e-01
3.500265e-01
2.991517e-01
2.167287e-01
1.041085e-01
-1.914415e-02
-5.030170e-02
1.413631e-01
4.831053e-01
8.192259e-01
6.666738e-01
5.157721e-01
4.532432e-01
4.369671e-01
3.956225e-01
3.601129e-01
3.268383e-01
2.705021e-01
1.912457e-01
1.085884e-01
5.217600e-02
6.581014e-02
2.129902e-01
5.001103e-01
8.201163e-01
5.573576e-01
4.143681e-01
3.285952e-01
2.644926e-01
2.980422e-01
2.606643e-01
2.304373e-01
2.206348e-01
1.789350e-01
1.218685e-01
1.062764e-01
1.745061e-01
3.312016e-01
5.605265e-01
8.057930e-01
9.676772e-01
-6.090885e-01
-2.428059e-01
-2.459381e-01
-2.789201e-01
-1.757476e-01
-2.008389e-01
-2.004025e-01
-1.492968e-01
-1.344831e-01
-1.136777e-01
1.584288e-02
2.865775e-01
6.048012e-01
8.477598e-01
9.693627e-01
9.993687e-01
1 2 19 18
2 3 20 19
3 4 21 20
4 5 22 21
5 6 23 22
6 7 24 23
7 8 25 24
8 9 26 25
9 10 27 26
10 11 28 27
11 12 29 28
12 13 30 29
13 14 31 30
14 15 32 31
15 16 33 32
16 17 34 33
18 19 36 35
19 20 37 36
20 21 38 37
21 22 39 38
22 23 40 39
23 24 41 40
24 25 42 41
25 26 43 42
26 27 44 43
27 28 45 44
28 29 46 45
29 30 47 46
30 31 48 47
31 32 49 48
32 33 50 49
33 34 51 50
35 36 53 52
36 37 54 53
37 38 55 54
38 39 56 55
39 40 57 56
40 41 58 57
41 42 59 58
42 43 60 59
43 44 61 60
44 45 62 61
45 46 63 62
46 47 64 63
47 48 65 64
48 49 66 65
49 50 67 66
50 51 68 67
52 53 70 69
53 54 71 70
54 55 72 71
55 56 73 72
56 57 74 73
57 58 75 74
58 59 76 75
59 60 77 76
60 61 78 77
61 62 79 78
62 63 80 79
63 64 81 80
64 65 82 81
65 66 83 82
66 67 84 83
67 68 85 84
69 70 87 86
70 71 88 87
71 72 89 88
72 73 90 89
73 74 91 90
74 75 92 91
75 76 93 92
76 77 94 93
77 78 95 94
78 79 96 95
79 80 97 96
80 81 98 97
81 82 99 98
82 83 100 99
83 84 101 100
84 85 102 101
86 87 104 103
87 88 105 104
88 89 106 105
89 90 107 106
90 91 108 107
91 92 109 108
92 93 110 109
93 94 111 110
94 95 112 111
95 96 113 112
96 97 114 113
97 98 115 114
98 99 116 115
99 100 117 116
100 101 118 117
101 102 119 118
103 104 121 120
104 105 122 121
105 106 123 122
106 107 124 123
107 108 125 124
108 109 126 125
109 110 127 126
110 111 128 127
111 112 129 128
112 113 130 129
113 114 131 130
114 115 132 131
115 116 133 132
116 117 134 133
117 118 135 134
118 119 136 135
120 121 138 137
121 122 139 138
122 123 140 139
123 124 141 140
124 125 142 141
125 126 143 142
126 127 144 143
127 128 145 144
128 129 146 145
129 130 147 146
130 131 148 147
131 132 149 148
132 133 150 149
133 134 151 150
134 135 152 151
135 136 153 152
