TITLE = "Solution"
VARIABLES = x, y, u, v, psiu, psiv, t, stress
ZONE T="structure" N=153 E=128 F=FEBLOCK ET=QUADRILATERAL VARLOCATION=([7,8]=cellcentered)
0.000000e+00
1.250000e+01
2.500000e+01
3.750000e+01
5.000000e+01
6.250000e+01
7.500000e+01
8.750000e+01
1.000000e+02
1.125000e+02
1.250000e+02
1.375000e+02
1.500000e+02
1.625000e+02
1.750000e+02
1.875000e+02
2.000000e+02
0.000000e+00
1.250000e+01
2.500000e+01
3.750000e+01
5.000000e+01
6.250000e+01
7.500000e+01
8.750000e+01
1.000000e+02
1.125000e+02
1.250000e+02
1.375000e+02
1.500000e+02
1.625000e+02
1.750000e+02
1.875000e+02
2.000000e+02
0.000000e+00
1.250000e+01
2.500000e+01
3.750000e+01
5.000000e+01
6.250000e+01
7.500000e+01
8.750000e+01
1.000000e+02
1.125000e+02
1.250000e+02
1.375000e+02
1.500000e+02
1.625000e+02
1.750000e+02
1.875000e+02
2.000000e+02
0.000000e+00
1.250000e+01
2.500000e+01
3.750000e+01
5.000000e+01
6.250000e+01
7.500000e+01
8.750000e+01
1.000000e+02
1.125000e+02
1.250000e+02
1.375000e+02
1.500000e+02
1.625000e+02
1.750000e+02
1.875000e+02
2.000000e+02
0.000000e+00
1.250000e+01
2.500000e+01
3.750000e+01
5.000000e+01
6.250000e+01
7.500000e+01
8.750000e+01
1.000000e+02
1.125000e+02
1.250000e+02
1.375000e+02
1.500000e+02
1.625000e+02
1.750000e+02
1.875000e+02
2.000000e+02
0.000000e+00
1.250000e+01
2.500000e+01
3.750000e+01
5.000000e+01
6.250000e+01
7.500000e+01
8.750000e+01
1.000000e+02
1.125000e+02
1.250000e+02
1.375000e+02
1.500000e+02
1.625000e+02
1.750000e+02
1.875000e+02
2.000000e+02
0.000000e+00
1.250000e+01
2.500000e+01
3.750000e+01
5.000000e+01
6.250000e+01
7.500000e+01
8.750000e+01
1.000000e+02
1.125000e+02
1.250000e+02
1.375000e+02
1.500000e+02
1.625000e+02
1.750000e+02
1.875000e+02
2.000000e+02
0.000000e+00
1.250000e+01
2.500000e+01
3.750000e+01
5.000000e+01
6.250000e+01
7.500000e+01
8.750000e+01
1.000000e+02
1.125000e+02
1.250000e+02
1.375000e+02
1.500000e+02
1.625000e+02
1.750000e+02
1.875000e+02
2.000000e+02
0.000000e+00
1.250000e+01
2.500000e+01
3.750000e+01
5.000000e+01
6.250000e+01
7.500000e+01
8.750000e+01
1.000000e+02
1.125000e+02
1.250000e+02
1.375000e+02
1.500000e+02
1.625000e+02
1.750000e+02
1.875000e+02
2.000000e+02
0.000000e+00
0.000000e+00
0.000000e+00
0.000000e+00
0.000000e+00
0.000000e+00
0.000000e+00
0.000000e+00
0.000000e+00
0.000000e+00
0.000000e+00
0.000000e+00
0.000000e+00
0.000000e+00
0.000000e+00
0.000000e+00
0.000000e+00
1.250000e+01
1.250000e+01
1.250000e+01
1.250000e+01
1.250000e+01
1.250000e+01
1.250000e+01
1.250000e+01
1.250000e+01
1.250000e+01
1.250000e+01
1.250000e+01
1.250000e+01
1.250000e+01
1.250000e+01
1.250000e+01
1.250000e+01
2.500000e+01
2.500000e+01
2.500000e+01
2.500000e+01
2.500000e+01
2.500000e+01
2.500000e+01
2.500000e+01
2.500000e+01
2.500000e+01
2.500000e+01
2.500000e+01
2.500000e+01
2.500000e+01
2.500000e+01
2.500000e+01
2.500000e+01
3.750000e+01
3.750000e+01
3.750000e+01
3.750000e+01
3.750000e+01
3.750000e+01
3.750000e+01
3.750000e+01
3.750000e+01
3.750000e+01
3.750000e+01
3.750000e+01
3.750000e+01
3.750000e+01
3.750000e+01
3.750000e+01
3.750000e+01
5.000000e+01
5.000000e+01
5.000000e+01
5.000000e+01
5.000000e+01
5.000000e+01
5.000000e+01
5.000000e+01
5.000000e+01
5.000000e+01
5.000000e+01
5.000000e+01
5.000000e+01
5.000000e+01
5.000000e+01
5.000000e+01
5.000000e+01
6.250000e+01
6.250000e+01
6.250000e+01
6.250000e+01
6.250000e+01
6.250000e+01
6.250000e+01
6.250000e+01
6.250000e+01
6.250000e+01
6.250000e+01
6.250000e+01
6.250000e+01
6.250000e+01
6.250000e+01
6.250000e+01
6.250000e+01
7.500000e+01
7.500000e+01
7.500000e+01
7.500000e+01
7.500000e+01
7.500000e+01
7.500000e+01
7.500000e+01
7.500000e+01
7.500000e+01
7.500000e+01
7.500000e+01
7.500000e+01
7.500000e+01
7.500000e+01
7.500000e+01
7.500000e+01
8.750000e+01
8.750000e+01
8.750000e+01
8.750000e+01
8.750000e+01
8.750000e+01
8.750000e+01
8.750000e+01
8.750000e+01
8.750000e+01
8.750000e+01
8.750000e+01
8.750000e+01
8.750000e+01
8.750000e+01
8.750000e+01
8.750000e+01
1.000000e+02
1.000000e+02
1.000000e+02
1.000000e+02
1.000000e+02
1.000000e+02
1.000000e+02
1.000000e+02
1.000000e+02
1.000000e+02
1.000000e+02
1.000000e+02
1.000000e+02
1.000000e+02
1.000000e+02
1.000000e+02
1.000000e+02
0.000000e+00
-9.299721e-01
-1.636219e+00
-2.335862e+00
-3.024653e+00
-3.682750e+00
-4.355692e+00
-5.026549e+00
-5.686937e+00
-6.354067e+00
-7.022956e+00
-7.692230e+00
-8.391398e+00
-9.149195e+00
-9.950959e+00
-1.066495e+01
-1.111399e+01
0.000000e+00
-4.456841e-01
-9.314798e-01
-1.434400e+00
-1.952902e+00
-2.448305e+00
-2.954555e+00
-3.460694e+00
-3.957088e+00
-4.456500e+00
-4.954724e+00
-5.445482e+00
-5.939062e+00
-6.428325e+00
-6.802221e+00
-6.899906e+00
-7.070720e+00
0.000000e+00
-1.863477e-01
-4.230981e-01
-7.327772e-01
-1.074324e+00
-1.409247e+00
-1.755559e+00
-2.101538e+00
-2.441398e+00
-2.779880e+00
-3.110184e+00
-3.420749e+00
-3.696302e+00
-3.900727e+00
-3.968401e+00
-3.951779e+00
-4.103393e+00
0.000000e+00
-7.899009e-02
-1.751226e-01
-3.159415e-01
-4.717430e-01
-6.407114e-01
-8.155047e-01
-9.889733e-01
-1.159775e+00
-1.324750e+00
-1.475883e+00
-1.597780e+00
-1.667102e+00
-1.662108e+00
-1.597292e+00
-1.589852e+00
-1.714904e+00
0.000000e+00
-2.333174e-03
-4.716608e-03
-6.904049e-03
-8.563094e-03
-9.193197e-03
-7.955476e-03
-3.327392e-03
6.972366e-03
2.634270e-02
6.107627e-02
1.210399e-01
2.142209e-01
3.354802e-01
4.425441e-01
4.626435e-01
3.632660e-01
0.000000e+00
7.505014e-02
1.671613e-01
3.039277e-01
4.567480e-01
6.246490e-01
8.017841e-01
9.838648e-01
1.173949e+00
1.375435e+00
1.589146e+00
1.810501e+00
2.027527e+00
2.220174e+00
2.351298e+00
2.380617e+00
2.318517e+00
0.000000e+00
1.846523e-01
4.193162e-01
7.267096e-01
1.066692e+00
1.401451e+00
1.749758e+00
2.101671e+00
2.453177e+00
2.811304e+00
3.172413e+00
3.522945e+00
3.840230e+00
4.095192e+00
4.258731e+00
4.314767e+00
4.297825e+00
0.000000e+00
4.460204e-01
9.313179e-01
1.433411e+00
1.951315e+00
2.445622e+00
2.949634e+00
3.452531e+00
3.942503e+00
4.429619e+00
4.910534e+00
5.368548e+00
5.775523e+00
6.092416e+00
6.292841e+00
6.380407e+00
6.396414e+00
0.000000e+00
9.315990e-01
1.638969e+00
2.339924e+00
3.030324e+00
3.688547e+00
4.358591e+00
5.022141e+00
5.665956e+00
6.301865e+00
6.922906e+00
7.506727e+00
8.011847e+00
8.375275e+00
8.563234e+00
8.611968e+00
8.611733e+00
0.000000e+00
-5.865419e-01
-1.272326e+00
-2.177958e+00
-3.251430e+00
-4.487364e+00
-5.898292e+00
-7.477323e+00
-9.226637e+00
-1.115233e+01
-1.325151e+01
-1.552613e+01
-1.799124e+01
-2.066160e+01
-2.356596e+01
-2.690809e+01
-3.185777e+01
0.000000e+00
-3.843177e-01
-1.103181e+00
-1.997900e+00
-3.077047e+00
-4.313322e+00
-5.721947e+00
-7.303374e+00
-9.053514e+00
-1.097889e+01
-1.308019e+01
-1.535482e+01
-1.781474e+01
-2.049190e+01
-2.344052e+01
-2.681156e+01
-3.086673e+01
0.000000e+00
-3.447316e-01
-1.000656e+00
-1.886637e+00
-2.957493e+00
-4.190105e+00
-5.598365e+00
-7.180771e+00
-8.932849e+00
-1.086215e+01
-1.297064e+01
-1.525581e+01
-1.773033e+01
-2.043975e+01
-2.343078e+01
-2.664057e+01
-2.964882e+01
0.000000e+00
-3.798090e-01
-9.859388e-01
-1.845219e+00
-2.895963e+00
-4.122750e+00
-5.530122e+00
-7.113234e+00
-8.870177e+00
-1.080763e+01
-1.292967e+01
-1.523575e+01
-1.773140e+01
-2.044452e+01
-2.337272e+01
-2.631726e+01
-2.888821e+01
0.000000e+00
-3.936295e-01
-9.939520e-01
-1.836987e+00
-2.881500e+00
-4.106633e+00
-5.515438e+00
-7.102255e+00
-8.866016e+00
-1.081268e+01
-1.294802e+01
-1.526977e+01
-1.776901e+01
-2.044294e+01
-2.323792e+01
-2.596774e+01
-2.830015e+01
0.000000e+00
-3.795064e-01
-9.865957e-01
-1.847967e+00
-2.902712e+00
-4.135430e+00
-5.550800e+00
-7.144582e+00
-8.914644e+00
-1.086718e+01
-1.300681e+01
-1.532830e+01
-1.781317e+01
-2.043092e+01
-2.310415e+01
-2.567023e+01
-2.788738e+01
0.000000e+00
-3.444095e-01
-1.001936e+00
-1.891423e+00
-2.968834e+00
-4.211332e+00
-5.633059e+00
-7.233267e+00
-9.006911e+00
-1.096014e+01
-1.309546e+01
-1.540555e+01
-1.786822e+01
-2.043508e+01
-2.301609e+01
-2.547679e+01
-2.767911e+01
0.000000e+00
-3.840592e-01
-1.104550e+00
-2.003235e+00
-3.089783e+00
-4.337200e+00
-5.761235e+00
-7.362776e+00
-9.136622e+00
-1.108778e+01
-1.321615e+01
-1.551194e+01
-1.795117e+01
-2.047694e+01
-2.299341e+01
-2.539272e+01
-2.762709e+01
0.000000e+00
-5.865779e-01
-1.273858e+00
-2.183602e+00
-3.264511e+00
-4.511347e+00
-5.937335e+00
-7.535583e+00
-9.306379e+00
-1.125492e+01
-1.337634e+01
-1.565728e+01
-1.806864e+01
-2.055061e+01
-2.301562e+01
-2.537743e+01
-2.762717e+01


0.000000e+00
1.540108e-05
2.698135e-05
4.024724e-05
5.637564e-05
7.109891e-05
8.530840e-05
1.006943e-04
1.156238e-04
1.300336e-04
1.450228e-04
1.610450e-04
1.770164e-04
1.898409e-04
1.976132e-04
2.029793e-04
2.094727e-04
0.000000e+00
1.076274e-05
2.047875e-05
2.969466e-05
4.236680e-05
5.336015e-05
6.342534e-05
7.484350e-05
8.607607e-05
9.628046e-05
1.068346e-04
1.180941e-04
1.286384e-04
1.354270e-04
1.378126e-04
1.420649e-04
1.480008e-04
0.000000e+00
8.238590e-06
1.437948e-05
1.993994e-05
2.832182e-05
3.524685e-05
4.165170e-05
4.892863e-05
5.598684e-05
6.229690e-05
6.849431e-05
7.434275e-05
7.883321e-05
8.075636e-05
8.174938e-05
8.491539e-05
8.970384e-05
0.000000e+00
4.083952e-06
5.914513e-06
9.306095e-06
1.266454e-05
1.584606e-05
1.906691e-05
2.232880e-05
2.519740e-05
2.788071e-05
2.986203e-05
3.071743e-05
3.055512e-05
3.038851e-05
3.133212e-05
3.448568e-05
3.954222e-05
0.000000e+00
-1.032944e-08
-4.518964e-08
-1.138035e-07
-2.448888e-07
-4.321567e-07
-6.923059e-07
-1.101352e-06
-1.755582e-06
-2.738253e-06
-4.285163e-06
-6.389655e-06
-8.634560e-06
-1.015229e-05
-9.777987e-06
-7.567241e-06
-4.044152e-06
0.000000e+00
-4.111945e-06
-5.986429e-06
-9.507950e-06
-1.303645e-05
-1.646479e-05
-2.007159e-05
-2.388615e-05
-2.740737e-05
-3.115526e-05
-3.504265e-05
-3.896005e-05
-4.252927e-05
-4.499085e-05
-4.631104e-05
-4.645834e-05
-4.510386e-05
0.000000e+00
-8.202588e-06
-1.438954e-05
-2.006098e-05
-2.847295e-05
-3.547157e-05
-4.221138e-05
-4.968343e-05
-5.653348e-05
-6.271944e-05
-6.915742e-05
-7.510674e-05
-7.990548e-05
-8.342260e-05
-8.569408e-05
-8.691988e-05
-8.706754e-05
0.000000e+00
-1.069680e-05
-2.042509e-05
-2.969991e-05
-4.227491e-05
-5.317793e-05
-6.348841e-05
-7.499430e-05
-8.579064e-05
-9.579770e-05
-1.062819e-04
-1.159338e-04
-1.231845e-04
-1.278715e-04
-1.304047e-04
-1.313828e-04
-1.315630e-04
0.000000e+00
-1.538810e-05
-2.693728e-05
-4.017546e-05
-5.611056e-05
-7.059159e-05
-8.472993e-05
-9.995499e-05
-1.143697e-04
-1.287554e-04
-1.441259e-04
-1.584215e-04
-1.692448e-04
-1.754024e-04
-1.777088e-04
-1.780803e-04
-1.780283e-04
0.000000e+00
1.309433e-05
2.237267e-05
3.617235e-05
5.426695e-05
7.458651e-05
9.964766e-05
1.296074e-04
1.628738e-04
2.002677e-04
2.427843e-04
2.902028e-04
3.418469e-04
3.973133e-04
4.601178e-04
5.301499e-04
6.018022e-04
0.000000e+00
7.712814e-06
1.775369e-05
2.990127e-05
4.751866e-05
6.853596e-05
9.343151e-05
1.230112e-04
1.566299e-04
1.941771e-04
2.363570e-04
2.835518e-04
3.360920e-04
3.934541e-04
4.552016e-04
5.225666e-04
5.916602e-04
0.000000e+00
4.290160e-06
1.361070e-05
2.514146e-05
4.210429e-05
6.376675e-05
8.890525e-05
1.182094e-04
1.520006e-04
1.898939e-04
2.320149e-04
2.792626e-04
3.325272e-04
3.915539e-04
4.510594e-04
5.149000e-04
5.811566e-04
0.000000e+00
3.329552e-06
1.165777e-05
2.316069e-05
3.970466e-05
6.153065e-05
8.704431e-05
1.163774e-04
1.500497e-04
1.880995e-04
2.305343e-04
2.778667e-04
3.314509e-04
3.901844e-04
4.480592e-04
5.071321e-04
5.676127e-04
0.000000e+00
3.113984e-06
1.122417e-05
2.258254e-05
3.908152e-05
6.078366e-05
8.653125e-05
1.159839e-04
1.495862e-04
1.876449e-04
2.303419e-04
2.780308e-04
3.316393e-04
3.900745e-04
4.460482e-04
5.001725e-04
5.537880e-04
0.000000e+00
3.376034e-06
1.172061e-05
2.328206e-05
3.985489e-05
6.161603e-05
8.713294e-05
1.166126e-04
1.502727e-04
1.882884e-04
2.312888e-04
2.797000e-04
3.335514e-04
3.906459e-04
4.456712e-04
4.966508e-04
5.445712e-04
0.000000e+00
4.351809e-06
1.371020e-05
2.533463e-05
4.232974e-05
6.387783e-05
8.903244e-05
1.184698e-04
1.521452e-04
1.901578e-04
2.336156e-04
2.828550e-04
3.366427e-04
3.920818e-04
4.453141e-04
4.947894e-04
5.410627e-04
0.000000e+00
7.771399e-06
1.788907e-05
3.012193e-05
4.774932e-05
6.871135e-05
9.363490e-05
1.231794e-04
1.565446e-04
1.943382e-04
2.380377e-04
2.871997e-04
3.399787e-04
3.935772e-04
4.451824e-04
4.939380e-04
5.405824e-04
0.000000e+00
1.314610e-05
2.253269e-05
3.639954e-05
5.446078e-05
7.481444e-05
9.997328e-05
1.297410e-04
1.626748e-04
2.004910e-04
2.441980e-04
2.922747e-04
3.432007e-04
3.949195e-04
4.453621e-04
4.937717e-04
5.406324e-04


3.310462e+00
3.114374e+00
3.024728e+00
2.959648e+00
2.908884e+00
3.159164e+00
3.381553e+00
3.667513e+00
4.140269e+00
4.680234e+00
5.359063e+00
6.376113e+00
7.527475e+00
7.912704e+00
6.891609e+00
5.642434e+00
5.777057e+00
5.480416e+00
5.360235e+00
5.121139e+00
4.949153e+00
5.044276e+00
5.145598e+00
5.308570e+00
5.628001e+00
6.015177e+00
6.492907e+00
7.164867e+00
7.853591e+00
7.722146e+00
6.248377e+00
4.726688e+00
8.296363e+00
8.196183e+00
8.021955e+00
7.741893e+00
7.460206e+00
7.393536e+00
7.367054e+00
7.380254e+00
7.487510e+00
7.646143e+00
7.801524e+00
7.933973e+00
8.008545e+00
7.438015e+00
5.986151e+00
4.764063e+00
9.287509e+00
9.235872e+00
9.113331e+00
8.791632e+00
8.509371e+00
8.354868e+00
8.274887e+00
8.229994e+00
8.208466e+00
8.175015e+00
8.016864e+00
7.697583e+00
7.407618e+00
7.036141e+00
6.496961e+00
6.153431e+00
9.284088e+00
9.231303e+00
9.109932e+00
8.793182e+00
8.510970e+00
8.341689e+00
8.232367e+00
8.139456e+00
8.021877e+00
7.815486e+00
7.440659e+00
6.987226e+00
6.821110e+00
7.036788e+00
7.432230e+00
7.755554e+00
8.289490e+00
8.183128e+00
8.006531e+00
7.729702e+00
7.437034e+00
7.327518e+00
7.223873e+00
7.113334e+00
7.016720e+00
6.883312e+00
6.743742e+00
6.755567e+00
7.110981e+00
7.774708e+00
8.417063e+00
8.788548e+00
5.772826e+00
5.465437e+00
5.336479e+00
5.093339e+00
4.902288e+00
4.954041e+00
4.993503e+00
5.070578e+00
5.299355e+00
5.683363e+00
6.287759e+00
7.092278e+00
7.928716e+00
8.590204e+00
8.967297e+00
9.109962e+00
3.310037e+00
3.104580e+00
3.007505e+00
2.939625e+00
2.878761e+00
3.116214e+00
3.337710e+00
3.646231e+00
4.234555e+00
5.108779e+00
6.283766e+00
7.555344e+00
8.502819e+00
8.977782e+00
9.111409e+00
9.115396e+00


-6.659900e-01
-2.622286e-01
-2.691216e-01
-2.786065e-01
-1.707759e-01
-2.228470e-01
-2.199793e-01
-1.817379e-01
-2.032542e-01
-2.055017e-01
-1.910835e-01
-2.545263e-01
-3.537838e-01
-1.809835e-01
4.168444e-01
-7.777263e-01
5.843323e-01
4.187686e-01
3.074655e-01
2.384781e-01
2.839232e-01
2.401604e-01
2.286724e-01
2.410421e-01
2.231302e-01
2.253518e-01
2.652311e-01
3.247962e-01
4.487720e-01
7.086856e-01
7.223614e-01
-1.147129e+00
7.921354e-01
5.889533e-01
3.803594e-01
3.219258e-01
3.248487e-01
2.934496e-01
2.897997e-01
2.964193e-01
2.911343e-01
3.017435e-01
3.474240e-01
4.184069e-01
4.513235e-01
3.347261e-01
9.666112e-02
-2.708199e-01
8.065251e-01
6.354631e-01
4.048989e-01
3.026849e-01
2.638046e-01
2.416618e-01
2.435259e-01
2.548846e-01
2.607201e-01
2.630890e-01
2.664017e-01
2.434206e-01
1.069141e-01
-1.413184e-01
-1.646561e-01
2.115467e-02
8.081849e-01
6.377950e-01
4.079949e-01
3.039407e-01
2.619723e-01
2.346126e-01
2.275567e-01
2.260162e-01
2.137018e-01
1.859523e-01
1.408118e-01
6.664057e-02
-6.344352e-02
-1.531417e-01
6.481352e-03
3.955026e-01
7.959813e-01
5.950608e-01
3.886876e-01
3.271639e-01
3.235071e-01
2.810809e-01
2.572388e-01
2.320632e-01
1.751682e-01
1.004098e-01
2.643279e-02
-2.576232e-02
-3.256386e-02
8.171569e-02
3.822872e-01
7.653890e-01
5.866987e-01
4.229358e-01
3.119582e-01
2.397014e-01
2.801217e-01
2.277540e-01
1.992273e-01
1.875554e-01
1.310092e-01
6.553884e-02
3.120704e-02
6.434772e-02
2.032512e-01
4.509909e-01
7.481761e-01
9.559246e-01
-6.699199e-01
-2.634807e-01
-2.702973e-01
-2.812399e-01
-1.699830e-01
-2.150384e-01
-2.036972e-01
-1.453161e-01
-1.343557e-01
-1.079884e-01
-1.297743e-02
1.913687e-01
5.077805e-01
8.004234e-01
9.586634e-01
9.990378e-01
1 2 19 18
2 3 20 19
3 4 21 20
4 5 22 21
5 6 23 22
6 7 24 23
7 8 25 24
8 9 26 25
9 10 27 26
10 11 28 27
11 12 29 28
12 13 30 29
13 14 31 30
14 15 32 31
15 16 33 32
16 17 34 33
18 19 36 35
19 20 37 36
20 21 38 37
21 22 39 38
22 23 40 39
23 24 41 40
24 25 42 41
25 26 43 42
26 27 44 43
27 28 45 44
28 29 46 45
29 30 47 46
30 31 48 47
31 32 49 48
32 33 50 49
33 34 51 50
35 36 53 52
36 37 54 53
37 38 55 54
38 39 56 55
39 40 57 56
40 41 58 57
41 42 59 58
42 43 60 59
43 44 61 60
44 45 62 61
45 46 63 62
46 47 64 63
47 48 65 64
48 49 66 65
49 50 67 66
50 51 68 67
52 53 70 69
53 54 71 70
54 55 72 71
55 56 73 72
56 57 74 73
57 58 75 74
58 59 76 75
59 60 77 76
60 61 78 77
61 62 79 78
62 63 80 79
63 64 81 80
64 65 82 81
65 66 83 82
66 67 84 83
67 68 85 84
69 70 87 86
70 71 88 87
71 72 89 88
72 73 90 89
73 74 91 90
74 75 92 91
75 76 93 92
76 77 94 93
77 78 95 94
78 79 96 95
79 80 97 96
80 81 98 97
81 82 99 98
82 83 100 99
83 84 101 100
84 85 102 101
86 87 104 103
87 88 105 104
88 89 106 105
89 90 107 106
90 91 108 107
91 92 109 108
92 93 110 109
93 94 111 110
94 95 112 111
95 96 113 112
96 97 114 113
97 98 115 114
98 99 116 115
99 100 117 116
100 101 118 117
101 102 119 118
103 104 121 120
104 105 122 121
105 106 123 122
106 107 124 123
107 108 125 124
108 109 126 125
109 110 127 126
110 111 128 127
111 112 129 128
112 113 130 129
113 114 131 130
114 115 132 131
115 116 133 132
116 117 134 133
117 118 135 134
118 119 136 135
120 121 138 137
121 122 139 138
122 123 140 139
123 124 141 140
124 125 142 141
125 126 143 142
126 127 144 143
127 128 145 144
128 129 146 145
129 130 147 146
130 131 148 147
131 132 149 148
132 133 150 149
133 134 151 150
134 135 152 151
135 136 153 152
