TITLE = "Solution"
VARIABLES = x, y, u, v, psiu, psiv, t, stress
ZONE T="structure" N=153 E=128 F=FEBLOCK ET=QUADRILATERAL VARLOCATION=([7,8]=cellcentered)
0.000000e+00
1.250000e+01
2.500000e+01
3.750000e+01
5.000000e+01
6.250000e+01
7.500000e+01
8.750000e+01
1.000000e+02
1.125000e+02
1.250000e+02
1.375000e+02
1.500000e+02
1.625000e+02
1.750000e+02
1.875000e+02
2.000000e+02
0.000000e+00
1.250000e+01
2.500000e+01
3.750000e+01
5.000000e+01
6.250000e+01
7.500000e+01
8.750000e+01
1.000000e+02
1.125000e+02
1.250000e+02
1.375000e+02
1.500000e+02
1.625000e+02
1.750000e+02
1.875000e+02
2.000000e+02
0.000000e+00
1.250000e+01
2.500000e+01
3.750000e+01
5.000000e+01
6.250000e+01
7.500000e+01
8.750000e+01
1.000000e+02
1.125000e+02
1.250000e+02
1.375000e+02
1.500000e+02
1.625000e+02
1.750000e+02
1.875000e+02
2.000000e+02
0.000000e+00
1.250000e+01
2.500000e+01
3.750000e+01
5.000000e+01
6.250000e+01
7.500000e+01
8.750000e+01
1.000000e+02
1.125000e+02
1.250000e+02
1.375000e+02
1.500000e+02
1.625000e+02
1.750000e+02
1.875000e+02
2.000000e+02
0.000000e+00
1.250000e+01
2.500000e+01
3.750000e+01
5.000000e+01
6.250000e+01
7.500000e+01
8.750000e+01
1.000000e+02
1.125000e+02
1.250000e+02
1.375000e+02
1.500000e+02
1.625000e+02
1.750000e+02
1.875000e+02
2.000000e+02
0.000000e+00
1.250000e+01
2.500000e+01
3.750000e+01
5.000000e+01
6.250000e+01
7.500000e+01
8.750000e+01
1.000000e+02
1.125000e+02
1.250000e+02
1.375000e+02
1.500000e+02
1.625000e+02
1.750000e+02
1.875000e+02
2.000000e+02
0.000000e+00
1.250000e+01
2.500000e+01
3.750000e+01
5.000000e+01
6.250000e+01
7.500000e+01
8.750000e+01
1.000000e+02
1.125000e+02
1.250000e+02
1.375000e+02
1.500000e+02
1.625000e+02
1.750000e+02
1.875000e+02
2.000000e+02
0.000000e+00
1.250000e+01
2.500000e+01
3.750000e+01
5.000000e+01
6.250000e+01
7.500000e+01
8.750000e+01
1.000000e+02
1.125000e+02
1.250000e+02
1.375000e+02
1.500000e+02
1.625000e+02
1.750000e+02
1.875000e+02
2.000000e+02
0.000000e+00
1.250000e+01
2.500000e+01
3.750000e+01
5.000000e+01
6.250000e+01
7.500000e+01
8.750000e+01
1.000000e+02
1.125000e+02
1.250000e+02
1.375000e+02
1.500000e+02
1.625000e+02
1.750000e+02
1.875000e+02
2.000000e+02
0.000000e+00
0.000000e+00
0.000000e+00
0.000000e+00
0.000000e+00
0.000000e+00
0.000000e+00
0.000000e+00
0.000000e+00
0.000000e+00
0.000000e+00
0.000000e+00
0.000000e+00
0.000000e+00
0.000000e+00
0.000000e+00
0.000000e+00
1.250000e+01
1.250000e+01
1.250000e+01
1.250000e+01
1.250000e+01
1.250000e+01
1.250000e+01
1.250000e+01
1.250000e+01
1.250000e+01
1.250000e+01
1.250000e+01
1.250000e+01
1.250000e+01
1.250000e+01
1.250000e+01
1.250000e+01
2.500000e+01
2.500000e+01
2.500000e+01
2.500000e+01
2.500000e+01
2.500000e+01
2.500000e+01
2.500000e+01
2.500000e+01
2.500000e+01
2.500000e+01
2.500000e+01
2.500000e+01
2.500000e+01
2.500000e+01
2.500000e+01
2.500000e+01
3.750000e+01
3.750000e+01
3.750000e+01
3.750000e+01
3.750000e+01
3.750000e+01
3.750000e+01
3.750000e+01
3.750000e+01
3.750000e+01
3.750000e+01
3.750000e+01
3.750000e+01
3.750000e+01
3.750000e+01
3.750000e+01
3.750000e+01
5.000000e+01
5.000000e+01
5.000000e+01
5.000000e+01
5.000000e+01
5.000000e+01
5.000000e+01
5.000000e+01
5.000000e+01
5.000000e+01
5.000000e+01
5.000000e+01
5.000000e+01
5.000000e+01
5.000000e+01
5.000000e+01
5.000000e+01
6.250000e+01
6.250000e+01
6.250000e+01
6.250000e+01
6.250000e+01
6.250000e+01
6.250000e+01
6.250000e+01
6.250000e+01
6.250000e+01
6.250000e+01
6.250000e+01
6.250000e+01
6.250000e+01
6.250000e+01
6.250000e+01
6.250000e+01
7.500000e+01
7.500000e+01
7.500000e+01
7.500000e+01
7.500000e+01
7.500000e+01
7.500000e+01
7.500000e+01
7.500000e+01
7.500000e+01
7.500000e+01
7.500000e+01
7.500000e+01
7.500000e+01
7.500000e+01
7.500000e+01
7.500000e+01
8.750000e+01
8.750000e+01
8.750000e+01
8.750000e+01
8.750000e+01
8.750000e+01
8.750000e+01
8.750000e+01
8.750000e+01
8.750000e+01
8.750000e+01
8.750000e+01
8.750000e+01
8.750000e+01
8.750000e+01
8.750000e+01
8.750000e+01
1.000000e+02
1.000000e+02
1.000000e+02
1.000000e+02
1.000000e+02
1.000000e+02
1.000000e+02
1.000000e+02
1.000000e+02
1.000000e+02
1.000000e+02
1.000000e+02
1.000000e+02
1.000000e+02
1.000000e+02
1.000000e+02
1.000000e+02
0.000000e+00
-7.124264e-02
-1.311803e-01
-1.863307e-01
-2.376911e-01
-2.851532e-01
-3.286151e-01
-3.680432e-01
-4.034947e-01
-4.351331e-01
-4.632719e-01
-4.884612e-01
-5.116470e-01
-5.344637e-01
-5.597303e-01
-5.907609e-01
-6.140460e-01
0.000000e+00
-4.254485e-02
-8.837864e-02
-1.307032e-01
-1.696971e-01
-2.055087e-01
-2.382121e-01
-2.678512e-01
-2.944795e-01
-3.181789e-01
-3.390698e-01
-3.573027e-01
-3.729941e-01
-3.859822e-01
-3.951435e-01
-3.971515e-01
-4.043507e-01
0.000000e+00
-2.660634e-02
-5.470928e-02
-8.274612e-02
-1.089176e-01
-1.329467e-01
-1.548139e-01
-1.745439e-01
-1.921417e-01
-2.075777e-01
-2.207691e-01
-2.315315e-01
-2.394812e-01
-2.439189e-01
-2.440421e-01
-2.422693e-01
-2.496119e-01
0.000000e+00
-1.284187e-02
-2.643670e-02
-4.011738e-02
-5.319858e-02
-6.524718e-02
-7.616804e-02
-8.592936e-02
-9.447527e-02
-1.016946e-01
-1.074027e-01
-1.113304e-01
-1.131560e-01
-1.127295e-01
-1.109772e-01
-1.114564e-01
-1.169237e-01
0.000000e+00
-1.182973e-05
-2.689270e-05
-4.190621e-05
-4.987413e-05
-3.519546e-05
3.309583e-05
2.105645e-04
5.883719e-04
1.302308e-03
2.529530e-03
4.448008e-03
7.105829e-03
1.010930e-02
1.218401e-02
1.161498e-02
7.995138e-03
0.000000e+00
1.282366e-02
2.639444e-02
4.004979e-02
5.311451e-02
6.517880e-02
7.619456e-02
8.621570e-02
9.532909e-02
1.036404e-01
1.112584e-01
1.182392e-01
1.244618e-01
1.294516e-01
1.323868e-01
1.326196e-01
1.307823e-01
0.000000e+00
2.660335e-02
5.470018e-02
8.272801e-02
1.088893e-01
1.329115e-01
1.547847e-01
1.745534e-01
1.922586e-01
2.079317e-01
2.215865e-01
2.331894e-01
2.426072e-01
2.495701e-01
2.537494e-01
2.551064e-01
2.546779e-01
0.000000e+00
4.256230e-02
8.841659e-02
1.307637e-01
1.697783e-01
2.055956e-01
2.382609e-01
2.677621e-01
2.940544e-01
3.170619e-01
3.366753e-01
3.527591e-01
3.651846e-01
3.739107e-01
3.791160e-01
3.813357e-01
3.817434e-01
0.000000e+00
7.127182e-02
1.312573e-01
1.864749e-01
2.379215e-01
2.854772e-01
3.290017e-01
3.683682e-01
4.034453e-01
4.340505e-01
4.599186e-01
4.807046e-01
4.960672e-01
5.058856e-01
5.106339e-01
5.118059e-01
5.117833e-01
0.000000e+00
-4.312513e-02
-8.465963e-02
-1.384787e-01
-2.045304e-01
-2.826912e-01
-3.721052e-01
-4.717716e-01
-5.806307e-01
-6.976368e-01
-8.218237e-01
-9.524227e-01
-1.089119e+00
-1.232642e+00
-1.386716e+00
-1.563004e+00
-1.816299e+00
0.000000e+00
-2.654862e-02
-6.987592e-02
-1.243623e-01
-1.914936e-01
-2.707211e-01
-3.612183e-01
-4.619600e-01
-5.718742e-01
-6.898962e-01
-8.150333e-01
-9.464814e-01
-1.083877e+00
-1.227930e+00
-1.381944e+00
-1.557163e+00
-1.771824e+00
0.000000e+00
-2.003328e-02
-5.962711e-02
-1.143146e-01
-1.820806e-01
-2.621236e-01
-3.534526e-01
-4.550326e-01
-5.657987e-01
-6.847016e-01
-8.107676e-01
-9.432203e-01
-1.081730e+00
-1.226892e+00
-1.381038e+00
-1.547064e+00
-1.707742e+00
0.000000e+00
-1.726325e-02
-5.453146e-02
-1.084169e-01
-1.764279e-01
-2.569635e-01
-3.488620e-01
-4.510487e-01
-5.624790e-01
-6.821319e-01
-8.090547e-01
-9.424561e-01
-1.081851e+00
-1.227172e+00
-1.378234e+00
-1.530789e+00
-1.671327e+00
0.000000e+00
-1.646526e-02
-5.298927e-02
-1.065355e-01
-1.745649e-01
-2.553011e-01
-3.474637e-01
-4.499794e-01
-5.618233e-01
-6.819910e-01
-8.095089e-01
-9.434600e-01
-1.082979e+00
-1.227036e+00
-1.373475e+00
-1.517288e+00
-1.649776e+00
0.000000e+00
-1.725301e-02
-5.452417e-02
-1.084299e-01
-1.764916e-01
-2.571315e-01
-3.492212e-01
-4.517290e-01
-5.636520e-01
-6.839807e-01
-8.116784e-01
-9.456358e-01
-1.084557e+00
-1.226674e+00
-1.369258e+00
-1.508140e+00
-1.637800e+00
0.000000e+00
-2.001657e-02
-5.961503e-02
-1.143363e-01
-1.821880e-01
-2.624077e-01
-3.540617e-01
-4.561878e-01
-5.677931e-01
-6.878509e-01
-8.152546e-01
-9.487245e-01
-1.086652e+00
-1.226907e+00
-1.366726e+00
-1.502943e+00
-1.632517e+00
0.000000e+00
-2.653295e-02
-6.986540e-02
-1.243911e-01
-1.916226e-01
-2.710552e-01
-3.619272e-01
-4.632953e-01
-5.741652e-01
-6.934916e-01
-8.201226e-01
-9.526869e-01
-1.089440e+00
-1.228133e+00
-1.366092e+00
-1.500795e+00
-1.631277e+00
0.000000e+00
-4.311866e-02
-8.466054e-02
-1.385232e-01
-2.046799e-01
-2.830483e-01
-3.728307e-01
-4.730952e-01
-5.828374e-01
-7.009934e-01
-8.263836e-01
-9.576064e-01
-1.092905e+00
-1.230081e+00
-1.366631e+00
-1.500402e+00
-1.631296e+00


0.000000e+00
4.865252e-11
1.006205e-10
1.466615e-10
1.855621e-10
2.171648e-10
2.420588e-10
2.611411e-10
2.754180e-10
2.858188e-10
2.932291e-10
2.984293e-10
3.021370e-10
3.050179e-10
3.076967e-10
3.109981e-10
3.149588e-10
0.000000e+00
3.308834e-11
7.797735e-11
1.145560e-10
1.439022e-10
1.670981e-10
1.850016e-10
1.985042e-10
2.084159e-10
2.154709e-10
2.203123e-10
2.234553e-10
2.253129e-10
2.262276e-10
2.271548e-10
2.298553e-10
2.339331e-10
0.000000e+00
2.463590e-11
5.416333e-11
7.883803e-11
9.867110e-11
1.139834e-10
1.255218e-10
1.339964e-10
1.400474e-10
1.441764e-10
1.468195e-10
1.483150e-10
1.489823e-10
1.492394e-10
1.498905e-10
1.520053e-10
1.553061e-10
0.000000e+00
1.318583e-11
2.701739e-11
3.936011e-11
4.945989e-11
5.718126e-11
6.288515e-11
6.697881e-11
6.980584e-11
7.163436e-11
7.269607e-11
7.320360e-11
7.340968e-11
7.363775e-11
7.420804e-11
7.549434e-11
7.752825e-11
0.000000e+00
-1.217711e-14
-3.347658e-14
-6.253892e-14
-1.036620e-13
-1.646324e-13
-2.454333e-13
-3.644278e-13
-5.220639e-13
-7.215381e-13
-9.496789e-13
-1.146538e-12
-1.228818e-12
-1.096266e-12
-7.466670e-13
-1.272863e-13
9.318552e-13
0.000000e+00
-1.321696e-11
-2.707959e-11
-3.946944e-11
-4.962883e-11
-5.743927e-11
-6.327328e-11
-6.754739e-11
-7.061913e-11
-7.276260e-11
-7.419092e-11
-7.507146e-11
-7.552427e-11
-7.567515e-11
-7.566772e-11
-7.551463e-11
-7.505967e-11
0.000000e+00
-2.464795e-11
-5.420046e-11
-7.890906e-11
-9.878720e-11
-1.141531e-10
-1.257494e-10
-1.342918e-10
-1.404218e-10
-1.446499e-10
-1.474358e-10
-1.491506e-10
-1.501340e-10
-1.506621e-10
-1.509460e-10
-1.510439e-10
-1.509158e-10
0.000000e+00
-3.310074e-11
-7.800662e-11
-1.146078e-10
-1.439671e-10
-1.671739e-10
-1.850770e-10
-1.985524e-10
-2.084015e-10
-2.153539e-10
-2.200588e-10
-2.230884e-10
-2.249417e-10
-2.260173e-10
-2.266122e-10
-2.268829e-10
-2.269198e-10
0.000000e+00
-4.867645e-11
-1.006632e-10
-1.467100e-10
-1.856069e-10
-2.171890e-10
-2.420191e-10
-2.609967e-10
-2.750986e-10
-2.852449e-10
-2.923108e-10
-2.970295e-10
-3.000492e-10
-3.018560e-10
-3.028076e-10
-3.031752e-10
-3.032321e-10
0.000000e+00
4.419450e-11
7.943812e-11
1.164310e-10
1.608413e-10
2.131283e-10
2.722199e-10
3.367328e-10
4.053438e-10
4.769506e-10
5.507196e-10
6.260887e-10
7.028113e-10
7.814175e-10
8.639992e-10
9.516457e-10
1.040432e-09
0.000000e+00
2.376004e-11
5.820061e-11
9.767252e-11
1.454597e-10
2.009807e-10
2.629281e-10
3.298101e-10
4.003231e-10
4.734324e-10
5.483386e-10
6.245334e-10
7.018042e-10
7.803843e-10
8.612943e-10
9.465009e-10
1.033839e-09
0.000000e+00
1.171763e-11
4.152608e-11
8.302641e-11
1.335607e-10
1.917608e-10
2.559794e-10
3.247102e-10
3.967021e-10
4.709658e-10
5.467624e-10
6.236128e-10
7.012629e-10
7.795747e-10
8.586473e-10
9.410317e-10
1.026028e-09
0.000000e+00
6.664777e-12
3.365592e-11
7.534717e-11
1.273199e-10
1.869899e-10
2.524429e-10
3.221590e-10
3.949315e-10
4.698128e-10
5.460866e-10
6.232574e-10
7.009917e-10
7.789324e-10
8.570041e-10
9.371451e-10
1.019179e-09
0.000000e+00
5.382777e-12
3.150808e-11
7.302464e-11
1.254002e-10
1.855403e-10
2.513890e-10
3.214224e-10
3.944589e-10
4.695472e-10
5.459793e-10
6.232209e-10
7.008749e-10
7.785868e-10
8.562314e-10
9.349192e-10
1.014307e-09
0.000000e+00
6.676213e-12
3.367154e-11
7.536985e-11
1.273485e-10
1.870326e-10
2.525110e-10
3.222697e-10
3.951084e-10
4.700606e-10
5.463853e-10
6.235126e-10
7.010228e-10
7.785788e-10
8.560529e-10
9.338449e-10
1.011500e-09
0.000000e+00
1.173343e-11
4.155028e-11
8.306756e-11
1.336106e-10
1.918469e-10
2.561190e-10
3.249313e-10
3.970525e-10
4.714515e-10
5.473627e-10
6.241700e-10
7.014238e-10
7.787991e-10
8.561065e-10
9.333673e-10
1.010188e-09
0.000000e+00
2.378749e-11
5.824135e-11
9.774287e-11
1.455422e-10
2.011110e-10
2.631246e-10
3.301075e-10
4.007657e-10
4.740344e-10
5.490779e-10
6.252441e-10
7.020507e-10
7.791240e-10
8.562275e-10
9.331856e-10
1.009750e-09
0.000000e+00
4.422854e-11
7.949695e-11
1.165196e-10
1.609555e-10
2.132808e-10
2.724337e-10
3.370338e-10
4.057619e-10
4.774983e-10
5.513671e-10
6.266681e-10
7.028644e-10
7.795465e-10
8.564003e-10
9.331737e-10
1.009680e-09


2.081649e-01
2.081649e-01
2.081649e-01
2.081649e-01
2.081649e-01
2.081649e-01
2.081649e-01
2.081649e-01
2.081649e-01
2.081649e-01
2.081649e-01
2.081649e-01
2.081649e-01
2.081649e-01
2.081649e-01
2.081649e-01
2.081649e-01
2.081649e-01
2.081649e-01
2.081649e-01
2.081649e-01
2.081649e-01
2.081649e-01
2.081649e-01
2.081649e-01
2.081649e-01
2.081649e-01
2.081649e-01
2.081649e-01
2.081649e-01
2.081649e-01
2.081649e-01
2.081649e-01
2.081649e-01
2.081649e-01
2.081649e-01
2.081649e-01
2.081649e-01
2.081649e-01
2.081649e-01
2.081649e-01
2.081649e-01
2.081649e-01
2.081649e-01
2.081649e-01
2.081649e-01
2.081649e-01
2.081649e-01
2.081649e-01
2.081649e-01
2.081649e-01
2.081649e-01
2.081649e-01
2.081649e-01
2.081649e-01
2.081649e-01
2.081649e-01
2.081649e-01
2.081649e-01
2.081649e-01
2.081649e-01
2.081649e-01
2.081649e-01
2.081649e-01
2.081649e-01
2.081649e-01
2.081649e-01
2.081649e-01
2.081649e-01
2.081649e-01
2.081649e-01
2.081649e-01
2.081649e-01
2.081649e-01
2.081649e-01
2.081649e-01
2.081649e-01
2.081649e-01
2.081649e-01
2.081649e-01
2.081649e-01
2.081649e-01
2.081649e-01
2.081649e-01
2.081649e-01
2.081649e-01
2.081649e-01
2.081649e-01
2.081649e-01
2.081649e-01
2.081649e-01
2.081649e-01
2.081649e-01
2.081649e-01
2.081649e-01
2.081649e-01
2.081649e-01
2.081649e-01
2.081649e-01
2.081649e-01
2.081649e-01
2.081649e-01
2.081649e-01
2.081649e-01
2.081649e-01
2.081649e-01
2.081649e-01
2.081649e-01
2.081649e-01
2.081649e-01
2.081649e-01
2.081649e-01
2.081649e-01
2.081649e-01
2.081649e-01
2.081649e-01
2.081649e-01
2.081649e-01
2.081649e-01
2.081649e-01
2.081649e-01
2.081649e-01
2.081649e-01
2.081649e-01
2.081649e-01
2.081649e-01
2.081649e-01
2.081649e-01


9.885809e-01
9.902003e-01
9.916982e-01
9.928514e-01
9.939217e-01
9.949087e-01
9.958079e-01
9.966088e-01
9.973029e-01
9.978834e-01
9.983451e-01
9.986832e-01
9.988934e-01
9.989684e-01
9.990226e-01
9.956854e-01
9.956799e-01
9.949379e-01
9.954153e-01
9.960384e-01
9.966194e-01
9.971474e-01
9.976254e-01
9.980583e-01
9.984503e-01
9.988053e-01
9.991275e-01
9.994192e-01
9.996737e-01
9.998404e-01
9.994189e-01
9.937064e-01
9.984990e-01
9.980728e-01
9.979577e-01
9.981196e-01
9.983325e-01
9.985387e-01
9.987302e-01
9.989111e-01
9.990863e-01
9.992572e-01
9.994168e-01
9.995403e-01
9.995661e-01
9.993436e-01
9.985365e-01
9.970847e-01
9.996945e-01
9.993837e-01
9.991917e-01
9.991429e-01
9.991624e-01
9.991950e-01
9.992276e-01
9.992595e-01
9.992907e-01
9.993169e-01
9.993242e-01
9.992853e-01
9.991619e-01
9.989403e-01
9.987525e-01
9.987049e-01
9.996957e-01
9.993853e-01
9.991931e-01
9.991426e-01
9.991576e-01
9.991811e-01
9.991974e-01
9.992029e-01
9.991954e-01
9.991714e-01
9.991266e-01
9.990620e-01
9.990005e-01
9.990127e-01
9.991865e-01
9.994875e-01
9.985011e-01
9.980760e-01
9.979608e-01
9.981196e-01
9.983242e-01
9.985132e-01
9.986731e-01
9.988016e-01
9.988978e-01
9.989626e-01
9.990036e-01
9.990437e-01
9.991279e-01
9.993043e-01
9.995693e-01
9.998434e-01
9.956795e-01
9.949376e-01
9.954147e-01
9.960367e-01
9.966148e-01
9.971370e-01
9.976038e-01
9.980172e-01
9.983774e-01
9.986853e-01
9.989459e-01
9.991735e-01
9.993927e-01
9.996225e-01
9.998374e-01
9.999728e-01
9.885732e-01
9.901881e-01
9.916833e-01
9.928346e-01
9.939067e-01
9.949032e-01
9.958265e-01
9.966742e-01
9.974466e-01
9.981422e-01
9.987528e-01
9.992592e-01
9.996360e-01
9.998685e-01
9.999742e-01
9.999995e-01
1 2 19 18
2 3 20 19
3 4 21 20
4 5 22 21
5 6 23 22
6 7 24 23
7 8 25 24
8 9 26 25
9 10 27 26
10 11 28 27
11 12 29 28
12 13 30 29
13 14 31 30
14 15 32 31
15 16 33 32
16 17 34 33
18 19 36 35
19 20 37 36
20 21 38 37
21 22 39 38
22 23 40 39
23 24 41 40
24 25 42 41
25 26 43 42
26 27 44 43
27 28 45 44
28 29 46 45
29 30 47 46
30 31 48 47
31 32 49 48
32 33 50 49
33 34 51 50
35 36 53 52
36 37 54 53
37 38 55 54
38 39 56 55
39 40 57 56
40 41 58 57
41 42 59 58
42 43 60 59
43 44 61 60
44 45 62 61
45 46 63 62
46 47 64 63
47 48 65 64
48 49 66 65
49 50 67 66
50 51 68 67
52 53 70 69
53 54 71 70
54 55 72 71
55 56 73 72
56 57 74 73
57 58 75 74
58 59 76 75
59 60 77 76
60 61 78 77
61 62 79 78
62 63 80 79
63 64 81 80
64 65 82 81
65 66 83 82
66 67 84 83
67 68 85 84
69 70 87 86
70 71 88 87
71 72 89 88
72 73 90 89
73 74 91 90
74 75 92 91
75 76 93 92
76 77 94 93
77 78 95 94
78 79 96 95
79 80 97 96
80 81 98 97
81 82 99 98
82 83 100 99
83 84 101 100
84 85 102 101
86 87 104 103
87 88 105 104
88 89 106 105
89 90 107 106
90 91 108 107
91 92 109 108
92 93 110 109
93 94 111 110
94 95 112 111
95 96 113 112
96 97 114 113
97 98 115 114
98 99 116 115
99 100 117 116
100 101 118 117
101 102 119 118
103 104 121 120
104 105 122 121
105 106 123 122
106 107 124 123
107 108 125 124
108 109 126 125
109 110 127 126
110 111 128 127
111 112 129 128
112 113 130 129
113 114 131 130
114 115 132 131
115 116 133 132
116 117 134 133
117 118 135 134
118 119 136 135
120 121 138 137
121 122 139 138
122 123 140 139
123 124 141 140
124 125 142 141
125 126 143 142
126 127 144 143
127 128 145 144
128 129 146 145
129 130 147 146
130 131 148 147
131 132 149 148
132 133 150 149
133 134 151 150
134 135 152 151
135 136 153 152
