TITLE = "Solution"
VARIABLES = x, y, u, v, psiu, psiv, t, stress
ZONE T="structure" N=153 E=128 F=FEBLOCK ET=QUADRILATERAL VARLOCATION=([7,8]=cellcentered)
0.000000e+00
1.250000e+01
2.500000e+01
3.750000e+01
5.000000e+01
6.250000e+01
7.500000e+01
8.750000e+01
1.000000e+02
1.125000e+02
1.250000e+02
1.375000e+02
1.500000e+02
1.625000e+02
1.750000e+02
1.875000e+02
2.000000e+02
0.000000e+00
1.250000e+01
2.500000e+01
3.750000e+01
5.000000e+01
6.250000e+01
7.500000e+01
8.750000e+01
1.000000e+02
1.125000e+02
1.250000e+02
1.375000e+02
1.500000e+02
1.625000e+02
1.750000e+02
1.875000e+02
2.000000e+02
0.000000e+00
1.250000e+01
2.500000e+01
3.750000e+01
5.000000e+01
6.250000e+01
7.500000e+01
8.750000e+01
1.000000e+02
1.125000e+02
1.250000e+02
1.375000e+02
1.500000e+02
1.625000e+02
1.750000e+02
1.875000e+02
2.000000e+02
0.000000e+00
1.250000e+01
2.500000e+01
3.750000e+01
5.000000e+01
6.250000e+01
7.500000e+01
8.750000e+01
1.000000e+02
1.125000e+02
1.250000e+02
1.375000e+02
1.500000e+02
1.625000e+02
1.750000e+02
1.875000e+02
2.000000e+02
0.000000e+00
1.250000e+01
2.500000e+01
3.750000e+01
5.000000e+01
6.250000e+01
7.500000e+01
8.750000e+01
1.000000e+02
1.125000e+02
1.250000e+02
1.375000e+02
1.500000e+02
1.625000e+02
1.750000e+02
1.875000e+02
2.000000e+02
0.000000e+00
1.250000e+01
2.500000e+01
3.750000e+01
5.000000e+01
6.250000e+01
7.500000e+01
8.750000e+01
1.000000e+02
1.125000e+02
1.250000e+02
1.375000e+02
1.500000e+02
1.625000e+02
1.750000e+02
1.875000e+02
2.000000e+02
0.000000e+00
1.250000e+01
2.500000e+01
3.750000e+01
5.000000e+01
6.250000e+01
7.500000e+01
8.750000e+01
1.000000e+02
1.125000e+02
1.250000e+02
1.375000e+02
1.500000e+02
1.625000e+02
1.750000e+02
1.875000e+02
2.000000e+02
0.000000e+00
1.250000e+01
2.500000e+01
3.750000e+01
5.000000e+01
6.250000e+01
7.500000e+01
8.750000e+01
1.000000e+02
1.125000e+02
1.250000e+02
1.375000e+02
1.500000e+02
1.625000e+02
1.750000e+02
1.875000e+02
2.000000e+02
0.000000e+00
1.250000e+01
2.500000e+01
3.750000e+01
5.000000e+01
6.250000e+01
7.500000e+01
8.750000e+01
1.000000e+02
1.125000e+02
1.250000e+02
1.375000e+02
1.500000e+02
1.625000e+02
1.750000e+02
1.875000e+02
2.000000e+02
0.000000e+00
0.000000e+00
0.000000e+00
0.000000e+00
0.000000e+00
0.000000e+00
0.000000e+00
0.000000e+00
0.000000e+00
0.000000e+00
0.000000e+00
0.000000e+00
0.000000e+00
0.000000e+00
0.000000e+00
0.000000e+00
0.000000e+00
1.250000e+01
1.250000e+01
1.250000e+01
1.250000e+01
1.250000e+01
1.250000e+01
1.250000e+01
1.250000e+01
1.250000e+01
1.250000e+01
1.250000e+01
1.250000e+01
1.250000e+01
1.250000e+01
1.250000e+01
1.250000e+01
1.250000e+01
2.500000e+01
2.500000e+01
2.500000e+01
2.500000e+01
2.500000e+01
2.500000e+01
2.500000e+01
2.500000e+01
2.500000e+01
2.500000e+01
2.500000e+01
2.500000e+01
2.500000e+01
2.500000e+01
2.500000e+01
2.500000e+01
2.500000e+01
3.750000e+01
3.750000e+01
3.750000e+01
3.750000e+01
3.750000e+01
3.750000e+01
3.750000e+01
3.750000e+01
3.750000e+01
3.750000e+01
3.750000e+01
3.750000e+01
3.750000e+01
3.750000e+01
3.750000e+01
3.750000e+01
3.750000e+01
5.000000e+01
5.000000e+01
5.000000e+01
5.000000e+01
5.000000e+01
5.000000e+01
5.000000e+01
5.000000e+01
5.000000e+01
5.000000e+01
5.000000e+01
5.000000e+01
5.000000e+01
5.000000e+01
5.000000e+01
5.000000e+01
5.000000e+01
6.250000e+01
6.250000e+01
6.250000e+01
6.250000e+01
6.250000e+01
6.250000e+01
6.250000e+01
6.250000e+01
6.250000e+01
6.250000e+01
6.250000e+01
6.250000e+01
6.250000e+01
6.250000e+01
6.250000e+01
6.250000e+01
6.250000e+01
7.500000e+01
7.500000e+01
7.500000e+01
7.500000e+01
7.500000e+01
7.500000e+01
7.500000e+01
7.500000e+01
7.500000e+01
7.500000e+01
7.500000e+01
7.500000e+01
7.500000e+01
7.500000e+01
7.500000e+01
7.500000e+01
7.500000e+01
8.750000e+01
8.750000e+01
8.750000e+01
8.750000e+01
8.750000e+01
8.750000e+01
8.750000e+01
8.750000e+01
8.750000e+01
8.750000e+01
8.750000e+01
8.750000e+01
8.750000e+01
8.750000e+01
8.750000e+01
8.750000e+01
8.750000e+01
1.000000e+02
1.000000e+02
1.000000e+02
1.000000e+02
1.000000e+02
1.000000e+02
1.000000e+02
1.000000e+02
1.000000e+02
1.000000e+02
1.000000e+02
1.000000e+02
1.000000e+02
1.000000e+02
1.000000e+02
1.000000e+02
1.000000e+02
0.000000e+00
-7.086450e-02
-1.304840e-01
-1.853417e-01
-2.364295e-01
-2.836397e-01
-3.268709e-01
-3.660897e-01
-4.013531e-01
-4.328236e-01
-4.608130e-01
-4.858686e-01
-5.089313e-01
-5.316270e-01
-5.567595e-01
-5.876253e-01
-6.107868e-01
0.000000e+00
-4.231903e-02
-8.790956e-02
-1.300095e-01
-1.687964e-01
-2.044179e-01
-2.369477e-01
-2.664296e-01
-2.929165e-01
-3.164901e-01
-3.372701e-01
-3.554063e-01
-3.710143e-01
-3.839336e-01
-3.930462e-01
-3.950435e-01
-4.022045e-01
0.000000e+00
-2.646512e-02
-5.441890e-02
-8.230693e-02
-1.083395e-01
-1.322411e-01
-1.539922e-01
-1.736175e-01
-1.911218e-01
-2.064760e-01
-2.195973e-01
-2.303026e-01
-2.382101e-01
-2.426243e-01
-2.427468e-01
-2.409834e-01
-2.482871e-01
0.000000e+00
-1.277370e-02
-2.629638e-02
-3.990445e-02
-5.291622e-02
-6.490087e-02
-7.576376e-02
-8.547327e-02
-9.397382e-02
-1.011548e-01
-1.068327e-01
-1.107395e-01
-1.125554e-01
-1.121311e-01
-1.103882e-01
-1.108648e-01
-1.163031e-01
0.000000e+00
-1.176694e-05
-2.674997e-05
-4.168378e-05
-4.960941e-05
-3.500865e-05
3.292017e-05
2.094469e-04
5.852490e-04
1.295396e-03
2.516104e-03
4.424399e-03
7.068113e-03
1.005564e-02
1.211934e-02
1.155333e-02
7.952702e-03
0.000000e+00
1.275560e-02
2.625435e-02
3.983722e-02
5.283259e-02
6.483285e-02
7.579015e-02
8.575809e-02
9.482311e-02
1.030903e-01
1.106678e-01
1.176116e-01
1.238012e-01
1.287645e-01
1.316841e-01
1.319157e-01
1.300882e-01
0.000000e+00
2.646215e-02
5.440985e-02
8.228891e-02
1.083114e-01
1.322060e-01
1.539632e-01
1.736269e-01
1.912382e-01
2.068281e-01
2.204104e-01
2.319517e-01
2.413195e-01
2.482455e-01
2.524025e-01
2.537524e-01
2.533262e-01
0.000000e+00
4.233639e-02
8.794730e-02
1.300697e-01
1.688772e-01
2.045043e-01
2.369963e-01
2.663409e-01
2.924937e-01
3.153790e-01
3.348883e-01
3.508867e-01
3.632463e-01
3.719261e-01
3.771037e-01
3.793117e-01
3.797173e-01
0.000000e+00
7.089353e-02
1.305606e-01
1.854852e-01
2.366587e-01
2.839620e-01
3.272554e-01
3.664130e-01
4.013039e-01
4.317467e-01
4.574775e-01
4.781532e-01
4.934343e-01
5.032005e-01
5.079236e-01
5.090894e-01
5.090669e-01
0.000000e+00
-4.289624e-02
-8.421029e-02
-1.377437e-01
-2.034448e-01
-2.811908e-01
-3.701302e-01
-4.692676e-01
-5.775489e-01
-6.939339e-01
-8.174617e-01
-9.473676e-01
-1.083338e+00
-1.226100e+00
-1.379355e+00
-1.554708e+00
-1.806659e+00
0.000000e+00
-2.640771e-02
-6.950504e-02
-1.237023e-01
-1.904772e-01
-2.692842e-01
-3.593010e-01
-4.595081e-01
-5.688389e-01
-6.862345e-01
-8.107074e-01
-9.414578e-01
-1.078124e+00
-1.221413e+00
-1.374609e+00
-1.548898e+00
-1.762420e+00
0.000000e+00
-1.992695e-02
-5.931063e-02
-1.137079e-01
-1.811142e-01
-2.607323e-01
-3.515766e-01
-4.526174e-01
-5.627956e-01
-6.810674e-01
-8.064643e-01
-9.382140e-01
-1.075989e+00
-1.220380e+00
-1.373708e+00
-1.538852e+00
-1.698677e+00
0.000000e+00
-1.717162e-02
-5.424202e-02
-1.078415e-01
-1.754914e-01
-2.555997e-01
-3.470103e-01
-4.486547e-01
-5.594935e-01
-6.785113e-01
-8.047605e-01
-9.374539e-01
-1.076108e+00
-1.220659e+00
-1.370919e+00
-1.522664e+00
-1.662456e+00
0.000000e+00
-1.637787e-02
-5.270802e-02
-1.059700e-01
-1.736384e-01
-2.539460e-01
-3.456195e-01
-4.475911e-01
-5.588413e-01
-6.783712e-01
-8.052123e-01
-9.384524e-01
-1.077230e+00
-1.220523e+00
-1.366185e+00
-1.509235e+00
-1.641020e+00
0.000000e+00
-1.716143e-02
-5.423477e-02
-1.078544e-01
-1.755548e-01
-2.557667e-01
-3.473676e-01
-4.493314e-01
-5.606603e-01
-6.803503e-01
-8.073702e-01
-9.406167e-01
-1.078801e+00
-1.220164e+00
-1.361990e+00
-1.500135e+00
-1.629107e+00
0.000000e+00
-1.991033e-02
-5.929861e-02
-1.137294e-01
-1.812210e-01
-2.610149e-01
-3.521824e-01
-4.537665e-01
-5.647795e-01
-6.842000e-01
-8.109275e-01
-9.436889e-01
-1.080885e+00
-1.220395e+00
-1.359472e+00
-1.494966e+00
-1.623852e+00
0.000000e+00
-2.639212e-02
-6.949458e-02
-1.237309e-01
-1.906055e-01
-2.696165e-01
-3.600062e-01
-4.608362e-01
-5.711177e-01
-6.898108e-01
-8.157696e-01
-9.476303e-01
-1.083657e+00
-1.221615e+00
-1.358842e+00
-1.492829e+00
-1.622619e+00
0.000000e+00
-4.288979e-02
-8.421119e-02
-1.377879e-01
-2.035935e-01
-2.815459e-01
-3.708518e-01
-4.705842e-01
-5.797439e-01
-6.972728e-01
-8.219974e-01
-9.525237e-01
-1.087104e+00
-1.223552e+00
-1.359378e+00
-1.492438e+00
-1.622638e+00


0.000000e+00
2.545002e-11
5.263436e-11
7.671867e-11
9.706818e-11
1.136004e-10
1.266233e-10
1.366061e-10
1.440751e-10
1.495164e-10
1.533932e-10
1.561138e-10
1.580536e-10
1.595609e-10
1.609624e-10
1.626895e-10
1.647616e-10
0.000000e+00
1.730821e-11
4.078950e-11
5.992403e-11
7.527556e-11
8.741000e-11
9.677609e-11
1.038400e-10
1.090253e-10
1.127163e-10
1.152492e-10
1.168935e-10
1.178654e-10
1.183440e-10
1.188291e-10
1.202419e-10
1.223753e-10
0.000000e+00
1.288682e-11
2.833260e-11
4.124013e-11
5.161517e-11
5.962548e-11
6.566171e-11
7.009520e-11
7.326084e-11
7.542099e-11
7.680379e-11
7.758622e-11
7.793538e-11
7.806989e-11
7.841054e-11
7.951691e-11
8.124376e-11
0.000000e+00
6.897458e-12
1.413281e-11
2.058938e-11
2.587273e-11
2.991198e-11
3.289589e-11
3.503748e-11
3.651645e-11
3.747307e-11
3.802853e-11
3.829406e-11
3.840188e-11
3.852120e-11
3.881956e-11
3.949252e-11
4.055659e-11
0.000000e+00
-6.369249e-15
-1.751100e-14
-3.271382e-14
-5.422703e-14
-8.612336e-14
-1.283955e-13
-1.906494e-13
-2.731203e-13
-3.774805e-13
-4.968389e-13
-5.998332e-13
-6.428836e-13
-5.735412e-13
-3.906434e-13
-6.659958e-14
4.875142e-13
0.000000e+00
-6.913743e-12
-1.416534e-11
-2.064657e-11
-2.596111e-11
-3.004695e-11
-3.309893e-11
-3.533492e-11
-3.694192e-11
-3.806331e-11
-3.881058e-11
-3.927126e-11
-3.950817e-11
-3.958712e-11
-3.958324e-11
-3.950314e-11
-3.926512e-11
0.000000e+00
-1.289312e-11
-2.835202e-11
-4.127728e-11
-5.167589e-11
-5.971428e-11
-6.578075e-11
-7.024971e-11
-7.345668e-11
-7.566872e-11
-7.712624e-11
-7.802337e-11
-7.853789e-11
-7.881418e-11
-7.896275e-11
-7.901395e-11
-7.894691e-11
0.000000e+00
-1.731469e-11
-4.080481e-11
-5.995113e-11
-7.530948e-11
-8.744967e-11
-9.681550e-11
-1.038652e-10
-1.090178e-10
-1.126551e-10
-1.151166e-10
-1.167015e-10
-1.176712e-10
-1.182339e-10
-1.185451e-10
-1.186868e-10
-1.187061e-10
0.000000e+00
-2.546254e-11
-5.265670e-11
-7.674406e-11
-9.709159e-11
-1.136130e-10
-1.266025e-10
-1.365305e-10
-1.439080e-10
-1.492162e-10
-1.529128e-10
-1.553815e-10
-1.569614e-10
-1.579066e-10
-1.584045e-10
-1.585968e-10
-1.586266e-10
0.000000e+00
2.311807e-11
4.155430e-11
6.090577e-11
8.413735e-11
1.114893e-10
1.424010e-10
1.761486e-10
2.120401e-10
2.494989e-10
2.880888e-10
3.275158e-10
3.676510e-10
4.087715e-10
4.519720e-10
4.978221e-10
5.442687e-10
0.000000e+00
1.242895e-11
3.044499e-11
5.109303e-11
7.609091e-11
1.051346e-10
1.375400e-10
1.725270e-10
2.094135e-10
2.476582e-10
2.868431e-10
3.267021e-10
3.671240e-10
4.082310e-10
4.505569e-10
4.951306e-10
5.408196e-10
0.000000e+00
6.129613e-12
2.172249e-11
4.343147e-11
6.986628e-11
1.003113e-10
1.339049e-10
1.698590e-10
2.075191e-10
2.463678e-10
2.860185e-10
3.262205e-10
3.668409e-10
4.078075e-10
4.491720e-10
4.922693e-10
5.367329e-10
0.000000e+00
3.486407e-12
1.760552e-11
3.941433e-11
6.660158e-11
9.781548e-11
1.320548e-10
1.685243e-10
2.065928e-10
2.457646e-10
2.856649e-10
3.260345e-10
3.666990e-10
4.074714e-10
4.483124e-10
4.902359e-10
5.331500e-10
0.000000e+00
2.815759e-12
1.648194e-11
3.819938e-11
6.559733e-11
9.705718e-11
1.315034e-10
1.681389e-10
2.063456e-10
2.456257e-10
2.856088e-10
3.260155e-10
3.666379e-10
4.072906e-10
4.479081e-10
4.890714e-10
5.306007e-10
0.000000e+00
3.492389e-12
1.761369e-11
3.942620e-11
6.661656e-11
9.783783e-11
1.320904e-10
1.685822e-10
2.066854e-10
2.458943e-10
2.858212e-10
3.261681e-10
3.667153e-10
4.072864e-10
4.478147e-10
4.885094e-10
5.291323e-10
0.000000e+00
6.137877e-12
2.173516e-11
4.345300e-11
6.989241e-11
1.003564e-10
1.339779e-10
1.699746e-10
2.077024e-10
2.466219e-10
2.863325e-10
3.265120e-10
3.669251e-10
4.074017e-10
4.478428e-10
4.882595e-10
5.284461e-10
0.000000e+00
1.244331e-11
3.046630e-11
5.112983e-11
7.613409e-11
1.052027e-10
1.376429e-10
1.726826e-10
2.096451e-10
2.479732e-10
2.872299e-10
3.270740e-10
3.672530e-10
4.075717e-10
4.479061e-10
4.881644e-10
5.282168e-10
0.000000e+00
2.313587e-11
4.158508e-11
6.095210e-11
8.419707e-11
1.115691e-10
1.425128e-10
1.763061e-10
2.122589e-10
2.497854e-10
2.884276e-10
3.278190e-10
3.676788e-10
4.077927e-10
4.479965e-10
4.881582e-10
5.281801e-10


2.070601e-01
2.070601e-01
2.070601e-01
2.070601e-01
2.070601e-01
2.070601e-01
2.070601e-01
2.070601e-01
2.070601e-01
2.070601e-01
2.070601e-01
2.070601e-01
2.070601e-01
2.070601e-01
2.070601e-01
2.070601e-01
2.070601e-01
2.070601e-01
2.070601e-01
2.070601e-01
2.070601e-01
2.070601e-01
2.070601e-01
2.070601e-01
2.070601e-01
2.070601e-01
2.070601e-01
2.070601e-01
2.070601e-01
2.070601e-01
2.070601e-01
2.070601e-01
2.070601e-01
2.070601e-01
2.070601e-01
2.070601e-01
2.070601e-01
2.070601e-01
2.070601e-01
2.070601e-01
2.070601e-01
2.070601e-01
2.070601e-01
2.070601e-01
2.070601e-01
2.070601e-01
2.070601e-01
2.070601e-01
2.070601e-01
2.070601e-01
2.070601e-01
2.070601e-01
2.070601e-01
2.070601e-01
2.070601e-01
2.070601e-01
2.070601e-01
2.070601e-01
2.070601e-01
2.070601e-01
2.070601e-01
2.070601e-01
2.070601e-01
2.070601e-01
2.070601e-01
2.070601e-01
2.070601e-01
2.070601e-01
2.070601e-01
2.070601e-01
2.070601e-01
2.070601e-01
2.070601e-01
2.070601e-01
2.070601e-01
2.070601e-01
2.070601e-01
2.070601e-01
2.070601e-01
2.070601e-01
2.070601e-01
2.070601e-01
2.070601e-01
2.070601e-01
2.070601e-01
2.070601e-01
2.070601e-01
2.070601e-01
2.070601e-01
2.070601e-01
2.070601e-01
2.070601e-01
2.070601e-01
2.070601e-01
2.070601e-01
2.070601e-01
2.070601e-01
2.070601e-01
2.070601e-01
2.070601e-01
2.070601e-01
2.070601e-01
2.070601e-01
2.070601e-01
2.070601e-01
2.070601e-01
2.070601e-01
2.070601e-01
2.070601e-01
2.070601e-01
2.070601e-01
2.070601e-01
2.070601e-01
2.070601e-01
2.070601e-01
2.070601e-01
2.070601e-01
2.070601e-01
2.070601e-01
2.070601e-01
2.070601e-01
2.070601e-01
2.070601e-01
2.070601e-01
2.070601e-01
2.070601e-01
2.070601e-01
2.070601e-01


9.887018e-01
9.903040e-01
9.917861e-01
9.929271e-01
9.939861e-01
9.949626e-01
9.958523e-01
9.966447e-01
9.973315e-01
9.979059e-01
9.983626e-01
9.986972e-01
9.989052e-01
9.989794e-01
9.990329e-01
9.957311e-01
9.957257e-01
9.949915e-01
9.954639e-01
9.960804e-01
9.966552e-01
9.971776e-01
9.976505e-01
9.980788e-01
9.984667e-01
9.988180e-01
9.991367e-01
9.994254e-01
9.996772e-01
9.998421e-01
9.994251e-01
9.937730e-01
9.985149e-01
9.980932e-01
9.979793e-01
9.981395e-01
9.983501e-01
9.985542e-01
9.987436e-01
9.989226e-01
9.990960e-01
9.992651e-01
9.994230e-01
9.995452e-01
9.995707e-01
9.993506e-01
9.985520e-01
9.971156e-01
9.996978e-01
9.993902e-01
9.992002e-01
9.991520e-01
9.991713e-01
9.992036e-01
9.992358e-01
9.992673e-01
9.992982e-01
9.993241e-01
9.993313e-01
9.992928e-01
9.991707e-01
9.989516e-01
9.987657e-01
9.987187e-01
9.996989e-01
9.993918e-01
9.992016e-01
9.991517e-01
9.991665e-01
9.991898e-01
9.992059e-01
9.992114e-01
9.992039e-01
9.991801e-01
9.991358e-01
9.990719e-01
9.990111e-01
9.990232e-01
9.991952e-01
9.994929e-01
9.985170e-01
9.980964e-01
9.979824e-01
9.981395e-01
9.983420e-01
9.985289e-01
9.986871e-01
9.988143e-01
9.989095e-01
9.989736e-01
9.990142e-01
9.990538e-01
9.991371e-01
9.993117e-01
9.995739e-01
9.998450e-01
9.957253e-01
9.949912e-01
9.954632e-01
9.960786e-01
9.966507e-01
9.971673e-01
9.976292e-01
9.980382e-01
9.983946e-01
9.986992e-01
9.989570e-01
9.991823e-01
9.993991e-01
9.996265e-01
9.998392e-01
9.999731e-01
9.886941e-01
9.902919e-01
9.917713e-01
9.929105e-01
9.939712e-01
9.949572e-01
9.958707e-01
9.967094e-01
9.974737e-01
9.981619e-01
9.987660e-01
9.992671e-01
9.996399e-01
9.998699e-01
9.999745e-01
9.999995e-01
1 2 19 18
2 3 20 19
3 4 21 20
4 5 22 21
5 6 23 22
6 7 24 23
7 8 25 24
8 9 26 25
9 10 27 26
10 11 28 27
11 12 29 28
12 13 30 29
13 14 31 30
14 15 32 31
15 16 33 32
16 17 34 33
18 19 36 35
19 20 37 36
20 21 38 37
21 22 39 38
22 23 40 39
23 24 41 40
24 25 42 41
25 26 43 42
26 27 44 43
27 28 45 44
28 29 46 45
29 30 47 46
30 31 48 47
31 32 49 48
32 33 50 49
33 34 51 50
35 36 53 52
36 37 54 53
37 38 55 54
38 39 56 55
39 40 57 56
40 41 58 57
41 42 59 58
42 43 60 59
43 44 61 60
44 45 62 61
45 46 63 62
46 47 64 63
47 48 65 64
48 49 66 65
49 50 67 66
50 51 68 67
52 53 70 69
53 54 71 70
54 55 72 71
55 56 73 72
56 57 74 73
57 58 75 74
58 59 76 75
59 60 77 76
60 61 78 77
61 62 79 78
62 63 80 79
63 64 81 80
64 65 82 81
65 66 83 82
66 67 84 83
67 68 85 84
69 70 87 86
70 71 88 87
71 72 89 88
72 73 90 89
73 74 91 90
74 75 92 91
75 76 93 92
76 77 94 93
77 78 95 94
78 79 96 95
79 80 97 96
80 81 98 97
81 82 99 98
82 83 100 99
83 84 101 100
84 85 102 101
86 87 104 103
87 88 105 104
88 89 106 105
89 90 107 106
90 91 108 107
91 92 109 108
92 93 110 109
93 94 111 110
94 95 112 111
95 96 113 112
96 97 114 113
97 98 115 114
98 99 116 115
99 100 117 116
100 101 118 117
101 102 119 118
103 104 121 120
104 105 122 121
105 106 123 122
106 107 124 123
107 108 125 124
108 109 126 125
109 110 127 126
110 111 128 127
111 112 129 128
112 113 130 129
113 114 131 130
114 115 132 131
115 116 133 132
116 117 134 133
117 118 135 134
118 119 136 135
120 121 138 137
121 122 139 138
122 123 140 139
123 124 141 140
124 125 142 141
125 126 143 142
126 127 144 143
127 128 145 144
128 129 146 145
129 130 147 146
130 131 148 147
131 132 149 148
132 133 150 149
133 134 151 150
134 135 152 151
135 136 153 152
