TITLE = "Solution"
VARIABLES = x, y, u, v, psiu, psiv, t, stress
ZONE T="structure" N=153 E=128 F=FEBLOCK ET=QUADRILATERAL VARLOCATION=([7,8]=cellcentered)
0.000000e+00
1.250000e+01
2.500000e+01
3.750000e+01
5.000000e+01
6.250000e+01
7.500000e+01
8.750000e+01
1.000000e+02
1.125000e+02
1.250000e+02
1.375000e+02
1.500000e+02
1.625000e+02
1.750000e+02
1.875000e+02
2.000000e+02
0.000000e+00
1.250000e+01
2.500000e+01
3.750000e+01
5.000000e+01
6.250000e+01
7.500000e+01
8.750000e+01
1.000000e+02
1.125000e+02
1.250000e+02
1.375000e+02
1.500000e+02
1.625000e+02
1.750000e+02
1.875000e+02
2.000000e+02
0.000000e+00
1.250000e+01
2.500000e+01
3.750000e+01
5.000000e+01
6.250000e+01
7.500000e+01
8.750000e+01
1.000000e+02
1.125000e+02
1.250000e+02
1.375000e+02
1.500000e+02
1.625000e+02
1.750000e+02
1.875000e+02
2.000000e+02
0.000000e+00
1.250000e+01
2.500000e+01
3.750000e+01
5.000000e+01
6.250000e+01
7.500000e+01
8.750000e+01
1.000000e+02
1.125000e+02
1.250000e+02
1.375000e+02
1.500000e+02
1.625000e+02
1.750000e+02
1.875000e+02
2.000000e+02
0.000000e+00
1.250000e+01
2.500000e+01
3.750000e+01
5.000000e+01
6.250000e+01
7.500000e+01
8.750000e+01
1.000000e+02
1.125000e+02
1.250000e+02
1.375000e+02
1.500000e+02
1.625000e+02
1.750000e+02
1.875000e+02
2.000000e+02
0.000000e+00
1.250000e+01
2.500000e+01
3.750000e+01
5.000000e+01
6.250000e+01
7.500000e+01
8.750000e+01
1.000000e+02
1.125000e+02
1.250000e+02
1.375000e+02
1.500000e+02
1.625000e+02
1.750000e+02
1.875000e+02
2.000000e+02
0.000000e+00
1.250000e+01
2.500000e+01
3.750000e+01
5.000000e+01
6.250000e+01
7.500000e+01
8.750000e+01
1.000000e+02
1.125000e+02
1.250000e+02
1.375000e+02
1.500000e+02
1.625000e+02
1.750000e+02
1.875000e+02
2.000000e+02
0.000000e+00
1.250000e+01
2.500000e+01
3.750000e+01
5.000000e+01
6.250000e+01
7.500000e+01
8.750000e+01
1.000000e+02
1.125000e+02
1.250000e+02
1.375000e+02
1.500000e+02
1.625000e+02
1.750000e+02
1.875000e+02
2.000000e+02
0.000000e+00
1.250000e+01
2.500000e+01
3.750000e+01
5.000000e+01
6.250000e+01
7.500000e+01
8.750000e+01
1.000000e+02
1.125000e+02
1.250000e+02
1.375000e+02
1.500000e+02
1.625000e+02
1.750000e+02
1.875000e+02
2.000000e+02
0.000000e+00
0.000000e+00
0.000000e+00
0.000000e+00
0.000000e+00
0.000000e+00
0.000000e+00
0.000000e+00
0.000000e+00
0.000000e+00
0.000000e+00
0.000000e+00
0.000000e+00
0.000000e+00
0.000000e+00
0.000000e+00
0.000000e+00
1.250000e+01
1.250000e+01
1.250000e+01
1.250000e+01
1.250000e+01
1.250000e+01
1.250000e+01
1.250000e+01
1.250000e+01
1.250000e+01
1.250000e+01
1.250000e+01
1.250000e+01
1.250000e+01
1.250000e+01
1.250000e+01
1.250000e+01
2.500000e+01
2.500000e+01
2.500000e+01
2.500000e+01
2.500000e+01
2.500000e+01
2.500000e+01
2.500000e+01
2.500000e+01
2.500000e+01
2.500000e+01
2.500000e+01
2.500000e+01
2.500000e+01
2.500000e+01
2.500000e+01
2.500000e+01
3.750000e+01
3.750000e+01
3.750000e+01
3.750000e+01
3.750000e+01
3.750000e+01
3.750000e+01
3.750000e+01
3.750000e+01
3.750000e+01
3.750000e+01
3.750000e+01
3.750000e+01
3.750000e+01
3.750000e+01
3.750000e+01
3.750000e+01
5.000000e+01
5.000000e+01
5.000000e+01
5.000000e+01
5.000000e+01
5.000000e+01
5.000000e+01
5.000000e+01
5.000000e+01
5.000000e+01
5.000000e+01
5.000000e+01
5.000000e+01
5.000000e+01
5.000000e+01
5.000000e+01
5.000000e+01
6.250000e+01
6.250000e+01
6.250000e+01
6.250000e+01
6.250000e+01
6.250000e+01
6.250000e+01
6.250000e+01
6.250000e+01
6.250000e+01
6.250000e+01
6.250000e+01
6.250000e+01
6.250000e+01
6.250000e+01
6.250000e+01
6.250000e+01
7.500000e+01
7.500000e+01
7.500000e+01
7.500000e+01
7.500000e+01
7.500000e+01
7.500000e+01
7.500000e+01
7.500000e+01
7.500000e+01
7.500000e+01
7.500000e+01
7.500000e+01
7.500000e+01
7.500000e+01
7.500000e+01
7.500000e+01
8.750000e+01
8.750000e+01
8.750000e+01
8.750000e+01
8.750000e+01
8.750000e+01
8.750000e+01
8.750000e+01
8.750000e+01
8.750000e+01
8.750000e+01
8.750000e+01
8.750000e+01
8.750000e+01
8.750000e+01
8.750000e+01
8.750000e+01
1.000000e+02
1.000000e+02
1.000000e+02
1.000000e+02
1.000000e+02
1.000000e+02
1.000000e+02
1.000000e+02
1.000000e+02
1.000000e+02
1.000000e+02
1.000000e+02
1.000000e+02
1.000000e+02
1.000000e+02
1.000000e+02
1.000000e+02
0.000000e+00
-1.459394e-01
-2.687206e-01
-3.816959e-01
-4.869087e-01
-5.841368e-01
-6.731711e-01
-7.539424e-01
-8.265680e-01
-8.913821e-01
-9.490273e-01
-1.000630e+00
-1.048128e+00
-1.094871e+00
-1.146632e+00
-1.210201e+00
-1.257903e+00
0.000000e+00
-8.715203e-02
-1.810415e-01
-2.677430e-01
-3.476227e-01
-4.209841e-01
-4.879790e-01
-5.486969e-01
-6.032472e-01
-6.517976e-01
-6.945947e-01
-7.319466e-01
-7.640920e-01
-7.906996e-01
-8.094674e-01
-8.135810e-01
-8.283292e-01
0.000000e+00
-5.450216e-02
-1.120702e-01
-1.695034e-01
-2.231162e-01
-2.723407e-01
-3.171369e-01
-3.575552e-01
-3.936057e-01
-4.252279e-01
-4.522517e-01
-4.742996e-01
-4.905854e-01
-4.996765e-01
-4.999289e-01
-4.962972e-01
-5.113392e-01
0.000000e+00
-2.630604e-02
-5.415463e-02
-8.217939e-02
-1.089764e-01
-1.336584e-01
-1.560304e-01
-1.760272e-01
-1.935342e-01
-2.083236e-01
-2.200173e-01
-2.280635e-01
-2.318034e-01
-2.309296e-01
-2.273399e-01
-2.283216e-01
-2.395219e-01
0.000000e+00
-2.423637e-05
-5.509643e-05
-8.585517e-05
-1.021804e-04
-7.211194e-05
6.778741e-05
4.313479e-04
1.205324e-03
2.667895e-03
5.181987e-03
9.112191e-03
1.455702e-02
2.070995e-02
2.496022e-02
2.379452e-02
1.637890e-02
0.000000e+00
2.626875e-02
5.406806e-02
8.204091e-02
1.088042e-01
1.335183e-01
1.560847e-01
1.766138e-01
1.952833e-01
2.123098e-01
2.279159e-01
2.422169e-01
2.549645e-01
2.651866e-01
2.711998e-01
2.716767e-01
2.679128e-01
0.000000e+00
5.449603e-02
1.120516e-01
1.694663e-01
2.230582e-01
2.722685e-01
3.170771e-01
3.575747e-01
3.938453e-01
4.259531e-01
4.539262e-01
4.776960e-01
4.969893e-01
5.112535e-01
5.198152e-01
5.225952e-01
5.217175e-01
0.000000e+00
8.718778e-02
1.811192e-01
2.678670e-01
3.477889e-01
4.211620e-01
4.880788e-01
5.485143e-01
6.023764e-01
6.495092e-01
6.896892e-01
7.226385e-01
7.480934e-01
7.659697e-01
7.766333e-01
7.811807e-01
7.820159e-01
0.000000e+00
1.459992e-01
2.688784e-01
3.819914e-01
4.873807e-01
5.848006e-01
6.739630e-01
7.546083e-01
8.264666e-01
8.891643e-01
9.421576e-01
9.847399e-01
1.016212e+00
1.036326e+00
1.046053e+00
1.048454e+00
1.048408e+00
0.000000e+00
-8.834125e-02
-1.734247e-01
-2.836735e-01
-4.189812e-01
-5.790949e-01
-7.622612e-01
-9.664303e-01
-1.189431e+00
-1.429122e+00
-1.683524e+00
-1.951061e+00
-2.231089e+00
-2.525103e+00
-2.840730e+00
-3.201867e+00
-3.720758e+00
0.000000e+00
-5.438455e-02
-1.431405e-01
-2.547561e-01
-3.922749e-01
-5.545734e-01
-7.399586e-01
-9.463304e-01
-1.171493e+00
-1.413265e+00
-1.669613e+00
-1.938890e+00
-2.220350e+00
-2.515450e+00
-2.830955e+00
-3.189900e+00
-3.629647e+00
0.000000e+00
-4.103811e-02
-1.221460e-01
-2.341734e-01
-3.729922e-01
-5.369611e-01
-7.240501e-01
-9.321391e-01
-1.159047e+00
-1.402623e+00
-1.660874e+00
-1.932209e+00
-2.215953e+00
-2.513323e+00
-2.829098e+00
-3.169211e+00
-3.498368e+00
0.000000e+00
-3.536395e-02
-1.117078e-01
-2.220919e-01
-3.614125e-01
-5.263905e-01
-7.146459e-01
-9.239778e-01
-1.152246e+00
-1.397359e+00
-1.657365e+00
-1.930643e+00
-2.216199e+00
-2.513897e+00
-2.823355e+00
-3.135871e+00
-3.423768e+00
0.000000e+00
-3.372938e-02
-1.085487e-01
-2.182379e-01
-3.575963e-01
-5.229849e-01
-7.117816e-01
-9.217873e-01
-1.150903e+00
-1.397070e+00
-1.658296e+00
-1.932700e+00
-2.218510e+00
-2.513617e+00
-2.813605e+00
-3.108214e+00
-3.379620e+00
0.000000e+00
-3.534296e-02
-1.116928e-01
-2.221185e-01
-3.615431e-01
-5.267346e-01
-7.153818e-01
-9.253716e-01
-1.154649e+00
-1.401146e+00
-1.662740e+00
-1.937157e+00
-2.221744e+00
-2.512877e+00
-2.804965e+00
-3.089471e+00
-3.355085e+00
0.000000e+00
-4.100387e-02
-1.221213e-01
-2.342177e-01
-3.732122e-01
-5.375431e-01
-7.252978e-01
-9.345057e-01
-1.163132e+00
-1.409075e+00
-1.670066e+00
-1.943485e+00
-2.226036e+00
-2.513355e+00
-2.799780e+00
-3.078826e+00
-3.344263e+00
0.000000e+00
-5.435245e-02
-1.431190e-01
-2.548150e-01
-3.925391e-01
-5.552578e-01
-7.414109e-01
-9.490658e-01
-1.176186e+00
-1.420630e+00
-1.680039e+00
-1.951602e+00
-2.231746e+00
-2.515866e+00
-2.798481e+00
-3.074424e+00
-3.341723e+00
0.000000e+00
-8.832798e-02
-1.734266e-01
-2.837646e-01
-4.192874e-01
-5.798263e-01
-7.637473e-01
-9.691418e-01
-1.193952e+00
-1.435999e+00
-1.692865e+00
-1.961680e+00
-2.238845e+00
-2.519856e+00
-2.799585e+00
-3.073619e+00
-3.341762e+00


0.000000e+00
7.396039e-09
1.529555e-08
2.230204e-08
2.823052e-08
3.305625e-08
3.686251e-08
3.978661e-08
4.197621e-08
4.357439e-08
4.471333e-08
4.551262e-08
4.608212e-08
4.652413e-08
4.693507e-08
4.744196e-08
4.805021e-08
0.000000e+00
5.023529e-09
1.184544e-08
1.741381e-08
2.188951e-08
2.543371e-08
2.817465e-08
3.024436e-08
3.176620e-08
3.285087e-08
3.359497e-08
3.407893e-08
3.436367e-08
3.450405e-08
3.464624e-08
3.506085e-08
3.568719e-08
0.000000e+00
3.740140e-09
8.229343e-09
1.198684e-08
1.501184e-08
1.735244e-08
1.911782e-08
2.041766e-08
2.134602e-08
2.198114e-08
2.238756e-08
2.261838e-08
2.272133e-08
2.276138e-08
2.286151e-08
2.318677e-08
2.369410e-08
0.000000e+00
2.004154e-09
4.108823e-09
5.988164e-09
7.527765e-09
8.706899e-09
9.579402e-09
1.020695e-08
1.064085e-08
1.092219e-08
1.108557e-08
1.116397e-08
1.119587e-08
1.123085e-08
1.131883e-08
1.151659e-08
1.182901e-08
0.000000e+00
-2.164464e-12
-5.106060e-12
-9.219761e-12
-1.517315e-11
-2.386054e-11
-3.645406e-11
-5.429175e-11
-7.853395e-11
-1.092534e-10
-1.437544e-10
-1.741157e-10
-1.860232e-10
-1.654069e-10
-1.113605e-10
-1.593625e-11
1.470515e-10
0.000000e+00
-2.007854e-09
-4.117420e-09
-6.003649e-09
-7.552935e-09
-8.745800e-09
-9.637679e-09
-1.029219e-08
-1.076256e-08
-1.109096e-08
-1.131021e-08
-1.144516e-08
-1.151485e-08
-1.153807e-08
-1.153698e-08
-1.151335e-08
-1.144364e-08
0.000000e+00
-3.741995e-09
-8.234488e-09
-1.199644e-08
-1.502723e-08
-1.737507e-08
-1.914920e-08
-2.045931e-08
-2.139980e-08
-2.205021e-08
-2.247821e-08
-2.274228e-08
-2.289310e-08
-2.297396e-08
-2.301736e-08
-2.303215e-08
-2.301252e-08
0.000000e+00
-5.024133e-09
-1.184859e-08
-1.741943e-08
-2.189735e-08
-2.544292e-08
-2.818310e-08
-3.024816e-08
-3.175970e-08
-3.282770e-08
-3.355083e-08
-3.401676e-08
-3.430137e-08
-3.446670e-08
-3.455774e-08
-3.459917e-08
-3.460495e-08
0.000000e+00
-7.399216e-09
-1.530068e-08
-2.230762e-08
-2.823482e-08
-3.305609e-08
-3.685290e-08
-3.976018e-08
-4.192311e-08
-4.348244e-08
-4.456766e-08
-4.529342e-08
-4.575642e-08
-4.603321e-08
-4.617933e-08
-4.623525e-08
-4.624492e-08
0.000000e+00
6.722189e-09
1.209264e-08
1.773243e-08
2.450111e-08
3.246726e-08
4.147083e-08
5.130272e-08
6.176164e-08
7.268103e-08
8.393272e-08
9.542877e-08
1.071336e-07
1.191247e-07
1.317270e-07
1.451072e-07
1.586596e-07
0.000000e+00
3.618787e-09
8.863043e-09
1.487617e-08
2.215288e-08
3.061076e-08
4.004825e-08
5.024082e-08
6.099140e-08
7.214000e-08
8.356629e-08
9.518991e-08
1.069777e-07
1.189662e-07
1.313110e-07
1.443164e-07
1.576481e-07
0.000000e+00
1.788558e-09
6.326192e-09
1.264331e-08
2.033684e-08
2.920039e-08
3.898344e-08
4.945831e-08
6.043461e-08
7.176071e-08
8.332356e-08
9.504809e-08
1.068946e-07
1.188418e-07
1.309042e-07
1.434764e-07
1.564480e-07
0.000000e+00
1.018909e-09
5.126971e-09
1.147212e-08
1.938350e-08
2.847058e-08
3.844171e-08
4.906712e-08
6.016289e-08
7.158344e-08
8.321910e-08
9.499302e-08
1.068519e-07
1.187425e-07
1.306516e-07
1.428790e-07
1.553973e-07
0.000000e+00
8.229782e-10
4.799668e-09
1.111766e-08
1.909063e-08
2.824863e-08
3.828009e-08
4.895417e-08
6.008955e-08
7.154241e-08
8.320211e-08
9.498677e-08
1.068340e-07
1.186890e-07
1.305327e-07
1.425371e-07
1.546489e-07
0.000000e+00
1.020306e-09
5.128919e-09
1.147476e-08
1.938724e-08
2.847651e-08
3.845175e-08
4.908403e-08
6.018959e-08
7.162135e-08
8.326458e-08
9.503182e-08
1.068565e-07
1.186879e-07
1.305055e-07
1.423719e-07
1.542178e-07
0.000000e+00
1.790757e-09
6.329694e-09
1.264849e-08
2.034450e-08
2.921266e-08
3.900390e-08
4.949201e-08
6.048699e-08
7.183492e-08
8.341462e-08
9.513278e-08
1.069188e-07
1.187217e-07
1.305140e-07
1.422987e-07
1.540164e-07
0.000000e+00
3.621834e-09
8.868768e-09
1.488467e-08
2.216520e-08
3.062940e-08
4.007719e-08
5.028556e-08
6.105785e-08
7.223176e-08
8.367868e-08
9.529855e-08
1.070151e-07
1.187723e-07
1.305326e-07
1.422709e-07
1.539491e-07
0.000000e+00
6.726989e-09
1.210096e-08
1.774416e-08
2.451720e-08
3.248959e-08
4.150256e-08
5.134797e-08
6.182481e-08
7.276430e-08
8.403073e-08
9.551716e-08
1.071403e-07
1.188366e-07
1.305590e-07
1.422690e-07
1.539388e-07


4.264172e-01
4.264171e-01
4.264206e-01
4.264267e-01
4.264322e-01
4.264367e-01
4.264402e-01
4.264428e-01
4.264446e-01
4.264460e-01
4.264468e-01
4.264474e-01
4.264475e-01
4.264471e-01
4.264461e-01
4.264453e-01
4.264235e-01
4.264234e-01
4.264260e-01
4.264309e-01
4.264354e-01
4.264390e-01
4.264417e-01
4.264438e-01
4.264453e-01
4.264464e-01
4.264471e-01
4.264475e-01
4.264476e-01
4.264471e-01
4.264461e-01
4.264454e-01
4.264341e-01
4.264339e-01
4.264353e-01
4.264381e-01
4.264406e-01
4.264427e-01
4.264444e-01
4.264456e-01
4.264465e-01
4.264471e-01
4.264475e-01
4.264477e-01
4.264477e-01
4.264473e-01
4.264465e-01
4.264459e-01
4.264417e-01
4.264414e-01
4.264420e-01
4.264431e-01
4.264443e-01
4.264454e-01
4.264462e-01
4.264468e-01
4.264472e-01
4.264475e-01
4.264477e-01
4.264477e-01
4.264477e-01
4.264475e-01
4.264471e-01
4.264468e-01
4.264417e-01
4.264414e-01
4.264420e-01
4.264431e-01
4.264443e-01
4.264454e-01
4.264462e-01
4.264467e-01
4.264471e-01
4.264474e-01
4.264476e-01
4.264477e-01
4.264477e-01
4.264477e-01
4.264476e-01
4.264475e-01
4.264341e-01
4.264339e-01
4.264353e-01
4.264380e-01
4.264406e-01
4.264427e-01
4.264443e-01
4.264455e-01
4.264464e-01
4.264470e-01
4.264474e-01
4.264476e-01
4.264478e-01
4.264479e-01
4.264479e-01
4.264479e-01
4.264235e-01
4.264233e-01
4.264260e-01
4.264309e-01
4.264353e-01
4.264389e-01
4.264417e-01
4.264438e-01
4.264453e-01
4.264464e-01
4.264471e-01
4.264475e-01
4.264478e-01
4.264480e-01
4.264480e-01
4.264481e-01
4.264172e-01
4.264171e-01
4.264206e-01
4.264267e-01
4.264322e-01
4.264367e-01
4.264402e-01
4.264428e-01
4.264447e-01
4.264460e-01
4.264469e-01
4.264475e-01
4.264478e-01
4.264480e-01
4.264481e-01
4.264482e-01


9.520826e-01
9.588776e-01
9.651631e-01
9.700013e-01
9.744925e-01
9.786339e-01
9.824072e-01
9.857680e-01
9.886810e-01
9.911174e-01
9.930547e-01
9.944739e-01
9.953561e-01
9.956708e-01
9.958979e-01
9.818928e-01
9.818720e-01
9.787581e-01
9.807612e-01
9.833756e-01
9.858132e-01
9.880288e-01
9.900345e-01
9.918512e-01
9.934962e-01
9.949863e-01
9.963383e-01
9.975626e-01
9.986307e-01
9.993301e-01
9.975614e-01
9.735873e-01
9.937013e-01
9.919128e-01
9.914298e-01
9.921089e-01
9.930022e-01
9.938675e-01
9.946710e-01
9.954302e-01
9.961656e-01
9.968827e-01
9.975524e-01
9.980709e-01
9.981791e-01
9.972454e-01
9.938579e-01
9.877653e-01
9.987181e-01
9.974136e-01
9.966078e-01
9.964033e-01
9.964849e-01
9.966219e-01
9.967586e-01
9.968922e-01
9.970234e-01
9.971332e-01
9.971637e-01
9.970005e-01
9.964825e-01
9.955529e-01
9.947645e-01
9.945650e-01
9.987229e-01
9.974204e-01
9.966139e-01
9.964021e-01
9.964646e-01
9.965633e-01
9.966318e-01
9.966549e-01
9.966234e-01
9.965224e-01
9.963343e-01
9.960633e-01
9.958052e-01
9.958565e-01
9.965861e-01
9.978490e-01
9.937104e-01
9.919264e-01
9.914429e-01
9.921090e-01
9.929675e-01
9.937604e-01
9.944313e-01
9.949706e-01
9.953745e-01
9.956465e-01
9.958185e-01
9.959866e-01
9.963398e-01
9.970803e-01
9.981926e-01
9.993427e-01
9.818703e-01
9.787568e-01
9.807585e-01
9.833681e-01
9.857941e-01
9.879851e-01
9.899441e-01
9.916788e-01
9.931903e-01
9.944823e-01
9.955761e-01
9.965314e-01
9.974514e-01
9.984159e-01
9.993178e-01
9.998858e-01
9.520499e-01
9.588264e-01
9.651003e-01
9.699309e-01
9.744292e-01
9.786110e-01
9.824852e-01
9.860427e-01
9.892842e-01
9.922035e-01
9.947657e-01
9.968912e-01
9.984724e-01
9.994480e-01
9.998918e-01
9.999977e-01
1 2 19 18
2 3 20 19
3 4 21 20
4 5 22 21
5 6 23 22
6 7 24 23
7 8 25 24
8 9 26 25
9 10 27 26
10 11 28 27
11 12 29 28
12 13 30 29
13 14 31 30
14 15 32 31
15 16 33 32
16 17 34 33
18 19 36 35
19 20 37 36
20 21 38 37
21 22 39 38
22 23 40 39
23 24 41 40
24 25 42 41
25 26 43 42
26 27 44 43
27 28 45 44
28 29 46 45
29 30 47 46
30 31 48 47
31 32 49 48
32 33 50 49
33 34 51 50
35 36 53 52
36 37 54 53
37 38 55 54
38 39 56 55
39 40 57 56
40 41 58 57
41 42 59 58
42 43 60 59
43 44 61 60
44 45 62 61
45 46 63 62
46 47 64 63
47 48 65 64
48 49 66 65
49 50 67 66
50 51 68 67
52 53 70 69
53 54 71 70
54 55 72 71
55 56 73 72
56 57 74 73
57 58 75 74
58 59 76 75
59 60 77 76
60 61 78 77
61 62 79 78
62 63 80 79
63 64 81 80
64 65 82 81
65 66 83 82
66 67 84 83
67 68 85 84
69 70 87 86
70 71 88 87
71 72 89 88
72 73 90 89
73 74 91 90
74 75 92 91
75 76 93 92
76 77 94 93
77 78 95 94
78 79 96 95
79 80 97 96
80 81 98 97
81 82 99 98
82 83 100 99
83 84 101 100
84 85 102 101
86 87 104 103
87 88 105 104
88 89 106 105
89 90 107 106
90 91 108 107
91 92 109 108
92 93 110 109
93 94 111 110
94 95 112 111
95 96 113 112
96 97 114 113
97 98 115 114
98 99 116 115
99 100 117 116
100 101 118 117
101 102 119 118
103 104 121 120
104 105 122 121
105 106 123 122
106 107 124 123
107 108 125 124
108 109 126 125
109 110 127 126
110 111 128 127
111 112 129 128
112 113 130 129
113 114 131 130
114 115 132 131
115 116 133 132
116 117 134 133
117 118 135 134
118 119 136 135
120 121 138 137
121 122 139 138
122 123 140 139
123 124 141 140
124 125 142 141
125 126 143 142
126 127 144 143
127 128 145 144
128 129 146 145
129 130 147 146
130 131 148 147
131 132 149 148
132 133 150 149
133 134 151 150
134 135 152 151
135 136 153 152
