TITLE = "Solution"
VARIABLES = x, y, u, v, psiu, psiv, t, stress
ZONE T="structure" N=153 E=128 F=FEBLOCK ET=QUADRILATERAL VARLOCATION=([7,8]=cellcentered)
0.000000e+00
1.250000e+01
2.500000e+01
3.750000e+01
5.000000e+01
6.250000e+01
7.500000e+01
8.750000e+01
1.000000e+02
1.125000e+02
1.250000e+02
1.375000e+02
1.500000e+02
1.625000e+02
1.750000e+02
1.875000e+02
2.000000e+02
0.000000e+00
1.250000e+01
2.500000e+01
3.750000e+01
5.000000e+01
6.250000e+01
7.500000e+01
8.750000e+01
1.000000e+02
1.125000e+02
1.250000e+02
1.375000e+02
1.500000e+02
1.625000e+02
1.750000e+02
1.875000e+02
2.000000e+02
0.000000e+00
1.250000e+01
2.500000e+01
3.750000e+01
5.000000e+01
6.250000e+01
7.500000e+01
8.750000e+01
1.000000e+02
1.125000e+02
1.250000e+02
1.375000e+02
1.500000e+02
1.625000e+02
1.750000e+02
1.875000e+02
2.000000e+02
0.000000e+00
1.250000e+01
2.500000e+01
3.750000e+01
5.000000e+01
6.250000e+01
7.500000e+01
8.750000e+01
1.000000e+02
1.125000e+02
1.250000e+02
1.375000e+02
1.500000e+02
1.625000e+02
1.750000e+02
1.875000e+02
2.000000e+02
0.000000e+00
1.250000e+01
2.500000e+01
3.750000e+01
5.000000e+01
6.250000e+01
7.500000e+01
8.750000e+01
1.000000e+02
1.125000e+02
1.250000e+02
1.375000e+02
1.500000e+02
1.625000e+02
1.750000e+02
1.875000e+02
2.000000e+02
0.000000e+00
1.250000e+01
2.500000e+01
3.750000e+01
5.000000e+01
6.250000e+01
7.500000e+01
8.750000e+01
1.000000e+02
1.125000e+02
1.250000e+02
1.375000e+02
1.500000e+02
1.625000e+02
1.750000e+02
1.875000e+02
2.000000e+02
0.000000e+00
1.250000e+01
2.500000e+01
3.750000e+01
5.000000e+01
6.250000e+01
7.500000e+01
8.750000e+01
1.000000e+02
1.125000e+02
1.250000e+02
1.375000e+02
1.500000e+02
1.625000e+02
1.750000e+02
1.875000e+02
2.000000e+02
0.000000e+00
1.250000e+01
2.500000e+01
3.750000e+01
5.000000e+01
6.250000e+01
7.500000e+01
8.750000e+01
1.000000e+02
1.125000e+02
1.250000e+02
1.375000e+02
1.500000e+02
1.625000e+02
1.750000e+02
1.875000e+02
2.000000e+02
0.000000e+00
1.250000e+01
2.500000e+01
3.750000e+01
5.000000e+01
6.250000e+01
7.500000e+01
8.750000e+01
1.000000e+02
1.125000e+02
1.250000e+02
1.375000e+02
1.500000e+02
1.625000e+02
1.750000e+02
1.875000e+02
2.000000e+02
0.000000e+00
0.000000e+00
0.000000e+00
0.000000e+00
0.000000e+00
0.000000e+00
0.000000e+00
0.000000e+00
0.000000e+00
0.000000e+00
0.000000e+00
0.000000e+00
0.000000e+00
0.000000e+00
0.000000e+00
0.000000e+00
0.000000e+00
1.250000e+01
1.250000e+01
1.250000e+01
1.250000e+01
1.250000e+01
1.250000e+01
1.250000e+01
1.250000e+01
1.250000e+01
1.250000e+01
1.250000e+01
1.250000e+01
1.250000e+01
1.250000e+01
1.250000e+01
1.250000e+01
1.250000e+01
2.500000e+01
2.500000e+01
2.500000e+01
2.500000e+01
2.500000e+01
2.500000e+01
2.500000e+01
2.500000e+01
2.500000e+01
2.500000e+01
2.500000e+01
2.500000e+01
2.500000e+01
2.500000e+01
2.500000e+01
2.500000e+01
2.500000e+01
3.750000e+01
3.750000e+01
3.750000e+01
3.750000e+01
3.750000e+01
3.750000e+01
3.750000e+01
3.750000e+01
3.750000e+01
3.750000e+01
3.750000e+01
3.750000e+01
3.750000e+01
3.750000e+01
3.750000e+01
3.750000e+01
3.750000e+01
5.000000e+01
5.000000e+01
5.000000e+01
5.000000e+01
5.000000e+01
5.000000e+01
5.000000e+01
5.000000e+01
5.000000e+01
5.000000e+01
5.000000e+01
5.000000e+01
5.000000e+01
5.000000e+01
5.000000e+01
5.000000e+01
5.000000e+01
6.250000e+01
6.250000e+01
6.250000e+01
6.250000e+01
6.250000e+01
6.250000e+01
6.250000e+01
6.250000e+01
6.250000e+01
6.250000e+01
6.250000e+01
6.250000e+01
6.250000e+01
6.250000e+01
6.250000e+01
6.250000e+01
6.250000e+01
7.500000e+01
7.500000e+01
7.500000e+01
7.500000e+01
7.500000e+01
7.500000e+01
7.500000e+01
7.500000e+01
7.500000e+01
7.500000e+01
7.500000e+01
7.500000e+01
7.500000e+01
7.500000e+01
7.500000e+01
7.500000e+01
7.500000e+01
8.750000e+01
8.750000e+01
8.750000e+01
8.750000e+01
8.750000e+01
8.750000e+01
8.750000e+01
8.750000e+01
8.750000e+01
8.750000e+01
8.750000e+01
8.750000e+01
8.750000e+01
8.750000e+01
8.750000e+01
8.750000e+01
8.750000e+01
1.000000e+02
1.000000e+02
1.000000e+02
1.000000e+02
1.000000e+02
1.000000e+02
1.000000e+02
1.000000e+02
1.000000e+02
1.000000e+02
1.000000e+02
1.000000e+02
1.000000e+02
1.000000e+02
1.000000e+02
1.000000e+02
1.000000e+02
0.000000e+00
-1.143073e-01
-2.104760e-01
-2.989638e-01
-3.813708e-01
-4.575233e-01
-5.272576e-01
-5.905197e-01
-6.474017e-01
-6.981654e-01
-7.433141e-01
-7.837303e-01
-8.209318e-01
-8.575413e-01
-8.980816e-01
-9.478701e-01
-9.852310e-01
0.000000e+00
-6.826225e-02
-1.418016e-01
-2.097105e-01
-2.722757e-01
-3.297349e-01
-3.822073e-01
-4.297632e-01
-4.724881e-01
-5.105138e-01
-5.440332e-01
-5.732879e-01
-5.984647e-01
-6.193042e-01
-6.340035e-01
-6.372253e-01
-6.487764e-01
0.000000e+00
-4.268923e-02
-8.777976e-02
-1.327643e-01
-1.747561e-01
-2.133105e-01
-2.483963e-01
-2.800529e-01
-3.082885e-01
-3.330556e-01
-3.542212e-01
-3.714894e-01
-3.842448e-01
-3.913651e-01
-3.915627e-01
-3.887183e-01
-4.004995e-01
0.000000e+00
-2.060445e-02
-4.241704e-02
-6.436743e-02
-8.535602e-02
-1.046879e-01
-1.222103e-01
-1.378723e-01
-1.515842e-01
-1.631675e-01
-1.723263e-01
-1.786281e-01
-1.815573e-01
-1.808730e-01
-1.780615e-01
-1.788303e-01
-1.876026e-01
0.000000e+00
-1.898115e-05
-4.315005e-05
-6.723958e-05
-8.002449e-05
-5.647297e-05
5.309999e-05
3.378481e-04
9.440398e-04
2.089550e-03
4.058629e-03
7.136827e-03
1.140130e-02
1.622038e-02
1.954924e-02
1.863624e-02
1.282821e-02
0.000000e+00
2.057525e-02
4.234924e-02
6.425898e-02
8.522112e-02
1.045781e-01
1.222528e-01
1.383317e-01
1.529541e-01
1.662896e-01
1.785126e-01
1.897134e-01
1.996975e-01
2.077036e-01
2.124132e-01
2.127868e-01
2.098388e-01
0.000000e+00
4.268444e-02
8.776516e-02
1.327353e-01
1.747107e-01
2.132540e-01
2.483494e-01
2.800682e-01
3.084761e-01
3.336236e-01
3.555326e-01
3.741496e-01
3.892604e-01
4.004324e-01
4.071380e-01
4.093153e-01
4.086279e-01
0.000000e+00
6.829026e-02
1.418625e-01
2.098076e-01
2.724059e-01
3.298743e-01
3.822855e-01
4.296202e-01
4.718061e-01
5.087215e-01
5.401912e-01
5.659976e-01
5.859343e-01
5.999354e-01
6.082873e-01
6.118489e-01
6.125030e-01
0.000000e+00
1.143542e-01
2.105996e-01
2.991952e-01
3.817405e-01
4.580432e-01
5.278778e-01
5.910413e-01
6.473223e-01
6.964284e-01
7.379337e-01
7.712849e-01
7.959342e-01
8.116877e-01
8.193063e-01
8.211868e-01
8.211506e-01
0.000000e+00
-6.919340e-02
-1.358348e-01
-2.221865e-01
-3.281655e-01
-4.535734e-01
-5.970368e-01
-7.569502e-01
-9.316132e-01
-1.119348e+00
-1.318605e+00
-1.528149e+00
-1.747477e+00
-1.977758e+00
-2.224968e+00
-2.507822e+00
-2.914232e+00
0.000000e+00
-4.259673e-02
-1.121146e-01
-1.995371e-01
-3.072481e-01
-4.343673e-01
-5.795688e-01
-7.412075e-01
-9.175634e-01
-1.106928e+00
-1.307709e+00
-1.518616e+00
-1.739066e+00
-1.970199e+00
-2.217312e+00
-2.498449e+00
-2.842871e+00
0.000000e+00
-3.214303e-02
-9.567062e-02
-1.834158e-01
-2.921451e-01
-4.205728e-01
-5.671088e-01
-7.300925e-01
-9.078153e-01
-1.098594e+00
-1.300865e+00
-1.513384e+00
-1.735622e+00
-1.968532e+00
-2.215858e+00
-2.482245e+00
-2.740051e+00
0.000000e+00
-2.769861e-02
-8.749476e-02
-1.739530e-01
-2.830753e-01
-4.122935e-01
-5.597432e-01
-7.237003e-01
-9.024888e-01
-1.094470e+00
-1.298117e+00
-1.512158e+00
-1.735815e+00
-1.968982e+00
-2.211360e+00
-2.456132e+00
-2.681623e+00
0.000000e+00
-2.641827e-02
-8.502036e-02
-1.709343e-01
-2.800863e-01
-4.096261e-01
-5.574997e-01
-7.219847e-01
-9.014368e-01
-1.094244e+00
-1.298845e+00
-1.513769e+00
-1.737625e+00
-1.968763e+00
-2.203723e+00
-2.434471e+00
-2.647046e+00
0.000000e+00
-2.768217e-02
-8.748306e-02
-1.739738e-01
-2.831776e-01
-4.125630e-01
-5.603195e-01
-7.247920e-01
-9.043709e-01
-1.097437e+00
-1.302326e+00
-1.517260e+00
-1.740157e+00
-1.968183e+00
-2.196956e+00
-2.419791e+00
-2.627829e+00
0.000000e+00
-3.211621e-02
-9.565123e-02
-1.834505e-01
-2.923174e-01
-4.210286e-01
-5.680860e-01
-7.319460e-01
-9.110153e-01
-1.103647e+00
-1.308064e+00
-1.522215e+00
-1.743519e+00
-1.968557e+00
-2.192895e+00
-2.411454e+00
-2.619353e+00
0.000000e+00
-4.257159e-02
-1.120977e-01
-1.995833e-01
-3.074550e-01
-4.349034e-01
-5.807063e-01
-7.433499e-01
-9.212393e-01
-1.112697e+00
-1.315875e+00
-1.528573e+00
-1.747991e+00
-1.970524e+00
-2.191878e+00
-2.408006e+00
-2.617364e+00
0.000000e+00
-6.918301e-02
-1.358362e-01
-2.222579e-01
-3.284053e-01
-4.541462e-01
-5.982008e-01
-7.590739e-01
-9.351538e-01
-1.124734e+00
-1.325921e+00
-1.536466e+00
-1.753551e+00
-1.973649e+00
-2.192742e+00
-2.407376e+00
-2.617395e+00


0.000000e+00
3.166173e-09
6.547397e-09
9.541286e-09
1.206839e-08
1.412035e-08
1.573505e-08
1.697289e-08
1.789802e-08
1.857213e-08
1.905182e-08
1.938804e-08
1.962739e-08
1.981313e-08
1.998598e-08
2.019952e-08
2.045601e-08
0.000000e+00
2.154156e-09
5.075231e-09
7.453823e-09
9.360255e-09
1.086577e-08
1.202720e-08
1.290230e-08
1.354453e-08
1.400151e-08
1.431457e-08
1.451793e-08
1.463744e-08
1.469621e-08
1.475582e-08
1.493043e-08
1.519453e-08
0.000000e+00
1.603662e-09
3.524658e-09
5.129181e-09
6.417687e-09
7.411956e-09
8.159952e-09
8.709420e-09
9.101056e-09
9.368515e-09
9.539394e-09
9.636289e-09
9.679390e-09
9.696071e-09
9.738105e-09
9.875106e-09
1.008896e-08
0.000000e+00
8.582150e-10
1.757725e-09
2.560301e-09
3.216526e-09
3.717923e-09
4.088013e-09
4.353574e-09
4.536800e-09
4.655383e-09
4.724127e-09
4.757053e-09
4.770425e-09
4.785123e-09
4.822155e-09
4.905410e-09
5.036994e-09
0.000000e+00
-9.361080e-13
-2.198450e-12
-3.952658e-12
-6.478180e-12
-1.015170e-11
-1.546316e-11
-2.297558e-11
-3.317380e-11
-4.608568e-11
-6.057520e-11
-7.330654e-11
-7.825889e-11
-6.951878e-11
-4.674357e-11
-6.616136e-12
6.194042e-11
0.000000e+00
-8.598221e-10
-1.761444e-09
-2.566966e-09
-3.227313e-09
-3.734525e-09
-4.112797e-09
-4.389715e-09
-4.588285e-09
-4.726644e-09
-4.818848e-09
-4.875493e-09
-4.904673e-09
-4.914336e-09
-4.913834e-09
-4.903918e-09
-4.874628e-09
0.000000e+00
-1.604488e-09
-3.526929e-09
-5.133388e-09
-6.424387e-09
-7.421757e-09
-8.173462e-09
-8.727261e-09
-9.123986e-09
-9.397841e-09
-9.577757e-09
-9.688600e-09
-9.751826e-09
-9.785697e-09
-9.803896e-09
-9.810119e-09
-9.801875e-09
0.000000e+00
-2.154446e-09
-5.076665e-09
-7.456368e-09
-9.363802e-09
-1.086994e-08
-1.203108e-08
-1.290422e-08
-1.354209e-08
-1.399202e-08
-1.429622e-08
-1.449200e-08
-1.461149e-08
-1.468088e-08
-1.471911e-08
-1.473651e-08
-1.473894e-08
0.000000e+00
-3.167558e-09
-6.549663e-09
-9.543812e-09
-1.207042e-08
-1.412055e-08
-1.573129e-08
-1.696204e-08
-1.787594e-08
-1.853368e-08
-1.899077e-08
-1.929610e-08
-1.949072e-08
-1.960702e-08
-1.966840e-08
-1.969190e-08
-1.969596e-08
0.000000e+00
2.877183e-09
5.170059e-09
7.575412e-09
1.046237e-08
1.386020e-08
1.769994e-08
2.189177e-08
2.634956e-08
3.100226e-08
3.579537e-08
4.069154e-08
4.567561e-08
5.078011e-08
5.614211e-08
6.183238e-08
6.759558e-08
0.000000e+00
1.547060e-09
3.787917e-09
6.355953e-09
9.462505e-09
1.307177e-08
1.709722e-08
2.144281e-08
2.602452e-08
3.077432e-08
3.564121e-08
4.059117e-08
4.561016e-08
5.071354e-08
5.596693e-08
6.149898e-08
6.716896e-08
0.000000e+00
7.632152e-10
2.703272e-09
5.403537e-09
8.689839e-09
1.247323e-08
1.664640e-08
2.111222e-08
2.578972e-08
3.061464e-08
3.553916e-08
4.053163e-08
4.557536e-08
5.066131e-08
5.579562e-08
6.114488e-08
6.666294e-08
0.000000e+00
4.348396e-10
2.191646e-09
4.904418e-09
8.284329e-09
1.216350e-08
1.641702e-08
2.094693e-08
2.567514e-08
3.054001e-08
3.549526e-08
4.050854e-08
4.555745e-08
5.061958e-08
5.568932e-08
6.089327e-08
6.622020e-08
0.000000e+00
3.515341e-10
2.052212e-09
4.753311e-09
8.159643e-09
1.206918e-08
1.634849e-08
2.089915e-08
2.564417e-08
3.052271e-08
3.548811e-08
4.050591e-08
4.554991e-08
5.059703e-08
5.563938e-08
6.074952e-08
6.590514e-08
0.000000e+00
4.354267e-10
2.192460e-09
4.905519e-09
8.285889e-09
1.216599e-08
1.642124e-08
2.095405e-08
2.568638e-08
3.055596e-08
3.551438e-08
4.052482e-08
4.555932e-08
5.059655e-08
5.562803e-08
6.068016e-08
6.572381e-08
0.000000e+00
7.641432e-10
2.704741e-09
5.405711e-09
8.693053e-09
1.247839e-08
1.665502e-08
2.112642e-08
2.581178e-08
3.064587e-08
3.557745e-08
4.056720e-08
4.558544e-08
5.061075e-08
5.563166e-08
6.064948e-08
6.563913e-08
0.000000e+00
1.548360e-09
3.790350e-09
6.359557e-09
9.467715e-09
1.307963e-08
1.710942e-08
2.146167e-08
2.605250e-08
3.081293e-08
3.568846e-08
4.063681e-08
4.562583e-08
5.063197e-08
5.563948e-08
6.063780e-08
6.561087e-08
0.000000e+00
2.879260e-09
5.173631e-09
7.580425e-09
1.046920e-08
1.386965e-08
1.771333e-08
2.191083e-08
2.637614e-08
3.103728e-08
3.583657e-08
4.072867e-08
4.567840e-08
5.065898e-08
5.565054e-08
6.063700e-08
6.560654e-08


3.339954e-01
3.339954e-01
3.339960e-01
3.339970e-01
3.339980e-01
3.339988e-01
3.339994e-01
3.339999e-01
3.340002e-01
3.340004e-01
3.340006e-01
3.340007e-01
3.340007e-01
3.340006e-01
3.340005e-01
3.340003e-01
3.339965e-01
3.339965e-01
3.339969e-01
3.339978e-01
3.339986e-01
3.339992e-01
3.339997e-01
3.340001e-01
3.340003e-01
3.340005e-01
3.340006e-01
3.340007e-01
3.340007e-01
3.340006e-01
3.340005e-01
3.340003e-01
3.339984e-01
3.339983e-01
3.339986e-01
3.339990e-01
3.339995e-01
3.339999e-01
3.340002e-01
3.340004e-01
3.340005e-01
3.340006e-01
3.340007e-01
3.340007e-01
3.340007e-01
3.340007e-01
3.340005e-01
3.340004e-01
3.339997e-01
3.339996e-01
3.339997e-01
3.339999e-01
3.340001e-01
3.340003e-01
3.340005e-01
3.340006e-01
3.340006e-01
3.340007e-01
3.340007e-01
3.340007e-01
3.340007e-01
3.340007e-01
3.340006e-01
3.340006e-01
3.339997e-01
3.339996e-01
3.339997e-01
3.339999e-01
3.340001e-01
3.340003e-01
3.340005e-01
3.340006e-01
3.340006e-01
3.340007e-01
3.340007e-01
3.340007e-01
3.340007e-01
3.340007e-01
3.340007e-01
3.340007e-01
3.339984e-01
3.339983e-01
3.339986e-01
3.339990e-01
3.339995e-01
3.339999e-01
3.340001e-01
3.340004e-01
3.340005e-01
3.340006e-01
3.340007e-01
3.340007e-01
3.340008e-01
3.340008e-01
3.340008e-01
3.340008e-01
3.339965e-01
3.339965e-01
3.339969e-01
3.339978e-01
3.339986e-01
3.339992e-01
3.339997e-01
3.340000e-01
3.340003e-01
3.340005e-01
3.340006e-01
3.340007e-01
3.340008e-01
3.340008e-01
3.340008e-01
3.340008e-01
3.339954e-01
3.339954e-01
3.339960e-01
3.339970e-01
3.339980e-01
3.339988e-01
3.339994e-01
3.339999e-01
3.340002e-01
3.340004e-01
3.340006e-01
3.340007e-01
3.340008e-01
3.340008e-01
3.340008e-01
3.340008e-01


9.706033e-01
9.747720e-01
9.786283e-01
9.815968e-01
9.843522e-01
9.868930e-01
9.892078e-01
9.912696e-01
9.930565e-01
9.945511e-01
9.957395e-01
9.966101e-01
9.971513e-01
9.973443e-01
9.974837e-01
9.888924e-01
9.888787e-01
9.869684e-01
9.881974e-01
9.898015e-01
9.912970e-01
9.926563e-01
9.938867e-01
9.950012e-01
9.960104e-01
9.969244e-01
9.977538e-01
9.985048e-01
9.991600e-01
9.995891e-01
9.985041e-01
9.837976e-01
9.961358e-01
9.950386e-01
9.947424e-01
9.951591e-01
9.957072e-01
9.962381e-01
9.967309e-01
9.971967e-01
9.976479e-01
9.980878e-01
9.984986e-01
9.988166e-01
9.988830e-01
9.983102e-01
9.962323e-01
9.924949e-01
9.992136e-01
9.984133e-01
9.979190e-01
9.977936e-01
9.978436e-01
9.979277e-01
9.980116e-01
9.980936e-01
9.981740e-01
9.982414e-01
9.982602e-01
9.981600e-01
9.978423e-01
9.972720e-01
9.967884e-01
9.966660e-01
9.992165e-01
9.984175e-01
9.979227e-01
9.977928e-01
9.978312e-01
9.978918e-01
9.979338e-01
9.979480e-01
9.979287e-01
9.978668e-01
9.977514e-01
9.975851e-01
9.974268e-01
9.974583e-01
9.979058e-01
9.986805e-01
9.961414e-01
9.950470e-01
9.947504e-01
9.951591e-01
9.956859e-01
9.961723e-01
9.965839e-01
9.969148e-01
9.971626e-01
9.973294e-01
9.974349e-01
9.975381e-01
9.977547e-01
9.982090e-01
9.988913e-01
9.995968e-01
9.888776e-01
9.869676e-01
9.881957e-01
9.897969e-01
9.912853e-01
9.926295e-01
9.938313e-01
9.948955e-01
9.958227e-01
9.966153e-01
9.972863e-01
9.978723e-01
9.984366e-01
9.990282e-01
9.995815e-01
9.999300e-01
9.705833e-01
9.747406e-01
9.785898e-01
9.815536e-01
9.843134e-01
9.868789e-01
9.892557e-01
9.914381e-01
9.934266e-01
9.952174e-01
9.967891e-01
9.980930e-01
9.990630e-01
9.996614e-01
9.999336e-01
9.999986e-01
1 2 19 18
2 3 20 19
3 4 21 20
4 5 22 21
5 6 23 22
6 7 24 23
7 8 25 24
8 9 26 25
9 10 27 26
10 11 28 27
11 12 29 28
12 13 30 29
13 14 31 30
14 15 32 31
15 16 33 32
16 17 34 33
18 19 36 35
19 20 37 36
20 21 38 37
21 22 39 38
22 23 40 39
23 24 41 40
24 25 42 41
25 26 43 42
26 27 44 43
27 28 45 44
28 29 46 45
29 30 47 46
30 31 48 47
31 32 49 48
32 33 50 49
33 34 51 50
35 36 53 52
36 37 54 53
37 38 55 54
38 39 56 55
39 40 57 56
40 41 58 57
41 42 59 58
42 43 60 59
43 44 61 60
44 45 62 61
45 46 63 62
46 47 64 63
47 48 65 64
48 49 66 65
49 50 67 66
50 51 68 67
52 53 70 69
53 54 71 70
54 55 72 71
55 56 73 72
56 57 74 73
57 58 75 74
58 59 76 75
59 60 77 76
60 61 78 77
61 62 79 78
62 63 80 79
63 64 81 80
64 65 82 81
65 66 83 82
66 67 84 83
67 68 85 84
69 70 87 86
70 71 88 87
71 72 89 88
72 73 90 89
73 74 91 90
74 75 92 91
75 76 93 92
76 77 94 93
77 78 95 94
78 79 96 95
79 80 97 96
80 81 98 97
81 82 99 98
82 83 100 99
83 84 101 100
84 85 102 101
86 87 104 103
87 88 105 104
88 89 106 105
89 90 107 106
90 91 108 107
91 92 109 108
92 93 110 109
93 94 111 110
94 95 112 111
95 96 113 112
96 97 114 113
97 98 115 114
98 99 116 115
99 100 117 116
100 101 118 117
101 102 119 118
103 104 121 120
104 105 122 121
105 106 123 122
106 107 124 123
107 108 125 124
108 109 126 125
109 110 127 126
110 111 128 127
111 112 129 128
112 113 130 129
113 114 131 130
114 115 132 131
115 116 133 132
116 117 134 133
117 118 135 134
118 119 136 135
120 121 138 137
121 122 139 138
122 123 140 139
123 124 141 140
124 125 142 141
125 126 143 142
126 127 144 143
127 128 145 144
128 129 146 145
129 130 147 146
130 131 148 147
131 132 149 148
132 133 150 149
133 134 151 150
134 135 152 151
135 136 153 152
