TITLE = "Solution"
VARIABLES = x, y, u, v, psiu, psiv, t, stress
ZONE T="structure" N=153 E=128 F=FEBLOCK ET=QUADRILATERAL VARLOCATION=([7,8]=cellcentered)
0.000000e+00
1.250000e+01
2.500000e+01
3.750000e+01
5.000000e+01
6.250000e+01
7.500000e+01
8.750000e+01
1.000000e+02
1.125000e+02
1.250000e+02
1.375000e+02
1.500000e+02
1.625000e+02
1.750000e+02
1.875000e+02
2.000000e+02
0.000000e+00
1.250000e+01
2.500000e+01
3.750000e+01
5.000000e+01
6.250000e+01
7.500000e+01
8.750000e+01
1.000000e+02
1.125000e+02
1.250000e+02
1.375000e+02
1.500000e+02
1.625000e+02
1.750000e+02
1.875000e+02
2.000000e+02
0.000000e+00
1.250000e+01
2.500000e+01
3.750000e+01
5.000000e+01
6.250000e+01
7.500000e+01
8.750000e+01
1.000000e+02
1.125000e+02
1.250000e+02
1.375000e+02
1.500000e+02
1.625000e+02
1.750000e+02
1.875000e+02
2.000000e+02
0.000000e+00
1.250000e+01
2.500000e+01
3.750000e+01
5.000000e+01
6.250000e+01
7.500000e+01
8.750000e+01
1.000000e+02
1.125000e+02
1.250000e+02
1.375000e+02
1.500000e+02
1.625000e+02
1.750000e+02
1.875000e+02
2.000000e+02
0.000000e+00
1.250000e+01
2.500000e+01
3.750000e+01
5.000000e+01
6.250000e+01
7.500000e+01
8.750000e+01
1.000000e+02
1.125000e+02
1.250000e+02
1.375000e+02
1.500000e+02
1.625000e+02
1.750000e+02
1.875000e+02
2.000000e+02
0.000000e+00
1.250000e+01
2.500000e+01
3.750000e+01
5.000000e+01
6.250000e+01
7.500000e+01
8.750000e+01
1.000000e+02
1.125000e+02
1.250000e+02
1.375000e+02
1.500000e+02
1.625000e+02
1.750000e+02
1.875000e+02
2.000000e+02
0.000000e+00
1.250000e+01
2.500000e+01
3.750000e+01
5.000000e+01
6.250000e+01
7.500000e+01
8.750000e+01
1.000000e+02
1.125000e+02
1.250000e+02
1.375000e+02
1.500000e+02
1.625000e+02
1.750000e+02
1.875000e+02
2.000000e+02
0.000000e+00
1.250000e+01
2.500000e+01
3.750000e+01
5.000000e+01
6.250000e+01
7.500000e+01
8.750000e+01
1.000000e+02
1.125000e+02
1.250000e+02
1.375000e+02
1.500000e+02
1.625000e+02
1.750000e+02
1.875000e+02
2.000000e+02
0.000000e+00
1.250000e+01
2.500000e+01
3.750000e+01
5.000000e+01
6.250000e+01
7.500000e+01
8.750000e+01
1.000000e+02
1.125000e+02
1.250000e+02
1.375000e+02
1.500000e+02
1.625000e+02
1.750000e+02
1.875000e+02
2.000000e+02
0.000000e+00
0.000000e+00
0.000000e+00
0.000000e+00
0.000000e+00
0.000000e+00
0.000000e+00
0.000000e+00
0.000000e+00
0.000000e+00
0.000000e+00
0.000000e+00
0.000000e+00
0.000000e+00
0.000000e+00
0.000000e+00
0.000000e+00
1.250000e+01
1.250000e+01
1.250000e+01
1.250000e+01
1.250000e+01
1.250000e+01
1.250000e+01
1.250000e+01
1.250000e+01
1.250000e+01
1.250000e+01
1.250000e+01
1.250000e+01
1.250000e+01
1.250000e+01
1.250000e+01
1.250000e+01
2.500000e+01
2.500000e+01
2.500000e+01
2.500000e+01
2.500000e+01
2.500000e+01
2.500000e+01
2.500000e+01
2.500000e+01
2.500000e+01
2.500000e+01
2.500000e+01
2.500000e+01
2.500000e+01
2.500000e+01
2.500000e+01
2.500000e+01
3.750000e+01
3.750000e+01
3.750000e+01
3.750000e+01
3.750000e+01
3.750000e+01
3.750000e+01
3.750000e+01
3.750000e+01
3.750000e+01
3.750000e+01
3.750000e+01
3.750000e+01
3.750000e+01
3.750000e+01
3.750000e+01
3.750000e+01
5.000000e+01
5.000000e+01
5.000000e+01
5.000000e+01
5.000000e+01
5.000000e+01
5.000000e+01
5.000000e+01
5.000000e+01
5.000000e+01
5.000000e+01
5.000000e+01
5.000000e+01
5.000000e+01
5.000000e+01
5.000000e+01
5.000000e+01
6.250000e+01
6.250000e+01
6.250000e+01
6.250000e+01
6.250000e+01
6.250000e+01
6.250000e+01
6.250000e+01
6.250000e+01
6.250000e+01
6.250000e+01
6.250000e+01
6.250000e+01
6.250000e+01
6.250000e+01
6.250000e+01
6.250000e+01
7.500000e+01
7.500000e+01
7.500000e+01
7.500000e+01
7.500000e+01
7.500000e+01
7.500000e+01
7.500000e+01
7.500000e+01
7.500000e+01
7.500000e+01
7.500000e+01
7.500000e+01
7.500000e+01
7.500000e+01
7.500000e+01
7.500000e+01
8.750000e+01
8.750000e+01
8.750000e+01
8.750000e+01
8.750000e+01
8.750000e+01
8.750000e+01
8.750000e+01
8.750000e+01
8.750000e+01
8.750000e+01
8.750000e+01
8.750000e+01
8.750000e+01
8.750000e+01
8.750000e+01
8.750000e+01
1.000000e+02
1.000000e+02
1.000000e+02
1.000000e+02
1.000000e+02
1.000000e+02
1.000000e+02
1.000000e+02
1.000000e+02
1.000000e+02
1.000000e+02
1.000000e+02
1.000000e+02
1.000000e+02
1.000000e+02
1.000000e+02
1.000000e+02
0.000000e+00
-8.619269e-02
-1.587081e-01
-2.254316e-01
-2.875699e-01
-3.449918e-01
-3.975741e-01
-4.452761e-01
-4.881671e-01
-5.264447e-01
-5.604885e-01
-5.909636e-01
-6.190149e-01
-6.466197e-01
-6.771885e-01
-7.147308e-01
-7.429022e-01
0.000000e+00
-5.147275e-02
-1.069246e-01
-1.581309e-01
-2.053076e-01
-2.486341e-01
-2.882003e-01
-3.240591e-01
-3.562753e-01
-3.849480e-01
-4.102228e-01
-4.322819e-01
-4.512660e-01
-4.669797e-01
-4.780635e-01
-4.804928e-01
-4.892027e-01
0.000000e+00
-3.218959e-02
-6.618985e-02
-1.001101e-01
-1.317737e-01
-1.608452e-01
-1.873012e-01
-2.111715e-01
-2.324621e-01
-2.511374e-01
-2.670970e-01
-2.801178e-01
-2.897358e-01
-2.951047e-01
-2.952538e-01
-2.931090e-01
-3.019924e-01
0.000000e+00
-1.553669e-02
-3.198435e-02
-4.853589e-02
-6.436214e-02
-7.893911e-02
-9.215169e-02
-1.039614e-01
-1.143007e-01
-1.230349e-01
-1.299409e-01
-1.346928e-01
-1.369015e-01
-1.363855e-01
-1.342655e-01
-1.348452e-01
-1.414598e-01
0.000000e+00
-1.431221e-05
-3.253615e-05
-5.070025e-05
-6.034026e-05
-4.258132e-05
4.004077e-05
2.547509e-04
7.118406e-04
1.575595e-03
3.060348e-03
5.381416e-03
8.596977e-03
1.223072e-02
1.474080e-02
1.405237e-02
9.672907e-03
0.000000e+00
1.551467e-02
3.193323e-02
4.845411e-02
6.426043e-02
7.885637e-02
9.218378e-02
1.043078e-01
1.153336e-01
1.253891e-01
1.346057e-01
1.430514e-01
1.505798e-01
1.566167e-01
1.601679e-01
1.604495e-01
1.582267e-01
0.000000e+00
3.218598e-02
6.617883e-02
1.000882e-01
1.317394e-01
1.608026e-01
1.872659e-01
2.111830e-01
2.326036e-01
2.515657e-01
2.680859e-01
2.821237e-01
2.935178e-01
3.019418e-01
3.069981e-01
3.086399e-01
3.081215e-01
0.000000e+00
5.149386e-02
1.069705e-01
1.582041e-01
2.054058e-01
2.487392e-01
2.882592e-01
3.239513e-01
3.557610e-01
3.835965e-01
4.073258e-01
4.267847e-01
4.418177e-01
4.523749e-01
4.586726e-01
4.613581e-01
4.618514e-01
0.000000e+00
8.622800e-02
1.588012e-01
2.256061e-01
2.878486e-01
3.453838e-01
3.980418e-01
4.456693e-01
4.881073e-01
5.251350e-01
5.564314e-01
5.815794e-01
6.001658e-01
6.120445e-01
6.177892e-01
6.192072e-01
6.191798e-01
0.000000e+00
-5.217481e-02
-1.024252e-01
-1.675380e-01
-2.474505e-01
-3.420132e-01
-4.501905e-01
-5.707717e-01
-7.024746e-01
-8.440340e-01
-9.942813e-01
-1.152286e+00
-1.317668e+00
-1.491309e+00
-1.677715e+00
-1.890997e+00
-2.197445e+00
0.000000e+00
-3.211977e-02
-8.453918e-02
-1.504594e-01
-2.316780e-01
-3.275311e-01
-4.370190e-01
-5.589011e-01
-6.918805e-01
-8.346691e-01
-9.860660e-01
-1.145098e+00
-1.311326e+00
-1.485609e+00
-1.671942e+00
-1.883930e+00
-2.143637e+00
0.000000e+00
-2.423721e-02
-7.213969e-02
-1.383032e-01
-2.202897e-01
-3.171295e-01
-4.276237e-01
-5.505199e-01
-6.845301e-01
-8.283844e-01
-9.809051e-01
-1.141153e+00
-1.308729e+00
-1.484352e+00
-1.670845e+00
-1.871711e+00
-2.066107e+00
0.000000e+00
-2.088590e-02
-6.597473e-02
-1.311679e-01
-2.134507e-01
-3.108866e-01
-4.220697e-01
-5.457000e-01
-6.805137e-01
-8.252754e-01
-9.788328e-01
-1.140228e+00
-1.308874e+00
-1.484691e+00
-1.667454e+00
-1.852021e+00
-2.022051e+00
0.000000e+00
-1.992045e-02
-6.410892e-02
-1.288917e-01
-2.111969e-01
-3.088753e-01
-4.203780e-01
-5.444064e-01
-6.797204e-01
-8.251051e-01
-9.793822e-01
-1.141443e+00
-1.310239e+00
-1.484526e+00
-1.661695e+00
-1.835688e+00
-1.995978e+00
0.000000e+00
-2.087350e-02
-6.596591e-02
-1.311836e-01
-2.135279e-01
-3.110898e-01
-4.225043e-01
-5.465232e-01
-6.819329e-01
-8.275122e-01
-9.820070e-01
-1.144075e+00
-1.312149e+00
-1.484089e+00
-1.656593e+00
-1.824619e+00
-1.981488e+00
0.000000e+00
-2.421699e-02
-7.212507e-02
-1.383294e-01
-2.204196e-01
-3.174732e-01
-4.283605e-01
-5.519176e-01
-6.869430e-01
-8.321947e-01
-9.863338e-01
-1.147812e+00
-1.314684e+00
-1.484371e+00
-1.653531e+00
-1.818332e+00
-1.975097e+00
0.000000e+00
-3.210081e-02
-8.452645e-02
-1.504942e-01
-2.318340e-01
-3.279354e-01
-4.378767e-01
-5.605165e-01
-6.946523e-01
-8.390191e-01
-9.922232e-01
-1.152606e+00
-1.318056e+00
-1.485854e+00
-1.652764e+00
-1.815733e+00
-1.973597e+00
0.000000e+00
-5.216697e-02
-1.024263e-01
-1.675919e-01
-2.476314e-01
-3.424452e-01
-4.510682e-01
-5.723730e-01
-7.051443e-01
-8.480951e-01
-9.997981e-01
-1.158558e+00
-1.322248e+00
-1.488211e+00
-1.653415e+00
-1.815257e+00
-1.973620e+00


0.000000e+00
1.172720e-09
2.425143e-09
3.534879e-09
4.472563e-09
5.234764e-09
5.835169e-09
6.295886e-09
6.640521e-09
6.891845e-09
7.070810e-09
7.196326e-09
7.285717e-09
7.355092e-09
7.419620e-09
7.499277e-09
7.594912e-09
0.000000e+00
7.972897e-10
1.879087e-09
2.760872e-09
3.468475e-09
4.027944e-09
4.460026e-09
4.785913e-09
5.025292e-09
5.195759e-09
5.312617e-09
5.388573e-09
5.433236e-09
5.455228e-09
5.477518e-09
5.542664e-09
5.641138e-09
0.000000e+00
5.935525e-10
1.305168e-09
1.900079e-09
2.378334e-09
2.747820e-09
3.026108e-09
3.230752e-09
3.376752e-09
3.476544e-09
3.540350e-09
3.576558e-09
3.592685e-09
3.598943e-09
3.614651e-09
3.665761e-09
3.745514e-09
0.000000e+00
3.178165e-10
6.512081e-10
9.487728e-10
1.192280e-09
1.378527e-09
1.516152e-09
1.615011e-09
1.683287e-09
1.727512e-09
1.753172e-09
1.765473e-09
1.770474e-09
1.775963e-09
1.789784e-09
1.820851e-09
1.869942e-09
0.000000e+00
-3.450761e-13
-8.120433e-13
-1.462828e-12
-2.401988e-12
-3.770076e-12
-5.750500e-12
-8.553454e-12
-1.236049e-11
-1.718254e-11
-2.259592e-11
-2.735602e-11
-2.921524e-11
-2.596507e-11
-1.747048e-11
-2.488328e-12
2.310511e-11
0.000000e+00
-3.184079e-10
-6.525789e-10
-9.512351e-10
-1.196272e-09
-1.384684e-09
-1.525358e-09
-1.628454e-09
-1.702457e-09
-1.754069e-09
-1.788495e-09
-1.809662e-09
-1.820580e-09
-1.824207e-09
-1.824028e-09
-1.820322e-09
-1.809381e-09
0.000000e+00
-5.938531e-10
-1.305998e-09
-1.901620e-09
-2.380797e-09
-2.751432e-09
-3.031099e-09
-3.237358e-09
-3.385260e-09
-3.487446e-09
-3.554632e-09
-3.596055e-09
-3.619698e-09
-3.632368e-09
-3.639172e-09
-3.641495e-09
-3.638415e-09
0.000000e+00
-7.973922e-10
-1.879604e-09
-2.761791e-09
-3.469758e-09
-4.029453e-09
-4.461419e-09
-4.786575e-09
-5.024330e-09
-5.192172e-09
-5.305730e-09
-5.378856e-09
-5.423506e-09
-5.449439e-09
-5.463721e-09
-5.470222e-09
-5.471130e-09
0.000000e+00
-1.173229e-09
-2.425970e-09
-3.535793e-09
-4.473285e-09
-5.234795e-09
-5.833717e-09
-6.291791e-09
-6.632234e-09
-6.877451e-09
-7.047983e-09
-7.161960e-09
-7.234639e-09
-7.278078e-09
-7.301009e-09
-7.309785e-09
-7.311303e-09
0.000000e+00
1.065754e-09
1.915985e-09
2.808326e-09
3.879317e-09
5.139812e-09
6.564333e-09
8.119664e-09
9.773899e-09
1.150068e-08
1.327977e-08
1.509729e-08
1.694760e-08
1.884287e-08
2.083419e-08
2.294786e-08
2.508868e-08
0.000000e+00
5.733523e-10
1.404009e-09
2.356158e-09
3.508143e-09
4.846790e-09
6.340092e-09
7.952469e-09
9.652745e-09
1.141566e-08
1.322223e-08
1.505980e-08
1.692314e-08
1.881800e-08
2.076883e-08
2.282355e-08
2.492962e-08
0.000000e+00
2.830890e-10
1.002068e-09
2.002860e-09
3.221209e-09
4.624269e-09
6.172311e-09
7.829310e-09
9.565198e-09
1.135607e-08
1.318412e-08
1.503755e-08
1.691013e-08
1.879848e-08
2.070491e-08
2.269150e-08
2.474094e-08
0.000000e+00
1.612910e-10
8.122921e-10
1.817633e-09
3.070596e-09
4.509115e-09
6.086941e-09
7.767735e-09
9.522472e-09
1.132822e-08
1.316772e-08
1.502891e-08
1.690343e-08
1.878290e-08
2.066524e-08
2.259762e-08
2.457580e-08
0.000000e+00
1.303454e-10
7.605384e-10
1.761562e-09
3.024302e-09
4.474067e-09
6.061452e-09
7.749943e-09
9.510931e-09
1.132177e-08
1.316506e-08
1.502793e-08
1.690062e-08
1.877448e-08
2.064658e-08
2.254395e-08
2.445823e-08
0.000000e+00
1.615103e-10
8.125969e-10
1.818046e-09
3.071181e-09
4.510044e-09
6.088516e-09
7.770391e-09
9.526667e-09
1.133417e-08
1.317486e-08
1.503500e-08
1.690414e-08
1.877431e-08
2.064233e-08
2.251803e-08
2.439054e-08
0.000000e+00
2.834347e-10
1.002617e-09
2.003672e-09
3.222411e-09
4.626196e-09
6.175526e-09
7.834606e-09
9.573429e-09
1.136772e-08
1.319842e-08
1.505084e-08
1.691391e-08
1.877962e-08
2.064367e-08
2.250656e-08
2.435892e-08
0.000000e+00
5.738347e-10
1.404914e-09
2.357499e-09
3.510084e-09
4.849723e-09
6.344643e-09
7.959501e-09
9.663185e-09
1.143007e-08
1.323987e-08
1.507685e-08
1.692900e-08
1.878755e-08
2.064660e-08
2.250220e-08
2.434837e-08
0.000000e+00
1.066520e-09
1.917306e-09
2.810185e-09
3.881857e-09
5.143330e-09
6.569324e-09
8.126777e-09
9.783821e-09
1.151376e-08
1.329516e-08
1.511116e-08
1.694865e-08
1.879764e-08
2.065073e-08
2.250190e-08
2.434675e-08


2.518476e-01
2.518476e-01
2.518477e-01
2.518478e-01
2.518478e-01
2.518479e-01
2.518479e-01
2.518480e-01
2.518480e-01
2.518480e-01
2.518480e-01
2.518480e-01
2.518480e-01
2.518480e-01
2.518480e-01
2.518480e-01
2.518477e-01
2.518477e-01
2.518477e-01
2.518478e-01
2.518479e-01
2.518479e-01
2.518480e-01
2.518480e-01
2.518480e-01
2.518480e-01
2.518480e-01
2.518480e-01
2.518481e-01
2.518480e-01
2.518480e-01
2.518480e-01
2.518479e-01
2.518479e-01
2.518479e-01
2.518479e-01
2.518480e-01
2.518480e-01
2.518480e-01
2.518480e-01
2.518480e-01
2.518480e-01
2.518480e-01
2.518481e-01
2.518481e-01
2.518480e-01
2.518480e-01
2.518480e-01
2.518480e-01
2.518480e-01
2.518480e-01
2.518480e-01
2.518480e-01
2.518480e-01
2.518480e-01
2.518480e-01
2.518480e-01
2.518480e-01
2.518481e-01
2.518481e-01
2.518481e-01
2.518480e-01
2.518480e-01
2.518480e-01
2.518480e-01
2.518480e-01
2.518480e-01
2.518480e-01
2.518480e-01
2.518480e-01
2.518480e-01
2.518480e-01
2.518480e-01
2.518480e-01
2.518481e-01
2.518481e-01
2.518481e-01
2.518481e-01
2.518481e-01
2.518480e-01
2.518479e-01
2.518479e-01
2.518479e-01
2.518479e-01
2.518480e-01
2.518480e-01
2.518480e-01
2.518480e-01
2.518480e-01
2.518480e-01
2.518480e-01
2.518481e-01
2.518481e-01
2.518481e-01
2.518481e-01
2.518481e-01
2.518477e-01
2.518477e-01
2.518477e-01
2.518478e-01
2.518479e-01
2.518479e-01
2.518480e-01
2.518480e-01
2.518480e-01
2.518480e-01
2.518480e-01
2.518480e-01
2.518481e-01
2.518481e-01
2.518481e-01
2.518481e-01
2.518476e-01
2.518476e-01
2.518477e-01
2.518478e-01
2.518478e-01
2.518479e-01
2.518479e-01
2.518480e-01
2.518480e-01
2.518480e-01
2.518480e-01
2.518480e-01
2.518481e-01
2.518481e-01
2.518481e-01
2.518481e-01


9.832856e-01
9.856558e-01
9.878484e-01
9.895363e-01
9.911031e-01
9.925477e-01
9.938639e-01
9.950361e-01
9.960522e-01
9.969019e-01
9.975776e-01
9.980726e-01
9.983803e-01
9.984901e-01
9.985693e-01
9.936846e-01
9.936766e-01
9.925904e-01
9.932893e-01
9.942013e-01
9.950517e-01
9.958245e-01
9.965242e-01
9.971579e-01
9.977316e-01
9.982513e-01
9.987229e-01
9.991499e-01
9.995224e-01
9.997664e-01
9.991495e-01
9.907878e-01
9.978029e-01
9.971791e-01
9.970106e-01
9.972476e-01
9.975592e-01
9.978611e-01
9.981413e-01
9.984061e-01
9.986626e-01
9.989128e-01
9.991463e-01
9.993272e-01
9.993649e-01
9.990393e-01
9.978578e-01
9.957328e-01
9.995529e-01
9.990979e-01
9.988168e-01
9.987455e-01
9.987740e-01
9.988217e-01
9.988694e-01
9.989161e-01
9.989618e-01
9.990001e-01
9.990108e-01
9.989538e-01
9.987732e-01
9.984489e-01
9.981740e-01
9.981044e-01
9.995545e-01
9.991002e-01
9.988189e-01
9.987451e-01
9.987669e-01
9.988013e-01
9.988252e-01
9.988333e-01
9.988223e-01
9.987871e-01
9.987215e-01
9.986270e-01
9.985370e-01
9.985549e-01
9.988093e-01
9.992498e-01
9.978060e-01
9.971838e-01
9.970152e-01
9.972476e-01
9.975471e-01
9.978237e-01
9.980577e-01
9.982458e-01
9.983867e-01
9.984816e-01
9.985416e-01
9.986002e-01
9.987234e-01
9.989817e-01
9.993696e-01
9.997707e-01
9.936760e-01
9.925900e-01
9.932883e-01
9.941987e-01
9.950450e-01
9.958093e-01
9.964927e-01
9.970977e-01
9.976249e-01
9.980756e-01
9.984571e-01
9.987902e-01
9.991111e-01
9.994475e-01
9.997621e-01
9.999602e-01
9.832742e-01
9.856380e-01
9.878266e-01
9.895118e-01
9.910810e-01
9.925397e-01
9.938911e-01
9.951319e-01
9.962626e-01
9.972807e-01
9.981744e-01
9.989157e-01
9.994672e-01
9.998075e-01
9.999623e-01
9.999992e-01
1 2 19 18
2 3 20 19
3 4 21 20
4 5 22 21
5 6 23 22
6 7 24 23
7 8 25 24
8 9 26 25
9 10 27 26
10 11 28 27
11 12 29 28
12 13 30 29
13 14 31 30
14 15 32 31
15 16 33 32
16 17 34 33
18 19 36 35
19 20 37 36
20 21 38 37
21 22 39 38
22 23 40 39
23 24 41 40
24 25 42 41
25 26 43 42
26 27 44 43
27 28 45 44
28 29 46 45
29 30 47 46
30 31 48 47
31 32 49 48
32 33 50 49
33 34 51 50
35 36 53 52
36 37 54 53
37 38 55 54
38 39 56 55
39 40 57 56
40 41 58 57
41 42 59 58
42 43 60 59
43 44 61 60
44 45 62 61
45 46 63 62
46 47 64 63
47 48 65 64
48 49 66 65
49 50 67 66
50 51 68 67
52 53 70 69
53 54 71 70
54 55 72 71
55 56 73 72
56 57 74 73
57 58 75 74
58 59 76 75
59 60 77 76
60 61 78 77
61 62 79 78
62 63 80 79
63 64 81 80
64 65 82 81
65 66 83 82
66 67 84 83
67 68 85 84
69 70 87 86
70 71 88 87
71 72 89 88
72 73 90 89
73 74 91 90
74 75 92 91
75 76 93 92
76 77 94 93
77 78 95 94
78 79 96 95
79 80 97 96
80 81 98 97
81 82 99 98
82 83 100 99
83 84 101 100
84 85 102 101
86 87 104 103
87 88 105 104
88 89 106 105
89 90 107 106
90 91 108 107
91 92 109 108
92 93 110 109
93 94 111 110
94 95 112 111
95 96 113 112
96 97 114 113
97 98 115 114
98 99 116 115
99 100 117 116
100 101 118 117
101 102 119 118
103 104 121 120
104 105 122 121
105 106 123 122
106 107 124 123
107 108 125 124
108 109 126 125
109 110 127 126
110 111 128 127
111 112 129 128
112 113 130 129
113 114 131 130
114 115 132 131
115 116 133 132
116 117 134 133
117 118 135 134
118 119 136 135
120 121 138 137
121 122 139 138
122 123 140 139
123 124 141 140
124 125 142 141
125 126 143 142
126 127 144 143
127 128 145 144
128 129 146 145
129 130 147 146
130 131 148 147
131 132 149 148
132 133 150 149
133 134 151 150
134 135 152 151
135 136 153 152
