TITLE = "Solution"
VARIABLES = x, y, u, v, psiu, psiv, t, stress
ZONE T="structure" N=153 E=128 F=FEBLOCK ET=QUADRILATERAL VARLOCATION=([7,8]=cellcentered)
0.000000e+00
1.250000e+01
2.500000e+01
3.750000e+01
5.000000e+01
6.250000e+01
7.500000e+01
8.750000e+01
1.000000e+02
1.125000e+02
1.250000e+02
1.375000e+02
1.500000e+02
1.625000e+02
1.750000e+02
1.875000e+02
2.000000e+02
0.000000e+00
1.250000e+01
2.500000e+01
3.750000e+01
5.000000e+01
6.250000e+01
7.500000e+01
8.750000e+01
1.000000e+02
1.125000e+02
1.250000e+02
1.375000e+02
1.500000e+02
1.625000e+02
1.750000e+02
1.875000e+02
2.000000e+02
0.000000e+00
1.250000e+01
2.500000e+01
3.750000e+01
5.000000e+01
6.250000e+01
7.500000e+01
8.750000e+01
1.000000e+02
1.125000e+02
1.250000e+02
1.375000e+02
1.500000e+02
1.625000e+02
1.750000e+02
1.875000e+02
2.000000e+02
0.000000e+00
1.250000e+01
2.500000e+01
3.750000e+01
5.000000e+01
6.250000e+01
7.500000e+01
8.750000e+01
1.000000e+02
1.125000e+02
1.250000e+02
1.375000e+02
1.500000e+02
1.625000e+02
1.750000e+02
1.875000e+02
2.000000e+02
0.000000e+00
1.250000e+01
2.500000e+01
3.750000e+01
5.000000e+01
6.250000e+01
7.500000e+01
8.750000e+01
1.000000e+02
1.125000e+02
1.250000e+02
1.375000e+02
1.500000e+02
1.625000e+02
1.750000e+02
1.875000e+02
2.000000e+02
0.000000e+00
1.250000e+01
2.500000e+01
3.750000e+01
5.000000e+01
6.250000e+01
7.500000e+01
8.750000e+01
1.000000e+02
1.125000e+02
1.250000e+02
1.375000e+02
1.500000e+02
1.625000e+02
1.750000e+02
1.875000e+02
2.000000e+02
0.000000e+00
1.250000e+01
2.500000e+01
3.750000e+01
5.000000e+01
6.250000e+01
7.500000e+01
8.750000e+01
1.000000e+02
1.125000e+02
1.250000e+02
1.375000e+02
1.500000e+02
1.625000e+02
1.750000e+02
1.875000e+02
2.000000e+02
0.000000e+00
1.250000e+01
2.500000e+01
3.750000e+01
5.000000e+01
6.250000e+01
7.500000e+01
8.750000e+01
1.000000e+02
1.125000e+02
1.250000e+02
1.375000e+02
1.500000e+02
1.625000e+02
1.750000e+02
1.875000e+02
2.000000e+02
0.000000e+00
1.250000e+01
2.500000e+01
3.750000e+01
5.000000e+01
6.250000e+01
7.500000e+01
8.750000e+01
1.000000e+02
1.125000e+02
1.250000e+02
1.375000e+02
1.500000e+02
1.625000e+02
1.750000e+02
1.875000e+02
2.000000e+02
0.000000e+00
0.000000e+00
0.000000e+00
0.000000e+00
0.000000e+00
0.000000e+00
0.000000e+00
0.000000e+00
0.000000e+00
0.000000e+00
0.000000e+00
0.000000e+00
0.000000e+00
0.000000e+00
0.000000e+00
0.000000e+00
0.000000e+00
1.250000e+01
1.250000e+01
1.250000e+01
1.250000e+01
1.250000e+01
1.250000e+01
1.250000e+01
1.250000e+01
1.250000e+01
1.250000e+01
1.250000e+01
1.250000e+01
1.250000e+01
1.250000e+01
1.250000e+01
1.250000e+01
1.250000e+01
2.500000e+01
2.500000e+01
2.500000e+01
2.500000e+01
2.500000e+01
2.500000e+01
2.500000e+01
2.500000e+01
2.500000e+01
2.500000e+01
2.500000e+01
2.500000e+01
2.500000e+01
2.500000e+01
2.500000e+01
2.500000e+01
2.500000e+01
3.750000e+01
3.750000e+01
3.750000e+01
3.750000e+01
3.750000e+01
3.750000e+01
3.750000e+01
3.750000e+01
3.750000e+01
3.750000e+01
3.750000e+01
3.750000e+01
3.750000e+01
3.750000e+01
3.750000e+01
3.750000e+01
3.750000e+01
5.000000e+01
5.000000e+01
5.000000e+01
5.000000e+01
5.000000e+01
5.000000e+01
5.000000e+01
5.000000e+01
5.000000e+01
5.000000e+01
5.000000e+01
5.000000e+01
5.000000e+01
5.000000e+01
5.000000e+01
5.000000e+01
5.000000e+01
6.250000e+01
6.250000e+01
6.250000e+01
6.250000e+01
6.250000e+01
6.250000e+01
6.250000e+01
6.250000e+01
6.250000e+01
6.250000e+01
6.250000e+01
6.250000e+01
6.250000e+01
6.250000e+01
6.250000e+01
6.250000e+01
6.250000e+01
7.500000e+01
7.500000e+01
7.500000e+01
7.500000e+01
7.500000e+01
7.500000e+01
7.500000e+01
7.500000e+01
7.500000e+01
7.500000e+01
7.500000e+01
7.500000e+01
7.500000e+01
7.500000e+01
7.500000e+01
7.500000e+01
7.500000e+01
8.750000e+01
8.750000e+01
8.750000e+01
8.750000e+01
8.750000e+01
8.750000e+01
8.750000e+01
8.750000e+01
8.750000e+01
8.750000e+01
8.750000e+01
8.750000e+01
8.750000e+01
8.750000e+01
8.750000e+01
8.750000e+01
8.750000e+01
1.000000e+02
1.000000e+02
1.000000e+02
1.000000e+02
1.000000e+02
1.000000e+02
1.000000e+02
1.000000e+02
1.000000e+02
1.000000e+02
1.000000e+02
1.000000e+02
1.000000e+02
1.000000e+02
1.000000e+02
1.000000e+02
1.000000e+02
0.000000e+00
-1.045042e-01
-1.924254e-01
-2.733243e-01
-3.486639e-01
-4.182851e-01
-4.820387e-01
-5.398751e-01
-5.918784e-01
-6.382883e-01
-6.795647e-01
-7.165145e-01
-7.505254e-01
-7.839949e-01
-8.210582e-01
-8.665765e-01
-9.007330e-01
0.000000e+00
-6.240805e-02
-1.296406e-01
-1.917256e-01
-2.489250e-01
-3.014563e-01
-3.494283e-01
-3.929055e-01
-4.319661e-01
-4.667304e-01
-4.973750e-01
-5.241206e-01
-5.471380e-01
-5.661901e-01
-5.796287e-01
-5.825742e-01
-5.931345e-01
0.000000e+00
-3.902820e-02
-8.025175e-02
-1.213784e-01
-1.597688e-01
-1.950167e-01
-2.270933e-01
-2.560349e-01
-2.818487e-01
-3.044917e-01
-3.238419e-01
-3.396291e-01
-3.512905e-01
-3.578001e-01
-3.579808e-01
-3.553803e-01
-3.661510e-01
0.000000e+00
-1.883742e-02
-3.877936e-02
-5.884725e-02
-7.803580e-02
-9.570966e-02
-1.117293e-01
-1.260480e-01
-1.385839e-01
-1.491737e-01
-1.575470e-01
-1.633084e-01
-1.659863e-01
-1.653607e-01
-1.627903e-01
-1.634932e-01
-1.715131e-01
0.000000e+00
-1.735301e-05
-3.944881e-05
-6.147205e-05
-7.316023e-05
-5.162846e-05
4.854690e-05
3.088730e-04
8.630732e-04
1.910336e-03
3.710531e-03
6.524719e-03
1.042344e-02
1.482919e-02
1.787255e-02
1.703785e-02
1.172796e-02
0.000000e+00
1.881072e-02
3.871737e-02
5.874810e-02
7.791247e-02
9.560935e-02
1.117682e-01
1.264680e-01
1.398363e-01
1.520281e-01
1.632027e-01
1.734428e-01
1.825707e-01
1.898901e-01
1.941958e-01
1.945373e-01
1.918422e-01
0.000000e+00
3.902382e-02
8.023840e-02
1.213518e-01
1.597273e-01
1.949650e-01
2.270504e-01
2.560488e-01
2.820203e-01
3.050110e-01
3.250409e-01
3.420611e-01
3.558759e-01
3.660897e-01
3.722202e-01
3.742108e-01
3.735823e-01
0.000000e+00
6.243365e-02
1.296963e-01
1.918143e-01
2.490440e-01
3.015837e-01
3.494999e-01
3.927748e-01
4.313426e-01
4.650919e-01
4.938625e-01
5.174556e-01
5.356823e-01
5.484825e-01
5.561181e-01
5.593742e-01
5.599723e-01
0.000000e+00
1.045470e-01
1.925383e-01
2.735359e-01
3.490018e-01
4.187605e-01
4.826057e-01
5.403519e-01
5.918059e-01
6.367003e-01
6.746458e-01
7.051365e-01
7.276717e-01
7.420741e-01
7.490393e-01
7.507585e-01
7.507253e-01
0.000000e+00
-6.325929e-02
-1.241854e-01
-2.031314e-01
-3.000213e-01
-4.146739e-01
-5.458334e-01
-6.920322e-01
-8.517154e-01
-1.023349e+00
-1.205517e+00
-1.397090e+00
-1.597607e+00
-1.808139e+00
-2.034147e+00
-2.292741e+00
-2.664295e+00
0.000000e+00
-3.894358e-02
-1.024995e-01
-1.824244e-01
-2.808979e-01
-3.971150e-01
-5.298636e-01
-6.776396e-01
-8.388706e-01
-1.011995e+00
-1.195556e+00
-1.388375e+00
-1.589918e+00
-1.801227e+00
-2.027147e+00
-2.284172e+00
-2.599055e+00
0.000000e+00
-2.938639e-02
-8.746573e-02
-1.676857e-01
-2.670901e-01
-3.845035e-01
-5.184722e-01
-6.674779e-01
-8.299586e-01
-1.004375e+00
-1.189299e+00
-1.383591e+00
-1.586769e+00
-1.799704e+00
-2.025818e+00
-2.269358e+00
-2.505054e+00
0.000000e+00
-2.532311e-02
-7.999103e-02
-1.590345e-01
-2.587982e-01
-3.769344e-01
-5.117383e-01
-6.616340e-01
-8.250889e-01
-1.000605e+00
-1.186786e+00
-1.382470e+00
-1.586945e+00
-1.800115e+00
-2.021706e+00
-2.245485e+00
-2.451637e+00
0.000000e+00
-2.415256e-02
-7.772884e-02
-1.562746e-01
-2.560656e-01
-3.744957e-01
-5.096872e-01
-6.600655e-01
-8.241271e-01
-1.000399e+00
-1.187452e+00
-1.383943e+00
-1.588600e+00
-1.799915e+00
-2.014724e+00
-2.225681e+00
-2.420025e+00
0.000000e+00
-2.530808e-02
-7.998034e-02
-1.590535e-01
-2.588918e-01
-3.771807e-01
-5.122652e-01
-6.626320e-01
-8.268096e-01
-1.003317e+00
-1.190635e+00
-1.387134e+00
-1.590916e+00
-1.799385e+00
-2.008537e+00
-2.212261e+00
-2.402457e+00
0.000000e+00
-2.936187e-02
-8.744800e-02
-1.677175e-01
-2.672477e-01
-3.849203e-01
-5.193656e-01
-6.691725e-01
-8.328842e-01
-1.008995e+00
-1.195881e+00
-1.391665e+00
-1.593989e+00
-1.799727e+00
-2.004825e+00
-2.204638e+00
-2.394708e+00
0.000000e+00
-3.892059e-02
-1.024840e-01
-1.824666e-01
-2.810871e-01
-3.976051e-01
-5.309035e-01
-6.795983e-01
-8.422313e-01
-1.017269e+00
-1.203022e+00
-1.397478e+00
-1.598078e+00
-1.801525e+00
-2.003895e+00
-2.201487e+00
-2.392889e+00
0.000000e+00
-6.324979e-02
-1.241867e-01
-2.031967e-01
-3.002406e-01
-4.151976e-01
-5.468976e-01
-6.939737e-01
-8.549524e-01
-1.028273e+00
-1.212206e+00
-1.404694e+00
-1.603161e+00
-1.804382e+00
-2.004685e+00
-2.200910e+00
-2.392917e+00


0.000000e+00
2.300697e-09
4.757641e-09
6.932955e-09
8.768901e-09
1.025949e-08
1.143232e-08
1.233133e-08
1.300317e-08
1.349268e-08
1.384099e-08
1.408511e-08
1.425889e-08
1.439375e-08
1.451925e-08
1.467430e-08
1.486056e-08
0.000000e+00
1.565435e-09
3.688048e-09
5.416271e-09
6.801250e-09
7.894833e-09
8.738385e-09
9.373917e-09
9.840289e-09
1.017212e-08
1.039942e-08
1.054707e-08
1.063383e-08
1.067650e-08
1.071977e-08
1.084656e-08
1.103833e-08
0.000000e+00
1.165380e-09
2.561239e-09
3.727026e-09
4.663097e-09
5.385323e-09
5.928595e-09
6.327634e-09
6.612027e-09
6.806231e-09
6.930300e-09
7.000647e-09
7.031936e-09
7.044043e-09
7.074560e-09
7.174038e-09
7.329329e-09
0.000000e+00
6.236268e-10
1.277204e-09
1.860328e-09
2.337076e-09
2.701302e-09
2.970113e-09
3.162981e-09
3.296040e-09
3.382147e-09
3.432061e-09
3.455966e-09
3.465674e-09
3.476345e-09
3.503234e-09
3.563685e-09
3.659230e-09
0.000000e+00
-6.805385e-13
-1.597919e-12
-2.872392e-12
-4.706814e-12
-7.374703e-12
-1.123170e-11
-1.668659e-11
-2.409132e-11
-3.346603e-11
-4.398582e-11
-5.322854e-11
-5.682263e-11
-5.047461e-11
-3.393687e-11
-4.801681e-12
4.497548e-11
0.000000e+00
-6.247954e-10
-1.279907e-09
-1.865172e-09
-2.344915e-09
-2.713364e-09
-2.988118e-09
-3.189232e-09
-3.333431e-09
-3.433897e-09
-3.500844e-09
-3.541969e-09
-3.563151e-09
-3.570164e-09
-3.569798e-09
-3.562599e-09
-3.541333e-09
0.000000e+00
-1.165981e-09
-2.562892e-09
-3.730086e-09
-4.667970e-09
-5.392448e-09
-5.938414e-09
-6.340599e-09
-6.628686e-09
-6.827533e-09
-6.958162e-09
-7.038635e-09
-7.084536e-09
-7.109125e-09
-7.122337e-09
-7.126855e-09
-7.120870e-09
0.000000e+00
-1.565647e-09
-3.689094e-09
-5.418124e-09
-6.803834e-09
-7.897876e-09
-8.741213e-09
-9.375322e-09
-9.838525e-09
-1.016523e-08
-1.038611e-08
-1.052825e-08
-1.061500e-08
-1.066538e-08
-1.069313e-08
-1.070577e-08
-1.070753e-08
0.000000e+00
-2.301705e-09
-4.759289e-09
-6.934795e-09
-8.770386e-09
-1.025964e-08
-1.142959e-08
-1.232346e-08
-1.298714e-08
-1.346477e-08
-1.379667e-08
-1.401837e-08
-1.415967e-08
-1.424410e-08
-1.428867e-08
-1.430573e-08
-1.430868e-08
0.000000e+00
2.090684e-09
3.756594e-09
5.504141e-09
7.601588e-09
1.007021e-08
1.285986e-08
1.590528e-08
1.914387e-08
2.252403e-08
2.600615e-08
2.956311e-08
3.318389e-08
3.689212e-08
4.078732e-08
4.492090e-08
4.910745e-08
0.000000e+00
1.124100e-09
2.752280e-09
4.618137e-09
6.875223e-09
9.497505e-09
1.242210e-08
1.557923e-08
1.890784e-08
2.235852e-08
2.589421e-08
2.949023e-08
3.313637e-08
3.684378e-08
4.066012e-08
4.467880e-08
4.879766e-08
0.000000e+00
5.545107e-10
1.964171e-09
3.926182e-09
6.313927e-09
9.062755e-09
1.209469e-08
1.533915e-08
1.873734e-08
2.224257e-08
2.582013e-08
2.944701e-08
3.311111e-08
3.680587e-08
4.053573e-08
4.442168e-08
4.843021e-08
0.000000e+00
3.159342e-10
1.592457e-09
3.563573e-09
6.019350e-09
8.837779e-09
1.192809e-08
1.521912e-08
1.865413e-08
2.218838e-08
2.578825e-08
2.943024e-08
3.309811e-08
3.677556e-08
4.045855e-08
4.423898e-08
4.810873e-08
0.000000e+00
2.554194e-10
1.491161e-09
3.453792e-09
5.928770e-09
8.769267e-09
1.187832e-08
1.518441e-08
1.863164e-08
2.217582e-08
2.578306e-08
2.942834e-08
3.309263e-08
3.675919e-08
4.042229e-08
4.413461e-08
4.787996e-08
0.000000e+00
3.163605e-10
1.593048e-09
3.564372e-09
6.020483e-09
8.839583e-09
1.193115e-08
1.522429e-08
1.866229e-08
2.219997e-08
2.580213e-08
2.944207e-08
3.309947e-08
3.675885e-08
4.041405e-08
4.408426e-08
4.774830e-08
0.000000e+00
5.551846e-10
1.965238e-09
3.927761e-09
6.316261e-09
9.066502e-09
1.210094e-08
1.534946e-08
1.875336e-08
2.226524e-08
2.584792e-08
2.947283e-08
3.311842e-08
3.676915e-08
4.041668e-08
4.406198e-08
4.768682e-08
0.000000e+00
1.125045e-09
2.754047e-09
4.620754e-09
6.879007e-09
9.503218e-09
1.243096e-08
1.559292e-08
1.892815e-08
2.238655e-08
2.592852e-08
2.952337e-08
3.314775e-08
3.678456e-08
4.042237e-08
4.405350e-08
4.766630e-08
0.000000e+00
2.092194e-09
3.759190e-09
5.507783e-09
7.606553e-09
1.007707e-08
1.286958e-08
1.591912e-08
1.916317e-08
2.254946e-08
2.603606e-08
2.959007e-08
3.318592e-08
3.680417e-08
4.043040e-08
4.405292e-08
4.766316e-08


3.053521e-01
3.053521e-01
3.053523e-01
3.053527e-01
3.053531e-01
3.053534e-01
3.053537e-01
3.053539e-01
3.053540e-01
3.053541e-01
3.053541e-01
3.053542e-01
3.053542e-01
3.053542e-01
3.053541e-01
3.053540e-01
3.053525e-01
3.053525e-01
3.053527e-01
3.053530e-01
3.053533e-01
3.053536e-01
3.053538e-01
3.053539e-01
3.053541e-01
3.053541e-01
3.053542e-01
3.053542e-01
3.053542e-01
3.053542e-01
3.053541e-01
3.053540e-01
3.053533e-01
3.053532e-01
3.053533e-01
3.053535e-01
3.053537e-01
3.053539e-01
3.053540e-01
3.053541e-01
3.053541e-01
3.053542e-01
3.053542e-01
3.053542e-01
3.053542e-01
3.053542e-01
3.053541e-01
3.053541e-01
3.053538e-01
3.053538e-01
3.053538e-01
3.053539e-01
3.053540e-01
3.053541e-01
3.053541e-01
3.053541e-01
3.053542e-01
3.053542e-01
3.053542e-01
3.053542e-01
3.053542e-01
3.053542e-01
3.053541e-01
3.053541e-01
3.053538e-01
3.053538e-01
3.053538e-01
3.053539e-01
3.053540e-01
3.053541e-01
3.053541e-01
3.053541e-01
3.053542e-01
3.053542e-01
3.053542e-01
3.053542e-01
3.053542e-01
3.053542e-01
3.053542e-01
3.053542e-01
3.053532e-01
3.053532e-01
3.053533e-01
3.053535e-01
3.053537e-01
3.053539e-01
3.053540e-01
3.053541e-01
3.053541e-01
3.053542e-01
3.053542e-01
3.053542e-01
3.053542e-01
3.053542e-01
3.053542e-01
3.053542e-01
3.053525e-01
3.053525e-01
3.053527e-01
3.053530e-01
3.053533e-01
3.053536e-01
3.053538e-01
3.053539e-01
3.053540e-01
3.053541e-01
3.053542e-01
3.053542e-01
3.053542e-01
3.053542e-01
3.053542e-01
3.053542e-01
3.053521e-01
3.053521e-01
3.053523e-01
3.053527e-01
3.053531e-01
3.053534e-01
3.053537e-01
3.053539e-01
3.053540e-01
3.053541e-01
3.053542e-01
3.053542e-01
3.053542e-01
3.053542e-01
3.053542e-01
3.053542e-01


9.754293e-01
9.789136e-01
9.821368e-01
9.846180e-01
9.869212e-01
9.890449e-01
9.909797e-01
9.927029e-01
9.941965e-01
9.954457e-01
9.964390e-01
9.971667e-01
9.976190e-01
9.977803e-01
9.978968e-01
9.907160e-01
9.907044e-01
9.891077e-01
9.901350e-01
9.914758e-01
9.927258e-01
9.938619e-01
9.948904e-01
9.958219e-01
9.966654e-01
9.974294e-01
9.981226e-01
9.987503e-01
9.992979e-01
9.996566e-01
9.987497e-01
9.864577e-01
9.967702e-01
9.958531e-01
9.956056e-01
9.959538e-01
9.964119e-01
9.968557e-01
9.972677e-01
9.976569e-01
9.980340e-01
9.984017e-01
9.987451e-01
9.990109e-01
9.990664e-01
9.985877e-01
9.968508e-01
9.937271e-01
9.993427e-01
9.986738e-01
9.982606e-01
9.981558e-01
9.981977e-01
9.982679e-01
9.983380e-01
9.984066e-01
9.984738e-01
9.985301e-01
9.985458e-01
9.984621e-01
9.981965e-01
9.977199e-01
9.973157e-01
9.972134e-01
9.993451e-01
9.986773e-01
9.982638e-01
9.981552e-01
9.981873e-01
9.982379e-01
9.982731e-01
9.982849e-01
9.982688e-01
9.982170e-01
9.981206e-01
9.979816e-01
9.978493e-01
9.978756e-01
9.982496e-01
9.988972e-01
9.967748e-01
9.958601e-01
9.956123e-01
9.959539e-01
9.963941e-01
9.968008e-01
9.971448e-01
9.974213e-01
9.976284e-01
9.977679e-01
9.978561e-01
9.979423e-01
9.981234e-01
9.985030e-01
9.990733e-01
9.996630e-01
9.907035e-01
9.891071e-01
9.901336e-01
9.914719e-01
9.927160e-01
9.938396e-01
9.948441e-01
9.957335e-01
9.965085e-01
9.971710e-01
9.977318e-01
9.982216e-01
9.986933e-01
9.991878e-01
9.996502e-01
9.999415e-01
9.754125e-01
9.788874e-01
9.821046e-01
9.845820e-01
9.868887e-01
9.890331e-01
9.910196e-01
9.928437e-01
9.945058e-01
9.960026e-01
9.973163e-01
9.984061e-01
9.992168e-01
9.997170e-01
9.999445e-01
9.999988e-01
1 2 19 18
2 3 20 19
3 4 21 20
4 5 22 21
5 6 23 22
6 7 24 23
7 8 25 24
8 9 26 25
9 10 27 26
10 11 28 27
11 12 29 28
12 13 30 29
13 14 31 30
14 15 32 31
15 16 33 32
16 17 34 33
18 19 36 35
19 20 37 36
20 21 38 37
21 22 39 38
22 23 40 39
23 24 41 40
24 25 42 41
25 26 43 42
26 27 44 43
27 28 45 44
28 29 46 45
29 30 47 46
30 31 48 47
31 32 49 48
32 33 50 49
33 34 51 50
35 36 53 52
36 37 54 53
37 38 55 54
38 39 56 55
39 40 57 56
40 41 58 57
41 42 59 58
42 43 60 59
43 44 61 60
44 45 62 61
45 46 63 62
46 47 64 63
47 48 65 64
48 49 66 65
49 50 67 66
50 51 68 67
52 53 70 69
53 54 71 70
54 55 72 71
55 56 73 72
56 57 74 73
57 58 75 74
58 59 76 75
59 60 77 76
60 61 78 77
61 62 79 78
62 63 80 79
63 64 81 80
64 65 82 81
65 66 83 82
66 67 84 83
67 68 85 84
69 70 87 86
70 71 88 87
71 72 89 88
72 73 90 89
73 74 91 90
74 75 92 91
75 76 93 92
76 77 94 93
77 78 95 94
78 79 96 95
79 80 97 96
80 81 98 97
81 82 99 98
82 83 100 99
83 84 101 100
84 85 102 101
86 87 104 103
87 88 105 104
88 89 106 105
89 90 107 106
90 91 108 107
91 92 109 108
92 93 110 109
93 94 111 110
94 95 112 111
95 96 113 112
96 97 114 113
97 98 115 114
98 99 116 115
99 100 117 116
100 101 118 117
101 102 119 118
103 104 121 120
104 105 122 121
105 106 123 122
106 107 124 123
107 108 125 124
108 109 126 125
109 110 127 126
110 111 128 127
111 112 129 128
112 113 130 129
113 114 131 130
114 115 132 131
115 116 133 132
116 117 134 133
117 118 135 134
118 119 136 135
120 121 138 137
121 122 139 138
122 123 140 139
123 124 141 140
124 125 142 141
125 126 143 142
126 127 144 143
127 128 145 144
128 129 146 145
129 130 147 146
130 131 148 147
131 132 149 148
132 133 150 149
133 134 151 150
134 135 152 151
135 136 153 152
