TITLE = "Solution"
VARIABLES = x, y, u, v, psiu, psiv, t, stress
ZONE T="structure" N=153 E=128 F=FEBLOCK ET=QUADRILATERAL VARLOCATION=([7,8]=cellcentered)
0.000000e+00
1.250000e+01
2.500000e+01
3.750000e+01
5.000000e+01
6.250000e+01
7.500000e+01
8.750000e+01
1.000000e+02
1.125000e+02
1.250000e+02
1.375000e+02
1.500000e+02
1.625000e+02
1.750000e+02
1.875000e+02
2.000000e+02
0.000000e+00
1.250000e+01
2.500000e+01
3.750000e+01
5.000000e+01
6.250000e+01
7.500000e+01
8.750000e+01
1.000000e+02
1.125000e+02
1.250000e+02
1.375000e+02
1.500000e+02
1.625000e+02
1.750000e+02
1.875000e+02
2.000000e+02
0.000000e+00
1.250000e+01
2.500000e+01
3.750000e+01
5.000000e+01
6.250000e+01
7.500000e+01
8.750000e+01
1.000000e+02
1.125000e+02
1.250000e+02
1.375000e+02
1.500000e+02
1.625000e+02
1.750000e+02
1.875000e+02
2.000000e+02
0.000000e+00
1.250000e+01
2.500000e+01
3.750000e+01
5.000000e+01
6.250000e+01
7.500000e+01
8.750000e+01
1.000000e+02
1.125000e+02
1.250000e+02
1.375000e+02
1.500000e+02
1.625000e+02
1.750000e+02
1.875000e+02
2.000000e+02
0.000000e+00
1.250000e+01
2.500000e+01
3.750000e+01
5.000000e+01
6.250000e+01
7.500000e+01
8.750000e+01
1.000000e+02
1.125000e+02
1.250000e+02
1.375000e+02
1.500000e+02
1.625000e+02
1.750000e+02
1.875000e+02
2.000000e+02
0.000000e+00
1.250000e+01
2.500000e+01
3.750000e+01
5.000000e+01
6.250000e+01
7.500000e+01
8.750000e+01
1.000000e+02
1.125000e+02
1.250000e+02
1.375000e+02
1.500000e+02
1.625000e+02
1.750000e+02
1.875000e+02
2.000000e+02
0.000000e+00
1.250000e+01
2.500000e+01
3.750000e+01
5.000000e+01
6.250000e+01
7.500000e+01
8.750000e+01
1.000000e+02
1.125000e+02
1.250000e+02
1.375000e+02
1.500000e+02
1.625000e+02
1.750000e+02
1.875000e+02
2.000000e+02
0.000000e+00
1.250000e+01
2.500000e+01
3.750000e+01
5.000000e+01
6.250000e+01
7.500000e+01
8.750000e+01
1.000000e+02
1.125000e+02
1.250000e+02
1.375000e+02
1.500000e+02
1.625000e+02
1.750000e+02
1.875000e+02
2.000000e+02
0.000000e+00
1.250000e+01
2.500000e+01
3.750000e+01
5.000000e+01
6.250000e+01
7.500000e+01
8.750000e+01
1.000000e+02
1.125000e+02
1.250000e+02
1.375000e+02
1.500000e+02
1.625000e+02
1.750000e+02
1.875000e+02
2.000000e+02
0.000000e+00
0.000000e+00
0.000000e+00
0.000000e+00
0.000000e+00
0.000000e+00
0.000000e+00
0.000000e+00
0.000000e+00
0.000000e+00
0.000000e+00
0.000000e+00
0.000000e+00
0.000000e+00
0.000000e+00
0.000000e+00
0.000000e+00
1.250000e+01
1.250000e+01
1.250000e+01
1.250000e+01
1.250000e+01
1.250000e+01
1.250000e+01
1.250000e+01
1.250000e+01
1.250000e+01
1.250000e+01
1.250000e+01
1.250000e+01
1.250000e+01
1.250000e+01
1.250000e+01
1.250000e+01
2.500000e+01
2.500000e+01
2.500000e+01
2.500000e+01
2.500000e+01
2.500000e+01
2.500000e+01
2.500000e+01
2.500000e+01
2.500000e+01
2.500000e+01
2.500000e+01
2.500000e+01
2.500000e+01
2.500000e+01
2.500000e+01
2.500000e+01
3.750000e+01
3.750000e+01
3.750000e+01
3.750000e+01
3.750000e+01
3.750000e+01
3.750000e+01
3.750000e+01
3.750000e+01
3.750000e+01
3.750000e+01
3.750000e+01
3.750000e+01
3.750000e+01
3.750000e+01
3.750000e+01
3.750000e+01
5.000000e+01
5.000000e+01
5.000000e+01
5.000000e+01
5.000000e+01
5.000000e+01
5.000000e+01
5.000000e+01
5.000000e+01
5.000000e+01
5.000000e+01
5.000000e+01
5.000000e+01
5.000000e+01
5.000000e+01
5.000000e+01
5.000000e+01
6.250000e+01
6.250000e+01
6.250000e+01
6.250000e+01
6.250000e+01
6.250000e+01
6.250000e+01
6.250000e+01
6.250000e+01
6.250000e+01
6.250000e+01
6.250000e+01
6.250000e+01
6.250000e+01
6.250000e+01
6.250000e+01
6.250000e+01
7.500000e+01
7.500000e+01
7.500000e+01
7.500000e+01
7.500000e+01
7.500000e+01
7.500000e+01
7.500000e+01
7.500000e+01
7.500000e+01
7.500000e+01
7.500000e+01
7.500000e+01
7.500000e+01
7.500000e+01
7.500000e+01
7.500000e+01
8.750000e+01
8.750000e+01
8.750000e+01
8.750000e+01
8.750000e+01
8.750000e+01
8.750000e+01
8.750000e+01
8.750000e+01
8.750000e+01
8.750000e+01
8.750000e+01
8.750000e+01
8.750000e+01
8.750000e+01
8.750000e+01
8.750000e+01
1.000000e+02
1.000000e+02
1.000000e+02
1.000000e+02
1.000000e+02
1.000000e+02
1.000000e+02
1.000000e+02
1.000000e+02
1.000000e+02
1.000000e+02
1.000000e+02
1.000000e+02
1.000000e+02
1.000000e+02
1.000000e+02
1.000000e+02
0.000000e+00
-7.139291e-02
-1.314570e-01
-1.867237e-01
-2.381925e-01
-2.857547e-01
-3.293083e-01
-3.688195e-01
-4.043458e-01
-4.360510e-01
-4.642491e-01
-4.894915e-01
-5.127262e-01
-5.355911e-01
-5.609110e-01
-5.920070e-01
-6.153412e-01
0.000000e+00
-4.263459e-02
-8.856506e-02
-1.309789e-01
-1.700551e-01
-2.059422e-01
-2.387146e-01
-2.684162e-01
-2.951007e-01
-3.188501e-01
-3.397850e-01
-3.580564e-01
-3.737808e-01
-3.867964e-01
-3.959770e-01
-3.979892e-01
-4.052036e-01
0.000000e+00
-2.666246e-02
-5.482468e-02
-8.292066e-02
-1.091474e-01
-1.332272e-01
-1.551405e-01
-1.749121e-01
-1.925469e-01
-2.080156e-01
-2.212348e-01
-2.320199e-01
-2.399864e-01
-2.444334e-01
-2.445569e-01
-2.427804e-01
-2.501384e-01
0.000000e+00
-1.286895e-02
-2.649246e-02
-4.020200e-02
-5.331080e-02
-6.538480e-02
-7.632870e-02
-8.611061e-02
-9.467455e-02
-1.019091e-01
-1.076293e-01
-1.115652e-01
-1.133946e-01
-1.129672e-01
-1.112113e-01
-1.116915e-01
-1.171703e-01
0.000000e+00
-1.185468e-05
-2.694943e-05
-4.199460e-05
-4.997933e-05
-3.526970e-05
3.316564e-05
2.110086e-04
5.896129e-04
1.305055e-03
2.534866e-03
4.457390e-03
7.120817e-03
1.013062e-02
1.220971e-02
1.163948e-02
8.012002e-03
0.000000e+00
1.285071e-02
2.645012e-02
4.013427e-02
5.322655e-02
6.531628e-02
7.635528e-02
8.639756e-02
9.553017e-02
1.038590e-01
1.114930e-01
1.184886e-01
1.247243e-01
1.297246e-01
1.326661e-01
1.328994e-01
1.310582e-01
0.000000e+00
2.665947e-02
5.481556e-02
8.290251e-02
1.091190e-01
1.331919e-01
1.551112e-01
1.749216e-01
1.926641e-01
2.083703e-01
2.220539e-01
2.336813e-01
2.431190e-01
2.500965e-01
2.542846e-01
2.556445e-01
2.552151e-01
0.000000e+00
4.265208e-02
8.860309e-02
1.310396e-01
1.701364e-01
2.060292e-01
2.387634e-01
2.683269e-01
2.946747e-01
3.177307e-01
3.373855e-01
3.535032e-01
3.659549e-01
3.746994e-01
3.799156e-01
3.821401e-01
3.825487e-01
0.000000e+00
7.142216e-02
1.315341e-01
1.868682e-01
2.384233e-01
2.860794e-01
3.296956e-01
3.691452e-01
4.042963e-01
4.349661e-01
4.608887e-01
4.817186e-01
4.971136e-01
5.069527e-01
5.117110e-01
5.128855e-01
5.128628e-01
0.000000e+00
-4.321610e-02
-8.483821e-02
-1.387708e-01
-2.049618e-01
-2.832875e-01
-3.728901e-01
-4.727668e-01
-5.818555e-01
-6.991083e-01
-8.235572e-01
-9.544317e-01
-1.091416e+00
-1.235242e+00
-1.389641e+00
-1.566301e+00
-1.820130e+00
0.000000e+00
-2.660462e-02
-7.002331e-02
-1.246247e-01
-1.918975e-01
-2.712921e-01
-3.619802e-01
-4.629344e-01
-5.730805e-01
-6.913514e-01
-8.167525e-01
-9.484779e-01
-1.086163e+00
-1.230521e+00
-1.384859e+00
-1.560447e+00
-1.775561e+00
0.000000e+00
-2.007554e-02
-5.975289e-02
-1.145558e-01
-1.824647e-01
-2.626765e-01
-3.541982e-01
-4.559924e-01
-5.669922e-01
-6.861459e-01
-8.124778e-01
-9.452099e-01
-1.084012e+00
-1.229480e+00
-1.383951e+00
-1.550327e+00
-1.711344e+00
0.000000e+00
-1.729967e-02
-5.464648e-02
-1.086456e-01
-1.768000e-01
-2.575056e-01
-3.495978e-01
-4.520001e-01
-5.636654e-01
-6.835707e-01
-8.107613e-01
-9.444441e-01
-1.084132e+00
-1.229761e+00
-1.381142e+00
-1.534018e+00
-1.674852e+00
0.000000e+00
-1.649999e-02
-5.310105e-02
-1.067602e-01
-1.749332e-01
-2.558396e-01
-3.481966e-01
-4.509286e-01
-5.630084e-01
-6.834296e-01
-8.112164e-01
-9.454501e-01
-1.085263e+00
-1.229624e+00
-1.376372e+00
-1.520489e+00
-1.653256e+00
0.000000e+00
-1.728940e-02
-5.463918e-02
-1.086586e-01
-1.768639e-01
-2.576739e-01
-3.499578e-01
-4.526819e-01
-5.648409e-01
-6.854234e-01
-8.133904e-01
-9.476304e-01
-1.086845e+00
-1.229262e+00
-1.372146e+00
-1.511321e+00
-1.641254e+00
0.000000e+00
-2.005879e-02
-5.974078e-02
-1.145775e-01
-1.825723e-01
-2.629612e-01
-3.548085e-01
-4.571501e-01
-5.689908e-01
-6.893018e-01
-8.169743e-01
-9.507256e-01
-1.088944e+00
-1.229495e+00
-1.369609e+00
-1.506113e+00
-1.635961e+00
0.000000e+00
-2.658892e-02
-7.001277e-02
-1.246535e-01
-1.920268e-01
-2.716269e-01
-3.626907e-01
-4.642725e-01
-5.753763e-01
-6.949544e-01
-8.218525e-01
-9.546964e-01
-1.091738e+00
-1.230724e+00
-1.368974e+00
-1.503960e+00
-1.634718e+00
0.000000e+00
-4.320961e-02
-8.483912e-02
-1.388154e-01
-2.051116e-01
-2.836453e-01
-3.736171e-01
-4.740931e-01
-5.840668e-01
-7.024720e-01
-8.281267e-01
-9.596263e-01
-1.095210e+00
-1.232676e+00
-1.369514e+00
-1.503566e+00
-1.634737e+00


0.000000e+00
6.006920e-11
1.242318e-10
1.810763e-10
2.291044e-10
2.681219e-10
2.988563e-10
3.224154e-10
3.400415e-10
3.528821e-10
3.620307e-10
3.684507e-10
3.730280e-10
3.765847e-10
3.798919e-10
3.839677e-10
3.888575e-10
0.000000e+00
4.085304e-11
9.627564e-11
1.414374e-10
1.776692e-10
2.063072e-10
2.284111e-10
2.450813e-10
2.573181e-10
2.660281e-10
2.720051e-10
2.758853e-10
2.781787e-10
2.793079e-10
2.804526e-10
2.837865e-10
2.888210e-10
0.000000e+00
3.041709e-11
6.687330e-11
9.733782e-11
1.218244e-10
1.407292e-10
1.549747e-10
1.654373e-10
1.729078e-10
1.780053e-10
1.812684e-10
1.831147e-10
1.839386e-10
1.842559e-10
1.850597e-10
1.876706e-10
1.917457e-10
0.000000e+00
1.628001e-11
3.335714e-11
4.859603e-11
6.106559e-11
7.059858e-11
7.764067e-11
8.269470e-11
8.618491e-11
8.844236e-11
8.975312e-11
9.037970e-11
9.063411e-11
9.091567e-11
9.161974e-11
9.320777e-11
9.571878e-11
0.000000e+00
-1.503522e-14
-4.133269e-14
-7.721426e-14
-1.279850e-13
-2.032592e-13
-3.030142e-13
-4.499220e-13
-6.445348e-13
-8.907984e-13
-1.172452e-12
-1.415485e-12
-1.517061e-12
-1.353411e-12
-9.218026e-13
-1.571355e-13
1.150448e-12
0.000000e+00
-1.631845e-11
-3.343394e-11
-4.873101e-11
-6.127417e-11
-7.091712e-11
-7.811987e-11
-8.339667e-11
-8.718900e-11
-8.983528e-11
-9.159864e-11
-9.268571e-11
-9.324472e-11
-9.343098e-11
-9.342181e-11
-9.323281e-11
-9.267113e-11
0.000000e+00
-3.043197e-11
-6.691915e-11
-9.742551e-11
-1.219677e-10
-1.409388e-10
-1.552556e-10
-1.658020e-10
-1.733700e-10
-1.785900e-10
-1.820293e-10
-1.841463e-10
-1.853604e-10
-1.860123e-10
-1.863629e-10
-1.864837e-10
-1.863255e-10
0.000000e+00
-4.086835e-11
-9.631179e-11
-1.415014e-10
-1.777493e-10
-2.064009e-10
-2.285042e-10
-2.451409e-10
-2.573004e-10
-2.658837e-10
-2.716922e-10
-2.754324e-10
-2.777205e-10
-2.790483e-10
-2.797827e-10
-2.801169e-10
-2.801625e-10
0.000000e+00
-6.009875e-11
-1.242845e-10
-1.811362e-10
-2.291597e-10
-2.681518e-10
-2.988073e-10
-3.222371e-10
-3.396472e-10
-3.521737e-10
-3.608970e-10
-3.667226e-10
-3.704506e-10
-3.726811e-10
-3.738560e-10
-3.743098e-10
-3.743801e-10
0.000000e+00
5.456505e-11
9.807840e-11
1.437513e-10
1.985820e-10
2.631376e-10
3.360944e-10
4.157445e-10
5.004541e-10
5.888623e-10
6.799400e-10
7.729931e-10
8.677171e-10
9.647666e-10
1.066724e-09
1.174935e-09
1.284553e-09
0.000000e+00
2.933536e-11
7.185738e-11
1.205912e-10
1.795914e-10
2.481400e-10
3.246227e-10
4.071978e-10
4.942556e-10
5.845188e-10
6.770005e-10
7.710729e-10
8.664737e-10
9.634911e-10
1.063385e-09
1.168583e-09
1.276413e-09
0.000000e+00
1.446709e-11
5.127014e-11
1.025085e-10
1.649005e-10
2.367569e-10
3.160438e-10
4.009015e-10
4.897851e-10
5.814736e-10
6.750545e-10
7.699364e-10
8.658055e-10
9.624917e-10
1.060117e-09
1.161831e-09
1.266769e-09
0.000000e+00
8.228627e-12
4.155331e-11
9.302749e-11
1.571955e-10
2.308667e-10
3.116776e-10
3.977517e-10
4.875992e-10
5.800501e-10
6.742202e-10
7.694976e-10
8.654707e-10
9.616986e-10
1.058088e-09
1.157033e-09
1.258314e-09
0.000000e+00
6.645838e-12
3.890152e-11
9.016000e-11
1.548254e-10
2.290770e-10
3.103764e-10
3.968423e-10
4.870158e-10
5.797223e-10
6.740878e-10
7.694526e-10
8.653265e-10
9.612720e-10
1.057134e-09
1.154285e-09
1.252299e-09
0.000000e+00
8.242746e-12
4.157260e-11
9.305548e-11
1.572309e-10
2.309194e-10
3.117617e-10
3.978884e-10
4.878176e-10
5.803561e-10
6.745889e-10
7.698127e-10
8.655092e-10
9.612621e-10
1.056914e-09
1.152958e-09
1.248834e-09
0.000000e+00
1.448659e-11
5.130002e-11
1.025594e-10
1.649622e-10
2.368633e-10
3.162161e-10
4.011744e-10
4.902177e-10
5.820733e-10
6.757956e-10
7.706243e-10
8.660042e-10
9.615341e-10
1.056980e-09
1.152369e-09
1.247214e-09
0.000000e+00
2.936925e-11
7.190767e-11
1.206781e-10
1.796932e-10
2.483008e-10
3.248653e-10
4.075649e-10
4.948020e-10
5.852620e-10
6.779131e-10
7.719503e-10
8.667781e-10
9.619351e-10
1.057130e-09
1.152144e-09
1.246673e-09
0.000000e+00
5.460708e-11
9.815104e-11
1.438607e-10
1.987230e-10
2.633259e-10
3.363583e-10
4.161161e-10
5.009703e-10
5.895385e-10
6.807394e-10
7.737083e-10
8.677827e-10
9.624568e-10
1.057343e-09
1.152130e-09
1.246586e-09


2.086040e-01
2.086040e-01
2.086040e-01
2.086040e-01
2.086040e-01
2.086040e-01
2.086040e-01
2.086040e-01
2.086040e-01
2.086040e-01
2.086040e-01
2.086040e-01
2.086040e-01
2.086040e-01
2.086040e-01
2.086040e-01
2.086040e-01
2.086040e-01
2.086040e-01
2.086040e-01
2.086040e-01
2.086040e-01
2.086040e-01
2.086040e-01
2.086040e-01
2.086040e-01
2.086040e-01
2.086040e-01
2.086040e-01
2.086040e-01
2.086040e-01
2.086040e-01
2.086040e-01
2.086040e-01
2.086040e-01
2.086040e-01
2.086040e-01
2.086040e-01
2.086040e-01
2.086040e-01
2.086040e-01
2.086040e-01
2.086040e-01
2.086040e-01
2.086040e-01
2.086040e-01
2.086040e-01
2.086040e-01
2.086040e-01
2.086040e-01
2.086040e-01
2.086040e-01
2.086040e-01
2.086040e-01
2.086040e-01
2.086040e-01
2.086040e-01
2.086040e-01
2.086040e-01
2.086040e-01
2.086040e-01
2.086040e-01
2.086040e-01
2.086040e-01
2.086040e-01
2.086040e-01
2.086040e-01
2.086040e-01
2.086040e-01
2.086040e-01
2.086040e-01
2.086040e-01
2.086040e-01
2.086040e-01
2.086040e-01
2.086040e-01
2.086040e-01
2.086040e-01
2.086040e-01
2.086040e-01
2.086040e-01
2.086040e-01
2.086040e-01
2.086040e-01
2.086040e-01
2.086040e-01
2.086040e-01
2.086040e-01
2.086040e-01
2.086040e-01
2.086040e-01
2.086040e-01
2.086040e-01
2.086040e-01
2.086040e-01
2.086040e-01
2.086040e-01
2.086040e-01
2.086040e-01
2.086040e-01
2.086040e-01
2.086040e-01
2.086040e-01
2.086040e-01
2.086040e-01
2.086040e-01
2.086040e-01
2.086040e-01
2.086040e-01
2.086040e-01
2.086040e-01
2.086040e-01
2.086040e-01
2.086040e-01
2.086040e-01
2.086040e-01
2.086040e-01
2.086040e-01
2.086040e-01
2.086040e-01
2.086040e-01
2.086040e-01
2.086040e-01
2.086040e-01
2.086040e-01
2.086040e-01
2.086040e-01
2.086040e-01


9.885327e-01
9.901589e-01
9.916632e-01
9.928212e-01
9.938961e-01
9.948872e-01
9.957902e-01
9.965944e-01
9.972915e-01
9.978745e-01
9.983381e-01
9.986777e-01
9.988888e-01
9.989641e-01
9.990184e-01
9.956672e-01
9.956617e-01
9.949165e-01
9.953960e-01
9.960217e-01
9.966051e-01
9.971353e-01
9.976153e-01
9.980501e-01
9.984437e-01
9.988003e-01
9.991238e-01
9.994168e-01
9.996724e-01
9.998397e-01
9.994165e-01
9.936798e-01
9.984926e-01
9.980646e-01
9.979491e-01
9.981116e-01
9.983254e-01
9.985325e-01
9.987248e-01
9.989065e-01
9.990825e-01
9.992541e-01
9.994143e-01
9.995384e-01
9.995643e-01
9.993409e-01
9.985303e-01
9.970724e-01
9.996932e-01
9.993811e-01
9.991882e-01
9.991393e-01
9.991588e-01
9.991916e-01
9.992244e-01
9.992563e-01
9.992877e-01
9.993140e-01
9.993213e-01
9.992823e-01
9.991583e-01
9.989359e-01
9.987472e-01
9.986995e-01
9.996944e-01
9.993827e-01
9.991897e-01
9.991390e-01
9.991540e-01
9.991776e-01
9.991940e-01
9.991996e-01
9.991920e-01
9.991679e-01
9.991229e-01
9.990580e-01
9.989963e-01
9.990085e-01
9.991831e-01
9.994853e-01
9.984948e-01
9.980679e-01
9.979522e-01
9.981117e-01
9.983171e-01
9.985069e-01
9.986675e-01
9.987965e-01
9.988932e-01
9.989583e-01
9.989994e-01
9.990397e-01
9.991242e-01
9.993014e-01
9.995675e-01
9.998427e-01
9.956613e-01
9.949162e-01
9.953953e-01
9.960199e-01
9.966005e-01
9.971249e-01
9.975937e-01
9.980088e-01
9.983705e-01
9.986797e-01
9.989414e-01
9.991700e-01
9.993902e-01
9.996209e-01
9.998368e-01
9.999727e-01
9.885249e-01
9.901466e-01
9.916482e-01
9.928043e-01
9.938809e-01
9.948817e-01
9.958089e-01
9.966602e-01
9.974358e-01
9.981344e-01
9.987475e-01
9.992561e-01
9.996345e-01
9.998679e-01
9.999741e-01
9.999995e-01
1 2 19 18
2 3 20 19
3 4 21 20
4 5 22 21
5 6 23 22
6 7 24 23
7 8 25 24
8 9 26 25
9 10 27 26
10 11 28 27
11 12 29 28
12 13 30 29
13 14 31 30
14 15 32 31
15 16 33 32
16 17 34 33
18 19 36 35
19 20 37 36
20 21 38 37
21 22 39 38
22 23 40 39
23 24 41 40
24 25 42 41
25 26 43 42
26 27 44 43
27 28 45 44
28 29 46 45
29 30 47 46
30 31 48 47
31 32 49 48
32 33 50 49
33 34 51 50
35 36 53 52
36 37 54 53
37 38 55 54
38 39 56 55
39 40 57 56
40 41 58 57
41 42 59 58
42 43 60 59
43 44 61 60
44 45 62 61
45 46 63 62
46 47 64 63
47 48 65 64
48 49 66 65
49 50 67 66
50 51 68 67
52 53 70 69
53 54 71 70
54 55 72 71
55 56 73 72
56 57 74 73
57 58 75 74
58 59 76 75
59 60 77 76
60 61 78 77
61 62 79 78
62 63 80 79
63 64 81 80
64 65 82 81
65 66 83 82
66 67 84 83
67 68 85 84
69 70 87 86
70 71 88 87
71 72 89 88
72 73 90 89
73 74 91 90
74 75 92 91
75 76 93 92
76 77 94 93
77 78 95 94
78 79 96 95
79 80 97 96
80 81 98 97
81 82 99 98
82 83 100 99
83 84 101 100
84 85 102 101
86 87 104 103
87 88 105 104
88 89 106 105
89 90 107 106
90 91 108 107
91 92 109 108
92 93 110 109
93 94 111 110
94 95 112 111
95 96 113 112
96 97 114 113
97 98 115 114
98 99 116 115
99 100 117 116
100 101 118 117
101 102 119 118
103 104 121 120
104 105 122 121
105 106 123 122
106 107 124 123
107 108 125 124
108 109 126 125
109 110 127 126
110 111 128 127
111 112 129 128
112 113 130 129
113 114 131 130
114 115 132 131
115 116 133 132
116 117 134 133
117 118 135 134
118 119 136 135
120 121 138 137
121 122 139 138
122 123 140 139
123 124 141 140
124 125 142 141
125 126 143 142
126 127 144 143
127 128 145 144
128 129 146 145
129 130 147 146
130 131 148 147
131 132 149 148
132 133 150 149
133 134 151 150
134 135 152 151
135 136 153 152
