TITLE = "Solution"
VARIABLES = x, y, u, v, psiu, psiv, t, stress
ZONE T="structure" N=153 E=128 F=FEBLOCK ET=QUADRILATERAL VARLOCATION=([7,8]=cellcentered)
0.000000e+00
1.250000e+01
2.500000e+01
3.750000e+01
5.000000e+01
6.250000e+01
7.500000e+01
8.750000e+01
1.000000e+02
1.125000e+02
1.250000e+02
1.375000e+02
1.500000e+02
1.625000e+02
1.750000e+02
1.875000e+02
2.000000e+02
0.000000e+00
1.250000e+01
2.500000e+01
3.750000e+01
5.000000e+01
6.250000e+01
7.500000e+01
8.750000e+01
1.000000e+02
1.125000e+02
1.250000e+02
1.375000e+02
1.500000e+02
1.625000e+02
1.750000e+02
1.875000e+02
2.000000e+02
0.000000e+00
1.250000e+01
2.500000e+01
3.750000e+01
5.000000e+01
6.250000e+01
7.500000e+01
8.750000e+01
1.000000e+02
1.125000e+02
1.250000e+02
1.375000e+02
1.500000e+02
1.625000e+02
1.750000e+02
1.875000e+02
2.000000e+02
0.000000e+00
1.250000e+01
2.500000e+01
3.750000e+01
5.000000e+01
6.250000e+01
7.500000e+01
8.750000e+01
1.000000e+02
1.125000e+02
1.250000e+02
1.375000e+02
1.500000e+02
1.625000e+02
1.750000e+02
1.875000e+02
2.000000e+02
0.000000e+00
1.250000e+01
2.500000e+01
3.750000e+01
5.000000e+01
6.250000e+01
7.500000e+01
8.750000e+01
1.000000e+02
1.125000e+02
1.250000e+02
1.375000e+02
1.500000e+02
1.625000e+02
1.750000e+02
1.875000e+02
2.000000e+02
0.000000e+00
1.250000e+01
2.500000e+01
3.750000e+01
5.000000e+01
6.250000e+01
7.500000e+01
8.750000e+01
1.000000e+02
1.125000e+02
1.250000e+02
1.375000e+02
1.500000e+02
1.625000e+02
1.750000e+02
1.875000e+02
2.000000e+02
0.000000e+00
1.250000e+01
2.500000e+01
3.750000e+01
5.000000e+01
6.250000e+01
7.500000e+01
8.750000e+01
1.000000e+02
1.125000e+02
1.250000e+02
1.375000e+02
1.500000e+02
1.625000e+02
1.750000e+02
1.875000e+02
2.000000e+02
0.000000e+00
1.250000e+01
2.500000e+01
3.750000e+01
5.000000e+01
6.250000e+01
7.500000e+01
8.750000e+01
1.000000e+02
1.125000e+02
1.250000e+02
1.375000e+02
1.500000e+02
1.625000e+02
1.750000e+02
1.875000e+02
2.000000e+02
0.000000e+00
1.250000e+01
2.500000e+01
3.750000e+01
5.000000e+01
6.250000e+01
7.500000e+01
8.750000e+01
1.000000e+02
1.125000e+02
1.250000e+02
1.375000e+02
1.500000e+02
1.625000e+02
1.750000e+02
1.875000e+02
2.000000e+02
0.000000e+00
0.000000e+00
0.000000e+00
0.000000e+00
0.000000e+00
0.000000e+00
0.000000e+00
0.000000e+00
0.000000e+00
0.000000e+00
0.000000e+00
0.000000e+00
0.000000e+00
0.000000e+00
0.000000e+00
0.000000e+00
0.000000e+00
1.250000e+01
1.250000e+01
1.250000e+01
1.250000e+01
1.250000e+01
1.250000e+01
1.250000e+01
1.250000e+01
1.250000e+01
1.250000e+01
1.250000e+01
1.250000e+01
1.250000e+01
1.250000e+01
1.250000e+01
1.250000e+01
1.250000e+01
2.500000e+01
2.500000e+01
2.500000e+01
2.500000e+01
2.500000e+01
2.500000e+01
2.500000e+01
2.500000e+01
2.500000e+01
2.500000e+01
2.500000e+01
2.500000e+01
2.500000e+01
2.500000e+01
2.500000e+01
2.500000e+01
2.500000e+01
3.750000e+01
3.750000e+01
3.750000e+01
3.750000e+01
3.750000e+01
3.750000e+01
3.750000e+01
3.750000e+01
3.750000e+01
3.750000e+01
3.750000e+01
3.750000e+01
3.750000e+01
3.750000e+01
3.750000e+01
3.750000e+01
3.750000e+01
5.000000e+01
5.000000e+01
5.000000e+01
5.000000e+01
5.000000e+01
5.000000e+01
5.000000e+01
5.000000e+01
5.000000e+01
5.000000e+01
5.000000e+01
5.000000e+01
5.000000e+01
5.000000e+01
5.000000e+01
5.000000e+01
5.000000e+01
6.250000e+01
6.250000e+01
6.250000e+01
6.250000e+01
6.250000e+01
6.250000e+01
6.250000e+01
6.250000e+01
6.250000e+01
6.250000e+01
6.250000e+01
6.250000e+01
6.250000e+01
6.250000e+01
6.250000e+01
6.250000e+01
6.250000e+01
7.500000e+01
7.500000e+01
7.500000e+01
7.500000e+01
7.500000e+01
7.500000e+01
7.500000e+01
7.500000e+01
7.500000e+01
7.500000e+01
7.500000e+01
7.500000e+01
7.500000e+01
7.500000e+01
7.500000e+01
7.500000e+01
7.500000e+01
8.750000e+01
8.750000e+01
8.750000e+01
8.750000e+01
8.750000e+01
8.750000e+01
8.750000e+01
8.750000e+01
8.750000e+01
8.750000e+01
8.750000e+01
8.750000e+01
8.750000e+01
8.750000e+01
8.750000e+01
8.750000e+01
8.750000e+01
1.000000e+02
1.000000e+02
1.000000e+02
1.000000e+02
1.000000e+02
1.000000e+02
1.000000e+02
1.000000e+02
1.000000e+02
1.000000e+02
1.000000e+02
1.000000e+02
1.000000e+02
1.000000e+02
1.000000e+02
1.000000e+02
1.000000e+02
0.000000e+00
-1.018580e+00
-1.878796e+00
-2.672819e+00
-3.419253e+00
-4.120809e+00
-4.771772e+00
-5.366933e+00
-5.910459e+00
-6.412167e+00
-6.877884e+00
-7.306497e+00
-7.699232e+00
-8.073806e+00
-8.473759e+00
-8.952947e+00
-9.306513e+00
0.000000e+00
-6.058042e-01
-1.258023e+00
-1.863328e+00
-2.428280e+00
-2.957027e+00
-3.446780e+00
-3.893951e+00
-4.301205e+00
-4.675207e+00
-5.018785e+00
-5.327043e+00
-5.591416e+00
-5.803749e+00
-5.947915e+00
-5.976770e+00
-6.085407e+00
0.000000e+00
-3.719543e-01
-7.668636e-01
-1.166372e+00
-1.546660e+00
-1.902642e+00
-2.231171e+00
-2.530304e+00
-2.800760e+00
-3.044162e+00
-3.258618e+00
-3.436772e+00
-3.567575e+00
-3.638003e+00
-3.637012e+00
-3.606515e+00
-3.724186e+00
0.000000e+00
-1.756454e-01
-3.637553e-01
-5.582052e-01
-7.491351e-01
-9.283389e-01
-1.092852e+00
-1.241323e+00
-1.372775e+00
-1.485590e+00
-1.576093e+00
-1.638368e+00
-1.665967e+00
-1.656421e+00
-1.626084e+00
-1.634530e+00
-1.726812e+00
0.000000e+00
-2.344112e-04
-4.607769e-04
-6.248094e-04
-5.900515e-04
-2.228225e-06
1.722394e-03
5.515878e-03
1.290870e-02
2.616873e-02
4.815174e-02
8.156679e-02
1.267982e-01
1.766557e-01
2.095183e-01
1.975733e-01
1.358845e-01
0.000000e+00
1.753308e-01
3.629450e-01
5.569136e-01
7.476857e-01
9.273831e-01
1.093842e+00
1.247301e+00
1.389210e+00
1.521563e+00
1.645738e+00
1.761331e+00
1.864662e+00
1.946558e+00
1.993314e+00
1.995612e+00
1.965476e+00
0.000000e+00
3.721368e-01
7.665819e-01
1.165515e+00
1.545670e+00
1.901348e+00
2.229261e+00
2.528405e+00
2.800228e+00
3.047006e+00
3.268868e+00
3.462153e+00
3.620315e+00
3.736140e+00
3.804289e+00
3.825952e+00
3.819542e+00
0.000000e+00
6.067959e-01
1.258701e+00
1.863809e+00
2.429689e+00
2.958821e+00
3.447287e+00
3.891920e+00
4.294079e+00
4.656475e+00
4.977333e+00
5.248095e+00
5.458262e+00
5.603192e+00
5.687246e+00
5.722196e+00
5.728670e+00
0.000000e+00
1.019971e+00
1.880117e+00
2.674739e+00
3.423649e+00
4.127447e+00
4.779102e+00
5.373763e+00
5.912937e+00
6.398852e+00
6.825800e+00
7.177524e+00
7.436211e+00
7.596129e+00
7.669628e+00
7.686236e+00
7.685398e+00
0.000000e+00
-6.123537e-01
-1.207338e+00
-1.985864e+00
-2.947690e+00
-4.090767e+00
-5.402356e+00
-6.869026e+00
-8.478746e+00
-1.022046e+01
-1.208231e+01
-1.405224e+01
-1.612407e+01
-1.830909e+01
-2.066583e+01
-2.337344e+01
-2.725434e+01
0.000000e+00
-3.755945e-01
-9.952728e-01
-1.781891e+00
-2.756516e+00
-3.912451e+00
-5.238610e+00
-6.719990e+00
-8.342594e+00
-1.009542e+01
-1.196857e+01
-1.395148e+01
-1.603676e+01
-1.823321e+01
-2.059135e+01
-2.328359e+01
-2.658308e+01
0.000000e+00
-2.830931e-01
-8.487642e-01
-1.636023e+00
-2.617708e+00
-3.783947e+00
-5.121388e+00
-6.614345e+00
-8.248242e+00
-1.001254e+01
-1.189867e+01
-1.389731e+01
-1.600140e+01
-1.821656e+01
-2.057711e+01
-2.312515e+01
-2.558098e+01
0.000000e+00
-2.457029e-01
-7.762423e-01
-1.549511e+00
-2.533427e+00
-3.706242e+00
-5.051556e+00
-6.553160e+00
-8.196882e+00
-9.972574e+00
-1.187191e+01
-1.388538e+01
-1.600369e+01
-1.822151e+01
-2.053146e+01
-2.285884e+01
-2.498228e+01
0.000000e+00
-2.358822e-01
-7.545854e-01
-1.521693e+00
-2.505443e+00
-3.681175e+00
-5.030335e+00
-6.536915e+00
-8.187254e+00
-9.971299e+00
-1.188018e+01
-1.390255e+01
-1.602317e+01
-1.822011e+01
-2.045174e+01
-2.263091e+01
-2.461840e+01
0.000000e+00
-2.456044e-01
-7.761770e-01
-1.549577e+00
-2.534350e+00
-3.709056e+00
-5.057486e+00
-6.564269e+00
-8.216159e+00
-1.000312e+01
-1.191554e+01
-1.393918e+01
-1.605096e+01
-1.821523e+01
-2.038051e+01
-2.247696e+01
-2.442061e+01
0.000000e+00
-2.829522e-01
-8.486040e-01
-1.636036e+00
-2.619093e+00
-3.788425e+00
-5.131060e+00
-6.632724e+00
-8.280514e+00
-1.006437e+01
-1.197381e+01
-1.399149e+01
-1.608783e+01
-1.822032e+01
-2.033852e+01
-2.239212e+01
-2.433822e+01
0.000000e+00
-3.755082e-01
-9.950232e-01
-1.781904e+00
-2.758108e+00
-3.917451e+00
-5.249494e+00
-6.740840e+00
-8.379262e+00
-1.015438e+01
-1.205421e+01
-1.405884e+01
-1.613573e+01
-1.824119e+01
-2.032814e+01
-2.235807e+01
-2.432062e+01
0.000000e+00
-6.123942e-01
-1.207048e+00
-1.986176e+00
-2.949794e+00
-4.096052e+00
-5.413341e+00
-6.889768e+00
-8.514195e+00
-1.027541e+01
-1.215883e+01
-1.414232e+01
-1.619377e+01
-1.827265e+01
-2.033622e+01
-2.235179e+01
-2.432142e+01


0.000000e+00
5.180619e-06
1.077451e-05
1.573592e-05
1.978206e-05
2.284951e-05
2.505931e-05
2.656466e-05
2.753423e-05
2.811304e-05
2.830113e-05
2.805550e-05
2.754806e-05
2.711722e-05
2.695998e-05
2.704639e-05
2.724467e-05
0.000000e+00
3.645012e-06
8.591615e-06
1.259587e-05
1.569864e-05
1.797631e-05
1.954537e-05
2.055010e-05
2.115549e-05
2.149039e-05
2.154313e-05
2.127572e-05
2.083345e-05
2.045570e-05
2.027932e-05
2.035600e-05
2.057181e-05
0.000000e+00
2.844917e-06
6.135247e-06
8.804263e-06
1.091111e-05
1.245170e-05
1.346271e-05
1.405888e-05
1.437635e-05
1.450551e-05
1.447136e-05
1.429909e-05
1.407565e-05
1.390555e-05
1.384661e-05
1.392512e-05
1.407940e-05
0.000000e+00
1.573789e-06
3.130058e-06
4.427015e-06
5.487942e-06
6.281945e-06
6.793455e-06
7.082400e-06
7.230047e-06
7.287097e-06
7.290479e-06
7.278015e-06
7.276125e-06
7.287005e-06
7.286176e-06
7.281515e-06
7.291713e-06
0.000000e+00
-1.288220e-08
-2.822720e-08
-4.510419e-08
-6.097228e-08
-7.236025e-08
-7.695967e-08
-7.250927e-08
-5.445392e-08
-1.719510e-08
3.878600e-08
1.052789e-07
1.733900e-07
2.188469e-07
2.002213e-07
1.284205e-07
5.913870e-08
0.000000e+00
-1.593981e-06
-3.182765e-06
-4.518716e-06
-5.609636e-06
-6.428543e-06
-6.969825e-06
-7.281673e-06
-7.429186e-06
-7.464305e-06
-7.430333e-06
-7.359818e-06
-7.272036e-06
-7.199424e-06
-7.184600e-06
-7.220216e-06
-7.256183e-06
0.000000e+00
-2.851175e-06
-6.182007e-06
-8.901429e-06
-1.102457e-05
-1.257820e-05
-1.364690e-05
-1.430967e-05
-1.465755e-05
-1.481573e-05
-1.485324e-05
-1.476839e-05
-1.459722e-05
-1.443885e-05
-1.435637e-05
-1.433564e-05
-1.432941e-05
0.000000e+00
-3.641539e-06
-8.636141e-06
-1.269786e-05
-1.579845e-05
-1.806349e-05
-1.968807e-05
-2.075664e-05
-2.135561e-05
-2.167459e-05
-2.180477e-05
-2.171437e-05
-2.148210e-05
-2.128762e-05
-2.120345e-05
-2.118735e-05
-2.118346e-05
0.000000e+00
-5.185984e-06
-1.082178e-05
-1.583038e-05
-1.987178e-05
-2.292319e-05
-2.516946e-05
-2.670835e-05
-2.764001e-05
-2.816354e-05
-2.838239e-05
-2.829995e-05
-2.806048e-05
-2.790025e-05
-2.789688e-05
-2.795733e-05
-2.798584e-05
0.000000e+00
4.861536e-06
8.540690e-06
1.222524e-05
1.655898e-05
2.158379e-05
2.718173e-05
3.323389e-05
3.963201e-05
4.622619e-05
5.284005e-05
5.939132e-05
6.590106e-05
7.240274e-05
7.906980e-05
8.611465e-05
9.327648e-05
0.000000e+00
2.619557e-06
6.179858e-06
1.016058e-05
1.494547e-05
2.041111e-05
2.637678e-05
3.271390e-05
3.931652e-05
4.607494e-05
5.286979e-05
5.958639e-05
6.614948e-05
7.256624e-05
7.902364e-05
8.586227e-05
9.293193e-05
0.000000e+00
1.312103e-06
4.406043e-06
8.624950e-06
1.374729e-05
1.956268e-05
2.581829e-05
3.237570e-05
3.914005e-05
4.601535e-05
5.291349e-05
5.973135e-05
6.633872e-05
7.266896e-05
7.890813e-05
8.555414e-05
9.258050e-05
0.000000e+00
7.584332e-07
3.636469e-06
7.904961e-06
1.317891e-05
1.916701e-05
2.557346e-05
3.224545e-05
3.909575e-05
4.601856e-05
5.293434e-05
5.977931e-05
6.640512e-05
7.267901e-05
7.883248e-05
8.540962e-05
9.247423e-05
0.000000e+00
6.070444e-07
3.436248e-06
7.707095e-06
1.302064e-05
1.905348e-05
2.550232e-05
3.221076e-05
3.908656e-05
4.601466e-05
5.292405e-05
5.976805e-05
6.638563e-05
7.265496e-05
7.887302e-05
8.551585e-05
9.263465e-05
0.000000e+00
7.584109e-07
3.637323e-06
7.917651e-06
1.319437e-05
1.916714e-05
2.556521e-05
3.224488e-05
3.909295e-05
4.599573e-05
5.289426e-05
5.971479e-05
6.629014e-05
7.258974e-05
7.895186e-05
8.569237e-05
9.278535e-05
0.000000e+00
1.314643e-06
4.414976e-06
8.653189e-06
1.377797e-05
1.957400e-05
2.582514e-05
3.239770e-05
3.915635e-05
4.599834e-05
5.286088e-05
5.961883e-05
6.613313e-05
7.249081e-05
7.898817e-05
8.578672e-05
9.278309e-05
0.000000e+00
2.631387e-06
6.211005e-06
1.020684e-05
1.498472e-05
2.044173e-05
2.642138e-05
3.277086e-05
3.935555e-05
4.608817e-05
5.286401e-05
5.951854e-05
6.598139e-05
7.240536e-05
7.899857e-05
8.581439e-05
9.271983e-05
0.000000e+00
4.887789e-06
8.601771e-06
1.228842e-05
1.659617e-05
2.162820e-05
2.726169e-05
3.330903e-05
3.966674e-05
4.625795e-05
5.290877e-05
5.944642e-05
6.587926e-05
7.236039e-05
7.900862e-05
8.582444e-05
9.269230e-05


2.985641e+00
2.978932e+00
2.974951e+00
2.997390e+00
3.048398e+00
3.090683e+00
3.117317e+00
3.172451e+00
3.294489e+00
3.451465e+00
3.553186e+00
3.534255e+00
3.415284e+00
3.280452e+00
3.193765e+00
3.152658e+00
2.918756e+00
2.936391e+00
2.971033e+00
3.026581e+00
3.090003e+00
3.134718e+00
3.158936e+00
3.200799e+00
3.293976e+00
3.413715e+00
3.490283e+00
3.479271e+00
3.402898e+00
3.329023e+00
3.287513e+00
3.266671e+00
2.896230e+00
2.939017e+00
3.020382e+00
3.109817e+00
3.180100e+00
3.221243e+00
3.237303e+00
3.254376e+00
3.299476e+00
3.363957e+00
3.413828e+00
3.432358e+00
3.431824e+00
3.439387e+00
3.438081e+00
3.415557e+00
2.935532e+00
2.993456e+00
3.099438e+00
3.203374e+00
3.271856e+00
3.308240e+00
3.319878e+00
3.322950e+00
3.340528e+00
3.379466e+00
3.431826e+00
3.490754e+00
3.542526e+00
3.570001e+00
3.539904e+00
3.480596e+00
2.934478e+00
2.991591e+00
3.098433e+00
3.205051e+00
3.275997e+00
3.316092e+00
3.335701e+00
3.350737e+00
3.383817e+00
3.443866e+00
3.520925e+00
3.593766e+00
3.628096e+00
3.597125e+00
3.498481e+00
3.401745e+00
2.894732e+00
2.934655e+00
3.017803e+00
3.113551e+00
3.187767e+00
3.234171e+00
3.265310e+00
3.305527e+00
3.377826e+00
3.478146e+00
3.571685e+00
3.615968e+00
3.582851e+00
3.478276e+00
3.343619e+00
3.248159e+00
2.920074e+00
2.932848e+00
2.968439e+00
3.030435e+00
3.094042e+00
3.136774e+00
3.168371e+00
3.222036e+00
3.321021e+00
3.445055e+00
3.534323e+00
3.536067e+00
3.447467e+00
3.314364e+00
3.195427e+00
3.130438e+00
2.990944e+00
2.977309e+00
2.973313e+00
3.001030e+00
3.048217e+00
3.081336e+00
3.105546e+00
3.157292e+00
3.259670e+00
3.384791e+00
3.463022e+00
3.442454e+00
3.338037e+00
3.212813e+00
3.122035e+00
3.080299e+00


-1.322756e+00
-1.002489e+00
-7.107690e-01
-5.061009e-01
-3.267869e-01
-1.420305e-01
4.483517e-02
2.038397e-01
3.239761e-01
4.232260e-01
5.237716e-01
6.241899e-01
7.026899e-01
7.421008e-01
7.686884e-01
8.128695e-03
1.391042e-01
-1.164372e-02
6.637341e-02
1.661206e-01
2.598471e-01
3.567500e-01
4.547667e-01
5.412298e-01
6.122899e-01
6.793071e-01
7.551877e-01
8.383673e-01
9.139530e-01
9.600331e-01
8.543307e-01
-5.366937e-01
7.092731e-01
6.194871e-01
5.801098e-01
5.946958e-01
6.258148e-01
6.626512e-01
7.016256e-01
7.389548e-01
7.729766e-01
8.068047e-01
8.427167e-01
8.737556e-01
8.799692e-01
8.199539e-01
6.099882e-01
2.187546e-01
9.381731e-01
8.696220e-01
8.192393e-01
7.991771e-01
7.978415e-01
8.027192e-01
8.101952e-01
8.178417e-01
8.222197e-01
8.213169e-01
8.137443e-01
7.948118e-01
7.563030e-01
6.960564e-01
6.496971e-01
6.328482e-01
9.384601e-01
8.700114e-01
8.194664e-01
7.985355e-01
7.954708e-01
7.972951e-01
7.994999e-01
7.988740e-01
7.912829e-01
7.745646e-01
7.500738e-01
7.226787e-01
7.039047e-01
7.143566e-01
7.719501e-01
8.583021e-01
7.095819e-01
6.208082e-01
5.814414e-01
5.942973e-01
6.230639e-01
6.554001e-01
6.849881e-01
7.067496e-01
7.173799e-01
7.181580e-01
7.155648e-01
7.208527e-01
7.486666e-01
8.071087e-01
8.857511e-01
9.600527e-01
1.375453e-01
-9.609351e-03
6.822388e-02
1.650505e-01
2.591773e-01
3.570265e-01
4.516613e-01
5.319770e-01
5.950416e-01
6.484686e-01
7.031024e-01
7.644691e-01
8.318320e-01
9.007576e-01
9.596039e-01
9.936602e-01
-1.328956e+00
-1.001381e+00
-7.116966e-01
-5.136715e-01
-3.322889e-01
-1.410851e-01
4.950787e-02
2.174106e-01
3.607913e-01
4.981756e-01
6.450424e-01
7.894779e-01
9.016563e-01
9.669266e-01
9.940043e-01
9.998947e-01
1 2 19 18
2 3 20 19
3 4 21 20
4 5 22 21
5 6 23 22
6 7 24 23
7 8 25 24
8 9 26 25
9 10 27 26
10 11 28 27
11 12 29 28
12 13 30 29
13 14 31 30
14 15 32 31
15 16 33 32
16 17 34 33
18 19 36 35
19 20 37 36
20 21 38 37
21 22 39 38
22 23 40 39
23 24 41 40
24 25 42 41
25 26 43 42
26 27 44 43
27 28 45 44
28 29 46 45
29 30 47 46
30 31 48 47
31 32 49 48
32 33 50 49
33 34 51 50
35 36 53 52
36 37 54 53
37 38 55 54
38 39 56 55
39 40 57 56
40 41 58 57
41 42 59 58
42 43 60 59
43 44 61 60
44 45 62 61
45 46 63 62
46 47 64 63
47 48 65 64
48 49 66 65
49 50 67 66
50 51 68 67
52 53 70 69
53 54 71 70
54 55 72 71
55 56 73 72
56 57 74 73
57 58 75 74
58 59 76 75
59 60 77 76
60 61 78 77
61 62 79 78
62 63 80 79
63 64 81 80
64 65 82 81
65 66 83 82
66 67 84 83
67 68 85 84
69 70 87 86
70 71 88 87
71 72 89 88
72 73 90 89
73 74 91 90
74 75 92 91
75 76 93 92
76 77 94 93
77 78 95 94
78 79 96 95
79 80 97 96
80 81 98 97
81 82 99 98
82 83 100 99
83 84 101 100
84 85 102 101
86 87 104 103
87 88 105 104
88 89 106 105
89 90 107 106
90 91 108 107
91 92 109 108
92 93 110 109
93 94 111 110
94 95 112 111
95 96 113 112
96 97 114 113
97 98 115 114
98 99 116 115
99 100 117 116
100 101 118 117
101 102 119 118
103 104 121 120
104 105 122 121
105 106 123 122
106 107 124 123
107 108 125 124
108 109 126 125
109 110 127 126
110 111 128 127
111 112 129 128
112 113 130 129
113 114 131 130
114 115 132 131
115 116 133 132
116 117 134 133
117 118 135 134
118 119 136 135
120 121 138 137
121 122 139 138
122 123 140 139
123 124 141 140
124 125 142 141
125 126 143 142
126 127 144 143
127 128 145 144
128 129 146 145
129 130 147 146
130 131 148 147
131 132 149 148
132 133 150 149
133 134 151 150
134 135 152 151
135 136 153 152
