TITLE = "Solution"
VARIABLES = x, y, u, v, psiu, psiv, t, stress
ZONE T="structure" N=153 E=128 F=FEBLOCK ET=QUADRILATERAL VARLOCATION=([7,8]=cellcentered)
0.000000e+00
1.250000e+01
2.500000e+01
3.750000e+01
5.000000e+01
6.250000e+01
7.500000e+01
8.750000e+01
1.000000e+02
1.125000e+02
1.250000e+02
1.375000e+02
1.500000e+02
1.625000e+02
1.750000e+02
1.875000e+02
2.000000e+02
0.000000e+00
1.250000e+01
2.500000e+01
3.750000e+01
5.000000e+01
6.250000e+01
7.500000e+01
8.750000e+01
1.000000e+02
1.125000e+02
1.250000e+02
1.375000e+02
1.500000e+02
1.625000e+02
1.750000e+02
1.875000e+02
2.000000e+02
0.000000e+00
1.250000e+01
2.500000e+01
3.750000e+01
5.000000e+01
6.250000e+01
7.500000e+01
8.750000e+01
1.000000e+02
1.125000e+02
1.250000e+02
1.375000e+02
1.500000e+02
1.625000e+02
1.750000e+02
1.875000e+02
2.000000e+02
0.000000e+00
1.250000e+01
2.500000e+01
3.750000e+01
5.000000e+01
6.250000e+01
7.500000e+01
8.750000e+01
1.000000e+02
1.125000e+02
1.250000e+02
1.375000e+02
1.500000e+02
1.625000e+02
1.750000e+02
1.875000e+02
2.000000e+02
0.000000e+00
1.250000e+01
2.500000e+01
3.750000e+01
5.000000e+01
6.250000e+01
7.500000e+01
8.750000e+01
1.000000e+02
1.125000e+02
1.250000e+02
1.375000e+02
1.500000e+02
1.625000e+02
1.750000e+02
1.875000e+02
2.000000e+02
0.000000e+00
1.250000e+01
2.500000e+01
3.750000e+01
5.000000e+01
6.250000e+01
7.500000e+01
8.750000e+01
1.000000e+02
1.125000e+02
1.250000e+02
1.375000e+02
1.500000e+02
1.625000e+02
1.750000e+02
1.875000e+02
2.000000e+02
0.000000e+00
1.250000e+01
2.500000e+01
3.750000e+01
5.000000e+01
6.250000e+01
7.500000e+01
8.750000e+01
1.000000e+02
1.125000e+02
1.250000e+02
1.375000e+02
1.500000e+02
1.625000e+02
1.750000e+02
1.875000e+02
2.000000e+02
0.000000e+00
1.250000e+01
2.500000e+01
3.750000e+01
5.000000e+01
6.250000e+01
7.500000e+01
8.750000e+01
1.000000e+02
1.125000e+02
1.250000e+02
1.375000e+02
1.500000e+02
1.625000e+02
1.750000e+02
1.875000e+02
2.000000e+02
0.000000e+00
1.250000e+01
2.500000e+01
3.750000e+01
5.000000e+01
6.250000e+01
7.500000e+01
8.750000e+01
1.000000e+02
1.125000e+02
1.250000e+02
1.375000e+02
1.500000e+02
1.625000e+02
1.750000e+02
1.875000e+02
2.000000e+02
0.000000e+00
0.000000e+00
0.000000e+00
0.000000e+00
0.000000e+00
0.000000e+00
0.000000e+00
0.000000e+00
0.000000e+00
0.000000e+00
0.000000e+00
0.000000e+00
0.000000e+00
0.000000e+00
0.000000e+00
0.000000e+00
0.000000e+00
1.250000e+01
1.250000e+01
1.250000e+01
1.250000e+01
1.250000e+01
1.250000e+01
1.250000e+01
1.250000e+01
1.250000e+01
1.250000e+01
1.250000e+01
1.250000e+01
1.250000e+01
1.250000e+01
1.250000e+01
1.250000e+01
1.250000e+01
2.500000e+01
2.500000e+01
2.500000e+01
2.500000e+01
2.500000e+01
2.500000e+01
2.500000e+01
2.500000e+01
2.500000e+01
2.500000e+01
2.500000e+01
2.500000e+01
2.500000e+01
2.500000e+01
2.500000e+01
2.500000e+01
2.500000e+01
3.750000e+01
3.750000e+01
3.750000e+01
3.750000e+01
3.750000e+01
3.750000e+01
3.750000e+01
3.750000e+01
3.750000e+01
3.750000e+01
3.750000e+01
3.750000e+01
3.750000e+01
3.750000e+01
3.750000e+01
3.750000e+01
3.750000e+01
5.000000e+01
5.000000e+01
5.000000e+01
5.000000e+01
5.000000e+01
5.000000e+01
5.000000e+01
5.000000e+01
5.000000e+01
5.000000e+01
5.000000e+01
5.000000e+01
5.000000e+01
5.000000e+01
5.000000e+01
5.000000e+01
5.000000e+01
6.250000e+01
6.250000e+01
6.250000e+01
6.250000e+01
6.250000e+01
6.250000e+01
6.250000e+01
6.250000e+01
6.250000e+01
6.250000e+01
6.250000e+01
6.250000e+01
6.250000e+01
6.250000e+01
6.250000e+01
6.250000e+01
6.250000e+01
7.500000e+01
7.500000e+01
7.500000e+01
7.500000e+01
7.500000e+01
7.500000e+01
7.500000e+01
7.500000e+01
7.500000e+01
7.500000e+01
7.500000e+01
7.500000e+01
7.500000e+01
7.500000e+01
7.500000e+01
7.500000e+01
7.500000e+01
8.750000e+01
8.750000e+01
8.750000e+01
8.750000e+01
8.750000e+01
8.750000e+01
8.750000e+01
8.750000e+01
8.750000e+01
8.750000e+01
8.750000e+01
8.750000e+01
8.750000e+01
8.750000e+01
8.750000e+01
8.750000e+01
8.750000e+01
1.000000e+02
1.000000e+02
1.000000e+02
1.000000e+02
1.000000e+02
1.000000e+02
1.000000e+02
1.000000e+02
1.000000e+02
1.000000e+02
1.000000e+02
1.000000e+02
1.000000e+02
1.000000e+02
1.000000e+02
1.000000e+02
1.000000e+02
0.000000e+00
-9.371092e-01
-1.646078e+00
-2.348935e+00
-3.036969e+00
-3.694405e+00
-4.369601e+00
-5.041147e+00
-5.700408e+00
-6.368662e+00
-7.040446e+00
-7.708219e+00
-8.402769e+00
-9.170577e+00
-1.000010e+01
-1.072277e+01
-1.117241e+01
0.000000e+00
-4.441273e-01
-9.290327e-01
-1.432472e+00
-1.950573e+00
-2.445522e+00
-2.953964e+00
-3.461330e+00
-3.957059e+00
-4.457285e+00
-4.958094e+00
-5.448694e+00
-5.942169e+00
-6.443238e+00
-6.836193e+00
-6.939510e+00
-7.112356e+00
0.000000e+00
-1.802588e-01
-4.125672e-01
-7.207526e-01
-1.062303e+00
-1.397087e+00
-1.745067e+00
-2.092069e+00
-2.432063e+00
-2.771725e+00
-3.104483e+00
-3.418110e+00
-3.699687e+00
-3.914332e+00
-3.989788e+00
-3.975822e+00
-4.127063e+00
0.000000e+00
-7.919524e-02
-1.730623e-01
-3.121770e-01
-4.660359e-01
-6.345146e-01
-8.091750e-01
-9.825099e-01
-1.153752e+00
-1.320283e+00
-1.475048e+00
-1.602968e+00
-1.678289e+00
-1.676278e+00
-1.609801e+00
-1.599906e+00
-1.723556e+00
0.000000e+00
-2.344023e-03
-4.846445e-03
-7.303905e-03
-9.355250e-03
-1.033422e-02
-9.318191e-03
-4.934540e-03
4.849236e-03
2.307001e-02
5.578695e-02
1.136944e-01
2.061301e-01
3.291239e-01
4.407912e-01
4.655334e-01
3.668800e-01
0.000000e+00
7.514117e-02
1.647661e-01
2.994202e-01
4.497011e-01
6.163112e-01
7.923525e-01
9.734924e-01
1.163568e+00
1.366514e+00
1.583771e+00
1.810130e+00
2.031549e+00
2.228402e+00
2.363814e+00
2.395044e+00
2.331563e+00
0.000000e+00
1.785401e-01
4.087171e-01
7.145356e-01
1.054582e+00
1.389234e+00
1.738719e+00
2.091517e+00
2.444633e+00
2.806028e+00
3.171152e+00
3.526756e+00
3.849953e+00
4.110302e+00
4.277729e+00
4.334668e+00
4.316696e+00
0.000000e+00
4.448022e-01
9.293339e-01
1.431867e+00
1.949594e+00
2.443793e+00
2.949320e+00
3.452649e+00
3.943086e+00
4.431896e+00
4.913522e+00
5.372836e+00
5.785555e+00
6.110467e+00
6.316638e+00
6.406650e+00
6.423082e+00
0.000000e+00
9.393540e-01
1.649671e+00
2.353828e+00
3.043768e+00
3.701699e+00
4.372945e+00
5.035525e+00
5.677895e+00
6.312837e+00
6.931092e+00
7.514749e+00
8.028913e+00
8.404060e+00
8.598369e+00
8.648817e+00
8.648712e+00
0.000000e+00
-5.913832e-01
-1.287996e+00
-2.208179e+00
-3.296667e+00
-4.547896e+00
-5.974275e+00
-7.567306e+00
-9.329913e+00
-1.126986e+01
-1.338358e+01
-1.567117e+01
-1.814914e+01
-2.083631e+01
-2.375620e+01
-2.711079e+01
-3.208290e+01
0.000000e+00
-3.882686e-01
-1.118514e+00
-2.027846e+00
-3.122662e+00
-4.373590e+00
-5.797454e+00
-7.393463e+00
-9.156811e+00
-1.109572e+01
-1.321188e+01
-1.550035e+01
-1.797149e+01
-2.066116e+01
-2.362774e+01
-2.701573e+01
-3.108167e+01
0.000000e+00
-3.507934e-01
-1.016253e+00
-1.917022e+00
-3.003391e+00
-4.250365e+00
-5.673854e+00
-7.270901e+00
-9.035987e+00
-1.097848e+01
-1.310174e+01
-1.540041e+01
-1.788478e+01
-2.060659e+01
-2.361779e+01
-2.684656e+01
-2.987006e+01
0.000000e+00
-3.894187e-01
-1.003322e+00
-1.876893e+00
-2.942605e+00
-4.184140e+00
-5.606392e+00
-7.203608e+00
-8.973447e+00
-1.092382e+01
-1.306004e+01
-1.537993e+01
-1.788589e+01
-2.061078e+01
-2.355805e+01
-2.652482e+01
-2.911444e+01
0.000000e+00
-4.028474e-01
-1.012164e+00
-1.868459e+00
-2.928951e+00
-4.169167e+00
-5.592576e+00
-7.193137e+00
-8.969906e+00
-1.092941e+01
-1.307855e+01
-1.541410e+01
-1.792340e+01
-2.060796e+01
-2.342087e+01
-2.617470e+01
-2.852515e+01
0.000000e+00
-3.891440e-01
-1.004089e+00
-1.879876e+00
-2.949919e+00
-4.197997e+00
-5.628501e+00
-7.236355e+00
-9.019911e+00
-1.098586e+01
-1.313846e+01
-1.547178e+01
-1.796607e+01
-2.059497e+01
-2.328650e+01
-2.587416e+01
-2.810538e+01
0.000000e+00
-3.504669e-01
-1.017792e+00
-1.922323e+00
-3.015737e+00
-4.273534e+00
-5.711119e+00
-7.326150e+00
-9.113716e+00
-1.108074e+01
-1.322790e+01
-1.554731e+01
-1.801913e+01
-2.059865e+01
-2.319786e+01
-2.567607e+01
-2.788955e+01
0.000000e+00
-3.880499e-01
-1.120204e+00
-2.033827e+00
-3.136605e+00
-4.399554e+00
-5.839618e+00
-7.456330e+00
-9.244361e+00
-1.120914e+01
-1.334846e+01
-1.565236e+01
-1.810141e+01
-2.064182e+01
-2.317542e+01
-2.558985e+01
-2.783540e+01
0.000000e+00
-5.915795e-01
-1.289868e+00
-2.214517e+00
-3.311100e+00
-4.573935e+00
-6.015916e+00
-7.629058e+00
-9.414215e+00
-1.137608e+01
-1.350797e+01
-1.579795e+01
-1.822114e+01
-2.071810e+01
-2.319870e+01
-2.557426e+01
-2.783532e+01


0.000000e+00
1.533628e-05
2.671052e-05
3.994318e-05
5.602426e-05
7.083192e-05
8.515858e-05
1.007065e-04
1.158875e-04
1.305864e-04
1.456401e-04
1.616748e-04
1.782555e-04
1.919813e-04
2.001904e-04
2.057383e-04
2.127764e-04
0.000000e+00
1.080001e-05
2.049041e-05
2.973311e-05
4.248971e-05
5.352929e-05
6.367337e-05
7.515795e-05
8.652830e-05
9.679197e-05
1.070907e-04
1.181702e-04
1.292895e-04
1.370129e-04
1.395474e-04
1.438880e-04
1.499841e-04
0.000000e+00
8.499875e-06
1.475676e-05
2.036313e-05
2.885203e-05
3.576849e-05
4.218953e-05
4.942178e-05
5.640692e-05
6.253511e-05
6.841797e-05
7.412444e-05
7.893081e-05
8.119059e-05
8.221730e-05
8.524595e-05
8.984560e-05
0.000000e+00
4.393158e-06
6.260435e-06
9.742869e-06
1.302514e-05
1.622122e-05
1.941266e-05
2.259548e-05
2.524105e-05
2.768443e-05
2.947793e-05
3.016737e-05
2.988485e-05
2.964684e-05
3.056088e-05
3.370386e-05
3.882406e-05
0.000000e+00
-4.275671e-08
-1.052474e-07
-1.930560e-07
-3.444217e-07
-5.484328e-07
-8.099677e-07
-1.219734e-06
-1.916847e-06
-2.992657e-06
-4.679869e-06
-6.933132e-06
-9.367291e-06
-1.114942e-05
-1.093322e-05
-8.694394e-06
-5.062668e-06
0.000000e+00
-4.451752e-06
-6.394749e-06
-1.006596e-05
-1.358061e-05
-1.704869e-05
-2.060388e-05
-2.431891e-05
-2.761436e-05
-3.118845e-05
-3.506658e-05
-3.914553e-05
-4.292991e-05
-4.561823e-05
-4.721313e-05
-4.753144e-05
-4.617313e-05
0.000000e+00
-8.435710e-06
-1.474863e-05
-2.055353e-05
-2.914779e-05
-3.611967e-05
-4.287567e-05
-5.033400e-05
-5.702069e-05
-6.290547e-05
-6.918905e-05
-7.518015e-05
-8.013723e-05
-8.385003e-05
-8.633861e-05
-8.780051e-05
-8.808693e-05
0.000000e+00
-1.070092e-05
-2.040175e-05
-2.978018e-05
-4.249298e-05
-5.337888e-05
-6.376618e-05
-7.546317e-05
-8.636427e-05
-9.628627e-05
-1.066907e-04
-1.164248e-04
-1.239187e-04
-1.289191e-04
-1.316342e-04
-1.326509e-04
-1.328588e-04
0.000000e+00
-1.531302e-05
-2.665492e-05
-3.989817e-05
-5.579453e-05
-7.027951e-05
-8.449823e-05
-1.000015e-04
-1.147076e-04
-1.293333e-04
-1.450233e-04
-1.596383e-04
-1.708881e-04
-1.773749e-04
-1.797396e-04
-1.800056e-04
-1.799009e-04
0.000000e+00
1.307029e-05
2.214820e-05
3.568818e-05
5.339997e-05
7.332727e-05
9.803825e-05
1.277094e-04
1.607786e-04
1.980648e-04
2.406852e-04
2.887703e-04
3.417088e-04
3.984103e-04
4.622118e-04
5.332298e-04
6.063617e-04
0.000000e+00
7.732641e-06
1.757305e-05
2.940831e-05
4.664074e-05
6.723327e-05
9.178797e-05
1.210494e-04
1.544407e-04
1.919479e-04
2.343278e-04
2.820236e-04
3.355495e-04
3.941787e-04
4.570710e-04
5.253820e-04
5.956444e-04
0.000000e+00
4.263046e-06
1.341058e-05
2.460911e-05
4.116369e-05
6.241391e-05
8.724428e-05
1.162416e-04
1.497706e-04
1.876667e-04
2.300267e-04
2.776665e-04
3.317015e-04
3.922549e-04
4.530882e-04
5.179858e-04
5.853685e-04
0.000000e+00
3.216492e-06
1.139707e-05
2.269718e-05
3.877989e-05
6.017459e-05
8.544981e-05
1.145179e-04
1.478658e-04
1.858316e-04
2.285423e-04
2.762778e-04
3.306636e-04
3.908527e-04
4.503011e-04
5.103963e-04
5.716740e-04
0.000000e+00
2.931771e-06
1.094451e-05
2.215764e-05
3.820951e-05
5.943307e-05
8.496867e-05
1.141630e-04
1.474050e-04
1.853133e-04
2.282973e-04
2.765313e-04
3.309396e-04
3.908631e-04
4.483492e-04
5.033268e-04
5.573501e-04
0.000000e+00
3.277276e-06
1.145621e-05
2.281944e-05
3.896096e-05
6.027612e-05
8.548268e-05
1.146703e-04
1.480163e-04
1.859246e-04
2.292540e-04
2.783033e-04
3.329881e-04
3.914371e-04
4.480847e-04
4.998861e-04
5.478136e-04
0.000000e+00
4.336589e-06
1.351164e-05
2.482565e-05
4.144861e-05
6.253058e-05
8.726518e-05
1.163636e-04
1.497858e-04
1.877732e-04
2.315960e-04
2.815470e-04
3.362479e-04
3.929437e-04
4.476364e-04
4.979621e-04
5.443862e-04
0.000000e+00
7.795242e-06
1.773193e-05
2.968915e-05
4.693393e-05
6.739601e-05
9.188896e-05
1.210738e-04
1.541686e-04
1.919120e-04
2.359949e-04
2.859412e-04
3.397549e-04
3.945852e-04
4.474014e-04
4.969977e-04
5.441171e-04
0.000000e+00
1.311963e-05
2.234886e-05
3.600494e-05
5.364787e-05
7.351758e-05
9.829746e-05
1.277522e-04
1.603687e-04
1.980935e-04
2.422109e-04
2.910780e-04
3.431192e-04
3.960021e-04
4.475380e-04
4.967662e-04
5.442308e-04


3.563556e+00
3.350509e+00
3.202352e+00
3.075793e+00
2.976476e+00
3.221006e+00
3.418598e+00
3.681244e+00
4.159581e+00
4.697994e+00
5.336486e+00
6.385543e+00
7.733380e+00
8.284740e+00
7.252503e+00
5.930053e+00
6.170918e+00
5.828862e+00
5.690726e+00
5.389618e+00
5.166818e+00
5.242291e+00
5.313364e+00
5.451704e+00
5.773262e+00
6.169909e+00
6.635988e+00
7.355218e+00
8.163591e+00
8.094278e+00
6.520035e+00
4.886208e+00
8.570070e+00
8.489520e+00
8.355005e+00
8.103155e+00
7.796038e+00
7.708598e+00
7.662106e+00
7.659086e+00
7.769943e+00
7.954147e+00
8.142187e+00
8.295083e+00
8.385996e+00
7.741765e+00
6.154549e+00
4.841574e+00
9.373131e+00
9.358477e+00
9.359318e+00
9.130504e+00
8.854513e+00
8.674876e+00
8.586439e+00
8.541783e+00
8.528035e+00
8.521895e+00
8.367952e+00
7.979837e+00
7.598583e+00
7.168228e+00
6.614575e+00
6.308050e+00
9.377660e+00
9.361745e+00
9.363161e+00
9.137629e+00
8.859505e+00
8.666480e+00
8.558579e+00
8.477458e+00
8.359486e+00
8.129916e+00
7.669797e+00
7.064883e+00
6.830937e+00
7.112791e+00
7.643774e+00
8.054486e+00
8.578973e+00
8.490988e+00
8.351700e+00
8.099361e+00
7.773301e+00
7.637931e+00
7.524403e+00
7.408282e+00
7.285634e+00
7.083150e+00
6.844713e+00
6.802331e+00
7.215353e+00
8.035981e+00
8.770763e+00
9.162733e+00
6.177602e+00
5.822088e+00
5.671696e+00
5.362834e+00
5.111255e+00
5.128536e+00
5.134772e+00
5.190469e+00
5.394080e+00
5.741672e+00
6.365252e+00
7.274464e+00
8.251325e+00
8.977613e+00
9.338738e+00
9.440993e+00
3.567741e+00
3.342273e+00
3.183322e+00
3.053559e+00
2.938664e+00
3.157747e+00
3.352127e+00
3.650538e+00
4.250591e+00
5.154500e+00
6.440912e+00
7.889600e+00
8.914892e+00
9.355628e+00
9.429119e+00
9.412259e+00


-6.788387e-01
-2.665726e-01
-2.769957e-01
-2.764271e-01
-1.687456e-01
-2.319744e-01
-2.238378e-01
-1.781592e-01
-2.073185e-01
-2.166733e-01
-1.878877e-01
-2.461981e-01
-4.034339e-01
-2.755955e-01
3.966900e-01
-7.936691e-01
5.902610e-01
4.214971e-01
3.039402e-01
2.341713e-01
2.805324e-01
2.297220e-01
2.212021e-01
2.384111e-01
2.158427e-01
2.119693e-01
2.543488e-01
3.085380e-01
4.110232e-01
6.773809e-01
7.170009e-01
-1.122718e+00
7.837331e-01
5.693540e-01
3.437651e-01
2.845510e-01
2.901680e-01
2.573892e-01
2.578145e-01
2.678264e-01
2.595329e-01
2.631794e-01
3.051388e-01
3.800016e-01
4.173448e-01
3.028246e-01
7.631061e-02
-2.618050e-01
7.963354e-01
6.217406e-01
3.727260e-01
2.598611e-01
2.173417e-01
1.935325e-01
1.963692e-01
2.093890e-01
2.153799e-01
2.169252e-01
2.268691e-01
2.224918e-01
9.377640e-02
-1.682962e-01
-1.956104e-01
1.198448e-02
7.979641e-01
6.239456e-01
3.759095e-01
2.613832e-01
2.155753e-01
1.861171e-01
1.792173e-01
1.787282e-01
1.695279e-01
1.492963e-01
1.186386e-01
6.464457e-02
-6.045312e-02
-1.668908e-01
-1.966154e-02
3.777697e-01
7.876636e-01
5.756584e-01
3.529878e-01
2.911396e-01
2.908347e-01
2.491222e-01
2.301883e-01
2.072867e-01
1.498269e-01
7.598516e-02
3.813187e-03
-4.385796e-02
-5.264822e-02
5.086716e-02
3.541057e-01
7.514954e-01
5.924162e-01
4.257143e-01
3.088175e-01
2.349593e-01
2.759894e-01
2.187981e-01
1.925065e-01
1.793833e-01
1.169418e-01
5.108261e-02
1.308664e-02
3.503050e-02
1.686702e-01
4.220950e-01
7.341409e-01
9.531940e-01
-6.849556e-01
-2.685402e-01
-2.780009e-01
-2.802104e-01
-1.694179e-01
-2.207978e-01
-2.030922e-01
-1.442878e-01
-1.372801e-01
-1.060432e-01
-1.747084e-02
1.643333e-01
4.798602e-01
7.886335e-01
9.563079e-01
9.989626e-01
1 2 19 18
2 3 20 19
3 4 21 20
4 5 22 21
5 6 23 22
6 7 24 23
7 8 25 24
8 9 26 25
9 10 27 26
10 11 28 27
11 12 29 28
12 13 30 29
13 14 31 30
14 15 32 31
15 16 33 32
16 17 34 33
18 19 36 35
19 20 37 36
20 21 38 37
21 22 39 38
22 23 40 39
23 24 41 40
24 25 42 41
25 26 43 42
26 27 44 43
27 28 45 44
28 29 46 45
29 30 47 46
30 31 48 47
31 32 49 48
32 33 50 49
33 34 51 50
35 36 53 52
36 37 54 53
37 38 55 54
38 39 56 55
39 40 57 56
40 41 58 57
41 42 59 58
42 43 60 59
43 44 61 60
44 45 62 61
45 46 63 62
46 47 64 63
47 48 65 64
48 49 66 65
49 50 67 66
50 51 68 67
52 53 70 69
53 54 71 70
54 55 72 71
55 56 73 72
56 57 74 73
57 58 75 74
58 59 76 75
59 60 77 76
60 61 78 77
61 62 79 78
62 63 80 79
63 64 81 80
64 65 82 81
65 66 83 82
66 67 84 83
67 68 85 84
69 70 87 86
70 71 88 87
71 72 89 88
72 73 90 89
73 74 91 90
74 75 92 91
75 76 93 92
76 77 94 93
77 78 95 94
78 79 96 95
79 80 97 96
80 81 98 97
81 82 99 98
82 83 100 99
83 84 101 100
84 85 102 101
86 87 104 103
87 88 105 104
88 89 106 105
89 90 107 106
90 91 108 107
91 92 109 108
92 93 110 109
93 94 111 110
94 95 112 111
95 96 113 112
96 97 114 113
97 98 115 114
98 99 116 115
99 100 117 116
100 101 118 117
101 102 119 118
103 104 121 120
104 105 122 121
105 106 123 122
106 107 124 123
107 108 125 124
108 109 126 125
109 110 127 126
110 111 128 127
111 112 129 128
112 113 130 129
113 114 131 130
114 115 132 131
115 116 133 132
116 117 134 133
117 118 135 134
118 119 136 135
120 121 138 137
121 122 139 138
122 123 140 139
123 124 141 140
124 125 142 141
125 126 143 142
126 127 144 143
127 128 145 144
128 129 146 145
129 130 147 146
130 131 148 147
131 132 149 148
132 133 150 149
133 134 151 150
134 135 152 151
135 136 153 152
