TITLE = "Solution"
VARIABLES = x, y, u, v, psiu, psiv, t, stress
ZONE T="structure" N=153 E=128 F=FEBLOCK ET=QUADRILATERAL VARLOCATION=([7,8]=cellcentered)
0.000000e+00
1.250000e+01
2.500000e+01
3.750000e+01
5.000000e+01
6.250000e+01
7.500000e+01
8.750000e+01
1.000000e+02
1.125000e+02
1.250000e+02
1.375000e+02
1.500000e+02
1.625000e+02
1.750000e+02
1.875000e+02
2.000000e+02
0.000000e+00
1.250000e+01
2.500000e+01
3.750000e+01
5.000000e+01
6.250000e+01
7.500000e+01
8.750000e+01
1.000000e+02
1.125000e+02
1.250000e+02
1.375000e+02
1.500000e+02
1.625000e+02
1.750000e+02
1.875000e+02
2.000000e+02
0.000000e+00
1.250000e+01
2.500000e+01
3.750000e+01
5.000000e+01
6.250000e+01
7.500000e+01
8.750000e+01
1.000000e+02
1.125000e+02
1.250000e+02
1.375000e+02
1.500000e+02
1.625000e+02
1.750000e+02
1.875000e+02
2.000000e+02
0.000000e+00
1.250000e+01
2.500000e+01
3.750000e+01
5.000000e+01
6.250000e+01
7.500000e+01
8.750000e+01
1.000000e+02
1.125000e+02
1.250000e+02
1.375000e+02
1.500000e+02
1.625000e+02
1.750000e+02
1.875000e+02
2.000000e+02
0.000000e+00
1.250000e+01
2.500000e+01
3.750000e+01
5.000000e+01
6.250000e+01
7.500000e+01
8.750000e+01
1.000000e+02
1.125000e+02
1.250000e+02
1.375000e+02
1.500000e+02
1.625000e+02
1.750000e+02
1.875000e+02
2.000000e+02
0.000000e+00
1.250000e+01
2.500000e+01
3.750000e+01
5.000000e+01
6.250000e+01
7.500000e+01
8.750000e+01
1.000000e+02
1.125000e+02
1.250000e+02
1.375000e+02
1.500000e+02
1.625000e+02
1.750000e+02
1.875000e+02
2.000000e+02
0.000000e+00
1.250000e+01
2.500000e+01
3.750000e+01
5.000000e+01
6.250000e+01
7.500000e+01
8.750000e+01
1.000000e+02
1.125000e+02
1.250000e+02
1.375000e+02
1.500000e+02
1.625000e+02
1.750000e+02
1.875000e+02
2.000000e+02
0.000000e+00
1.250000e+01
2.500000e+01
3.750000e+01
5.000000e+01
6.250000e+01
7.500000e+01
8.750000e+01
1.000000e+02
1.125000e+02
1.250000e+02
1.375000e+02
1.500000e+02
1.625000e+02
1.750000e+02
1.875000e+02
2.000000e+02
0.000000e+00
1.250000e+01
2.500000e+01
3.750000e+01
5.000000e+01
6.250000e+01
7.500000e+01
8.750000e+01
1.000000e+02
1.125000e+02
1.250000e+02
1.375000e+02
1.500000e+02
1.625000e+02
1.750000e+02
1.875000e+02
2.000000e+02
0.000000e+00
0.000000e+00
0.000000e+00
0.000000e+00
0.000000e+00
0.000000e+00
0.000000e+00
0.000000e+00
0.000000e+00
0.000000e+00
0.000000e+00
0.000000e+00
0.000000e+00
0.000000e+00
0.000000e+00
0.000000e+00
0.000000e+00
1.250000e+01
1.250000e+01
1.250000e+01
1.250000e+01
1.250000e+01
1.250000e+01
1.250000e+01
1.250000e+01
1.250000e+01
1.250000e+01
1.250000e+01
1.250000e+01
1.250000e+01
1.250000e+01
1.250000e+01
1.250000e+01
1.250000e+01
2.500000e+01
2.500000e+01
2.500000e+01
2.500000e+01
2.500000e+01
2.500000e+01
2.500000e+01
2.500000e+01
2.500000e+01
2.500000e+01
2.500000e+01
2.500000e+01
2.500000e+01
2.500000e+01
2.500000e+01
2.500000e+01
2.500000e+01
3.750000e+01
3.750000e+01
3.750000e+01
3.750000e+01
3.750000e+01
3.750000e+01
3.750000e+01
3.750000e+01
3.750000e+01
3.750000e+01
3.750000e+01
3.750000e+01
3.750000e+01
3.750000e+01
3.750000e+01
3.750000e+01
3.750000e+01
5.000000e+01
5.000000e+01
5.000000e+01
5.000000e+01
5.000000e+01
5.000000e+01
5.000000e+01
5.000000e+01
5.000000e+01
5.000000e+01
5.000000e+01
5.000000e+01
5.000000e+01
5.000000e+01
5.000000e+01
5.000000e+01
5.000000e+01
6.250000e+01
6.250000e+01
6.250000e+01
6.250000e+01
6.250000e+01
6.250000e+01
6.250000e+01
6.250000e+01
6.250000e+01
6.250000e+01
6.250000e+01
6.250000e+01
6.250000e+01
6.250000e+01
6.250000e+01
6.250000e+01
6.250000e+01
7.500000e+01
7.500000e+01
7.500000e+01
7.500000e+01
7.500000e+01
7.500000e+01
7.500000e+01
7.500000e+01
7.500000e+01
7.500000e+01
7.500000e+01
7.500000e+01
7.500000e+01
7.500000e+01
7.500000e+01
7.500000e+01
7.500000e+01
8.750000e+01
8.750000e+01
8.750000e+01
8.750000e+01
8.750000e+01
8.750000e+01
8.750000e+01
8.750000e+01
8.750000e+01
8.750000e+01
8.750000e+01
8.750000e+01
8.750000e+01
8.750000e+01
8.750000e+01
8.750000e+01
8.750000e+01
1.000000e+02
1.000000e+02
1.000000e+02
1.000000e+02
1.000000e+02
1.000000e+02
1.000000e+02
1.000000e+02
1.000000e+02
1.000000e+02
1.000000e+02
1.000000e+02
1.000000e+02
1.000000e+02
1.000000e+02
1.000000e+02
1.000000e+02
0.000000e+00
-9.097869e-02
-1.675206e-01
-2.379491e-01
-3.035377e-01
-3.641481e-01
-4.196502e-01
-4.700009e-01
-5.152736e-01
-5.556767e-01
-5.916108e-01
-6.237782e-01
-6.533871e-01
-6.825247e-01
-7.147909e-01
-7.544178e-01
-7.841535e-01
0.000000e+00
-5.433086e-02
-1.128618e-01
-1.669114e-01
-2.167077e-01
-2.624400e-01
-3.042031e-01
-3.420532e-01
-3.760582e-01
-4.063230e-01
-4.330013e-01
-4.562853e-01
-4.763235e-01
-4.929098e-01
-5.046090e-01
-5.071733e-01
-5.163668e-01
0.000000e+00
-3.397697e-02
-6.986515e-02
-1.056689e-01
-1.390906e-01
-1.697764e-01
-1.977015e-01
-2.228972e-01
-2.453700e-01
-2.650823e-01
-2.819281e-01
-2.956720e-01
-3.058240e-01
-3.114911e-01
-3.116484e-01
-3.093845e-01
-3.187612e-01
0.000000e+00
-1.639939e-02
-3.376034e-02
-5.123092e-02
-6.793597e-02
-8.332235e-02
-9.726859e-02
-1.097341e-01
-1.206474e-01
-1.298667e-01
-1.371562e-01
-1.421719e-01
-1.445032e-01
-1.439586e-01
-1.417209e-01
-1.423328e-01
-1.493147e-01
0.000000e+00
-1.510695e-05
-3.434285e-05
-5.351557e-05
-6.369089e-05
-4.494586e-05
4.226403e-05
2.688965e-04
7.513674e-04
1.663084e-03
3.230282e-03
5.680233e-03
9.074347e-03
1.290987e-02
1.555932e-02
1.483266e-02
1.021002e-02
0.000000e+00
1.637614e-02
3.370637e-02
5.114461e-02
6.782860e-02
8.323502e-02
9.730246e-02
1.100997e-01
1.217378e-01
1.323516e-01
1.420799e-01
1.509947e-01
1.589411e-01
1.653132e-01
1.690616e-01
1.693589e-01
1.670126e-01
0.000000e+00
3.397316e-02
6.985353e-02
1.056458e-01
1.390545e-01
1.697315e-01
1.976642e-01
2.229093e-01
2.455194e-01
2.655344e-01
2.829719e-01
2.977892e-01
3.098160e-01
3.187078e-01
3.240448e-01
3.257778e-01
3.252306e-01
0.000000e+00
5.435315e-02
1.129103e-01
1.669887e-01
2.168113e-01
2.625509e-01
3.042654e-01
3.419394e-01
3.755154e-01
4.048965e-01
4.299434e-01
4.504829e-01
4.663506e-01
4.774941e-01
4.841414e-01
4.869761e-01
4.874967e-01
0.000000e+00
9.101596e-02
1.676189e-01
2.381333e-01
3.038319e-01
3.645619e-01
4.201438e-01
4.704160e-01
5.152104e-01
5.542942e-01
5.873285e-01
6.138728e-01
6.334913e-01
6.460296e-01
6.520933e-01
6.535900e-01
6.535612e-01
0.000000e+00
-5.507191e-02
-1.081126e-01
-1.768409e-01
-2.611907e-01
-3.610042e-01
-4.751882e-01
-6.024649e-01
-7.414809e-01
-8.909008e-01
-1.049491e+00
-1.216269e+00
-1.390834e+00
-1.574117e+00
-1.770873e+00
-1.995999e+00
-2.319463e+00
0.000000e+00
-3.390328e-02
-8.923338e-02
-1.588140e-01
-2.445424e-01
-3.457180e-01
-4.612853e-01
-5.899352e-01
-7.302986e-01
-8.810159e-01
-1.040819e+00
-1.208682e+00
-1.384140e+00
-1.568100e+00
-1.764780e+00
-1.988539e+00
-2.262667e+00
0.000000e+00
-2.558303e-02
-7.614539e-02
-1.459828e-01
-2.325217e-01
-3.347387e-01
-4.513683e-01
-5.810887e-01
-7.225400e-01
-8.743822e-01
-1.035372e+00
-1.204518e+00
-1.381399e+00
-1.566774e+00
-1.763622e+00
-1.975642e+00
-2.180832e+00
0.000000e+00
-2.204563e-02
-6.963811e-02
-1.384513e-01
-2.253030e-01
-3.281492e-01
-4.455059e-01
-5.760011e-01
-7.183006e-01
-8.711006e-01
-1.033185e+00
-1.203542e+00
-1.381552e+00
-1.567132e+00
-1.760043e+00
-1.954859e+00
-2.134329e+00
0.000000e+00
-2.102658e-02
-6.766870e-02
-1.360486e-01
-2.229240e-01
-3.260262e-01
-4.437203e-01
-5.746356e-01
-7.174633e-01
-8.709207e-01
-1.033764e+00
-1.204824e+00
-1.382993e+00
-1.566957e+00
-1.753964e+00
-1.937618e+00
-2.106809e+00
0.000000e+00
-2.203254e-02
-6.962879e-02
-1.384678e-01
-2.253844e-01
-3.283637e-01
-4.459647e-01
-5.768700e-01
-7.197986e-01
-8.734615e-01
-1.036535e+00
-1.207602e+00
-1.385009e+00
-1.566496e+00
-1.748579e+00
-1.925935e+00
-2.091514e+00
0.000000e+00
-2.556168e-02
-7.612996e-02
-1.460104e-01
-2.326589e-01
-3.351016e-01
-4.521461e-01
-5.825639e-01
-7.250869e-01
-8.784040e-01
-1.041102e+00
-1.211547e+00
-1.387684e+00
-1.566794e+00
-1.745347e+00
-1.919299e+00
-2.084768e+00
0.000000e+00
-3.388326e-02
-8.921994e-02
-1.588507e-01
-2.447071e-01
-3.461446e-01
-4.621907e-01
-5.916404e-01
-7.332242e-01
-8.856073e-01
-1.047319e+00
-1.216607e+00
-1.391244e+00
-1.568359e+00
-1.744537e+00
-1.916555e+00
-2.083185e+00
0.000000e+00
-5.506364e-02
-1.081137e-01
-1.768977e-01
-2.613816e-01
-3.614601e-01
-4.761146e-01
-6.041552e-01
-7.442989e-01
-8.951873e-01
-1.055314e+00
-1.222889e+00
-1.395669e+00
-1.570847e+00
-1.745225e+00
-1.916053e+00
-2.083210e+00


0.000000e+00
1.383202e-09
2.860340e-09
4.168067e-09
5.271660e-09
6.167551e-09
6.872379e-09
7.412591e-09
7.816257e-09
8.110343e-09
8.319578e-09
8.466216e-09
8.570597e-09
8.651600e-09
8.726984e-09
8.820129e-09
8.932026e-09
0.000000e+00
9.412281e-10
2.217388e-09
3.256326e-09
4.088816e-09
4.746065e-09
5.252980e-09
5.634845e-09
5.915039e-09
6.114380e-09
6.250918e-09
6.339602e-09
6.391711e-09
6.417333e-09
6.443321e-09
6.519484e-09
6.634695e-09
0.000000e+00
7.006947e-10
1.539893e-09
2.240707e-09
2.803363e-09
3.237422e-09
3.563888e-09
3.803650e-09
3.974508e-09
4.091170e-09
4.165694e-09
4.207944e-09
4.226733e-09
4.234000e-09
4.252329e-09
4.312088e-09
4.405380e-09
0.000000e+00
3.749414e-10
7.678549e-10
1.118400e-09
1.404972e-09
1.623882e-09
1.785425e-09
1.901316e-09
1.981258e-09
2.032987e-09
2.062970e-09
2.077328e-09
2.083157e-09
2.089567e-09
2.105719e-09
2.142033e-09
2.199429e-09
0.000000e+00
-4.093254e-13
-9.609073e-13
-1.726966e-12
-2.829322e-12
-4.432278e-12
-6.749394e-12
-1.002621e-11
-1.447406e-11
-2.010495e-11
-2.642332e-11
-3.197413e-11
-3.413147e-11
-3.031651e-11
-2.038153e-11
-2.880996e-12
2.701891e-11
0.000000e+00
-3.756444e-10
-7.694807e-10
-1.121313e-09
-1.409685e-09
-1.631133e-09
-1.796246e-09
-1.917090e-09
-2.003725e-09
-2.064078e-09
-2.104290e-09
-2.128990e-09
-2.141710e-09
-2.145920e-09
-2.145699e-09
-2.141375e-09
-2.128602e-09
0.000000e+00
-7.010566e-10
-1.540888e-09
-2.242548e-09
-2.806295e-09
-3.241708e-09
-3.569793e-09
-3.811445e-09
-3.984521e-09
-4.103971e-09
-4.182434e-09
-4.230766e-09
-4.258332e-09
-4.273098e-09
-4.281032e-09
-4.283746e-09
-4.280152e-09
0.000000e+00
-9.413560e-10
-2.218018e-09
-3.257444e-09
-4.090373e-09
-4.747898e-09
-5.254686e-09
-5.635696e-09
-5.913985e-09
-6.110249e-09
-6.242924e-09
-6.328300e-09
-6.380406e-09
-6.410663e-09
-6.427330e-09
-6.434918e-09
-6.435978e-09
0.000000e+00
-1.383808e-09
-2.861332e-09
-4.169176e-09
-5.272556e-09
-6.167650e-09
-6.870750e-09
-7.407872e-09
-7.806634e-09
-8.093581e-09
-8.292965e-09
-8.426132e-09
-8.511007e-09
-8.561720e-09
-8.588490e-09
-8.598736e-09
-8.600507e-09
0.000000e+00
1.256933e-09
2.258378e-09
3.308848e-09
4.569645e-09
6.053558e-09
7.730438e-09
9.561035e-09
1.150772e-08
1.353948e-08
1.563249e-08
1.777047e-08
1.994678e-08
2.217562e-08
2.451678e-08
2.700116e-08
2.951738e-08
0.000000e+00
6.757800e-10
1.654576e-09
2.776229e-09
4.133047e-09
5.709366e-09
7.467380e-09
9.365130e-09
1.136592e-08
1.344005e-08
1.556525e-08
1.772669e-08
1.991824e-08
2.214659e-08
2.444037e-08
2.685572e-08
2.933126e-08
0.000000e+00
3.333273e-10
1.180779e-09
2.360281e-09
3.795680e-09
5.448093e-09
7.270636e-09
9.220882e-09
1.126349e-08
1.337040e-08
1.552075e-08
1.770074e-08
1.990307e-08
2.212382e-08
2.436565e-08
2.670125e-08
2.911051e-08
0.000000e+00
1.899120e-10
9.573330e-10
2.142320e-09
3.618629e-09
5.312890e-09
7.170526e-09
9.148763e-09
1.121350e-08
1.333785e-08
1.550161e-08
1.769067e-08
1.989526e-08
2.210562e-08
2.431929e-08
2.659150e-08
2.891738e-08
0.000000e+00
1.535404e-10
8.964456e-10
2.076332e-09
3.564186e-09
5.271714e-09
7.140617e-09
9.127909e-09
1.119999e-08
1.333030e-08
1.549849e-08
1.768952e-08
1.989197e-08
2.209578e-08
2.429751e-08
2.652881e-08
2.877996e-08
0.000000e+00
1.901680e-10
9.576877e-10
2.142800e-09
3.619309e-09
5.313973e-09
7.172366e-09
9.151867e-09
1.121840e-08
1.334480e-08
1.550994e-08
1.769777e-08
1.989608e-08
2.209557e-08
2.429256e-08
2.649857e-08
2.870088e-08
0.000000e+00
3.337322e-10
1.181419e-09
2.361229e-09
3.797081e-09
5.450344e-09
7.274393e-09
9.227074e-09
1.127311e-08
1.338402e-08
1.553745e-08
1.771624e-08
1.990746e-08
2.210176e-08
2.429415e-08
2.648519e-08
2.866395e-08
0.000000e+00
6.763481e-10
1.655638e-09
2.777802e-09
4.135320e-09
5.712798e-09
7.472703e-09
9.373354e-09
1.137812e-08
1.345689e-08
1.558586e-08
1.774660e-08
1.992507e-08
2.211101e-08
2.429756e-08
2.648010e-08
2.865162e-08
0.000000e+00
1.257841e-09
2.259939e-09
3.311037e-09
4.572629e-09
6.057683e-09
7.736280e-09
9.569353e-09
1.151932e-08
1.355475e-08
1.565046e-08
1.778666e-08
1.994800e-08
2.212279e-08
2.430238e-08
2.647975e-08
2.864974e-08


2.658319e-01
2.658319e-01
2.658320e-01
2.658321e-01
2.658322e-01
2.658323e-01
2.658324e-01
2.658325e-01
2.658325e-01
2.658326e-01
2.658326e-01
2.658326e-01
2.658326e-01
2.658326e-01
2.658326e-01
2.658325e-01
2.658320e-01
2.658320e-01
2.658321e-01
2.658322e-01
2.658323e-01
2.658324e-01
2.658325e-01
2.658325e-01
2.658325e-01
2.658326e-01
2.658326e-01
2.658326e-01
2.658326e-01
2.658326e-01
2.658326e-01
2.658325e-01
2.658323e-01
2.658323e-01
2.658323e-01
2.658324e-01
2.658324e-01
2.658325e-01
2.658325e-01
2.658325e-01
2.658326e-01
2.658326e-01
2.658326e-01
2.658326e-01
2.658326e-01
2.658326e-01
2.658326e-01
2.658325e-01
2.658324e-01
2.658324e-01
2.658325e-01
2.658325e-01
2.658325e-01
2.658325e-01
2.658326e-01
2.658326e-01
2.658326e-01
2.658326e-01
2.658326e-01
2.658326e-01
2.658326e-01
2.658326e-01
2.658326e-01
2.658326e-01
2.658324e-01
2.658324e-01
2.658325e-01
2.658325e-01
2.658325e-01
2.658325e-01
2.658326e-01
2.658326e-01
2.658326e-01
2.658326e-01
2.658326e-01
2.658326e-01
2.658326e-01
2.658326e-01
2.658326e-01
2.658326e-01
2.658323e-01
2.658323e-01
2.658323e-01
2.658324e-01
2.658324e-01
2.658325e-01
2.658325e-01
2.658325e-01
2.658326e-01
2.658326e-01
2.658326e-01
2.658326e-01
2.658326e-01
2.658326e-01
2.658326e-01
2.658326e-01
2.658320e-01
2.658320e-01
2.658321e-01
2.658322e-01
2.658323e-01
2.658324e-01
2.658325e-01
2.658325e-01
2.658325e-01
2.658326e-01
2.658326e-01
2.658326e-01
2.658326e-01
2.658326e-01
2.658326e-01
2.658326e-01
2.658319e-01
2.658319e-01
2.658320e-01
2.658321e-01
2.658322e-01
2.658323e-01
2.658324e-01
2.658325e-01
2.658325e-01
2.658326e-01
2.658326e-01
2.658326e-01
2.658326e-01
2.658326e-01
2.658326e-01
2.658326e-01


9.813779e-01
9.840186e-01
9.864615e-01
9.883420e-01
9.900876e-01
9.916971e-01
9.931635e-01
9.944696e-01
9.956016e-01
9.965483e-01
9.973012e-01
9.978526e-01
9.981954e-01
9.983177e-01
9.984060e-01
9.929637e-01
9.929549e-01
9.917447e-01
9.925233e-01
9.935395e-01
9.944869e-01
9.953480e-01
9.961274e-01
9.968335e-01
9.974727e-01
9.980517e-01
9.985771e-01
9.990529e-01
9.994679e-01
9.997397e-01
9.990524e-01
9.897364e-01
9.975521e-01
9.968571e-01
9.966695e-01
9.969334e-01
9.972806e-01
9.976169e-01
9.979292e-01
9.982242e-01
9.985100e-01
9.987887e-01
9.990489e-01
9.992504e-01
9.992924e-01
9.989296e-01
9.976133e-01
9.952458e-01
9.995018e-01
9.989949e-01
9.986817e-01
9.986023e-01
9.986340e-01
9.986873e-01
9.987404e-01
9.987924e-01
9.988433e-01
9.988860e-01
9.988979e-01
9.988344e-01
9.986332e-01
9.982719e-01
9.979656e-01
9.978880e-01
9.995037e-01
9.989975e-01
9.986841e-01
9.986018e-01
9.986261e-01
9.986645e-01
9.986912e-01
9.987001e-01
9.986879e-01
9.986487e-01
9.985756e-01
9.984703e-01
9.983700e-01
9.983899e-01
9.986734e-01
9.991642e-01
9.975556e-01
9.968624e-01
9.966745e-01
9.969335e-01
9.972671e-01
9.975753e-01
9.978360e-01
9.980456e-01
9.982026e-01
9.983083e-01
9.983751e-01
9.984405e-01
9.985777e-01
9.988655e-01
9.992977e-01
9.997446e-01
9.929542e-01
9.917442e-01
9.925223e-01
9.935366e-01
9.944795e-01
9.953310e-01
9.960923e-01
9.967664e-01
9.973538e-01
9.978559e-01
9.982810e-01
9.986522e-01
9.990096e-01
9.993844e-01
9.997349e-01
9.999556e-01
9.813652e-01
9.839987e-01
9.864371e-01
9.883147e-01
9.900630e-01
9.916882e-01
9.931938e-01
9.945763e-01
9.958360e-01
9.969704e-01
9.979660e-01
9.987920e-01
9.994064e-01
9.997855e-01
9.999580e-01
9.999991e-01
1 2 19 18
2 3 20 19
3 4 21 20
4 5 22 21
5 6 23 22
6 7 24 23
7 8 25 24
8 9 26 25
9 10 27 26
10 11 28 27
11 12 29 28
12 13 30 29
13 14 31 30
14 15 32 31
15 16 33 32
16 17 34 33
18 19 36 35
19 20 37 36
20 21 38 37
21 22 39 38
22 23 40 39
23 24 41 40
24 25 42 41
25 26 43 42
26 27 44 43
27 28 45 44
28 29 46 45
29 30 47 46
30 31 48 47
31 32 49 48
32 33 50 49
33 34 51 50
35 36 53 52
36 37 54 53
37 38 55 54
38 39 56 55
39 40 57 56
40 41 58 57
41 42 59 58
42 43 60 59
43 44 61 60
44 45 62 61
45 46 63 62
46 47 64 63
47 48 65 64
48 49 66 65
49 50 67 66
50 51 68 67
52 53 70 69
53 54 71 70
54 55 72 71
55 56 73 72
56 57 74 73
57 58 75 74
58 59 76 75
59 60 77 76
60 61 78 77
61 62 79 78
62 63 80 79
63 64 81 80
64 65 82 81
65 66 83 82
66 67 84 83
67 68 85 84
69 70 87 86
70 71 88 87
71 72 89 88
72 73 90 89
73 74 91 90
74 75 92 91
75 76 93 92
76 77 94 93
77 78 95 94
78 79 96 95
79 80 97 96
80 81 98 97
81 82 99 98
82 83 100 99
83 84 101 100
84 85 102 101
86 87 104 103
87 88 105 104
88 89 106 105
89 90 107 106
90 91 108 107
91 92 109 108
92 93 110 109
93 94 111 110
94 95 112 111
95 96 113 112
96 97 114 113
97 98 115 114
98 99 116 115
99 100 117 116
100 101 118 117
101 102 119 118
103 104 121 120
104 105 122 121
105 106 123 122
106 107 124 123
107 108 125 124
108 109 126 125
109 110 127 126
110 111 128 127
111 112 129 128
112 113 130 129
113 114 131 130
114 115 132 131
115 116 133 132
116 117 134 133
117 118 135 134
118 119 136 135
120 121 138 137
121 122 139 138
122 123 140 139
123 124 141 140
124 125 142 141
125 126 143 142
126 127 144 143
127 128 145 144
128 129 146 145
129 130 147 146
130 131 148 147
131 132 149 148
132 133 150 149
133 134 151 150
134 135 152 151
135 136 153 152
