TITLE = "Solution"
VARIABLES = x, y, u, v, psiu, psiv, t, stress
ZONE T="structure" N=153 E=128 F=FEBLOCK ET=QUADRILATERAL VARLOCATION=([7,8]=cellcentered)
0.000000e+00
1.250000e+01
2.500000e+01
3.750000e+01
5.000000e+01
6.250000e+01
7.500000e+01
8.750000e+01
1.000000e+02
1.125000e+02
1.250000e+02
1.375000e+02
1.500000e+02
1.625000e+02
1.750000e+02
1.875000e+02
2.000000e+02
0.000000e+00
1.250000e+01
2.500000e+01
3.750000e+01
5.000000e+01
6.250000e+01
7.500000e+01
8.750000e+01
1.000000e+02
1.125000e+02
1.250000e+02
1.375000e+02
1.500000e+02
1.625000e+02
1.750000e+02
1.875000e+02
2.000000e+02
0.000000e+00
1.250000e+01
2.500000e+01
3.750000e+01
5.000000e+01
6.250000e+01
7.500000e+01
8.750000e+01
1.000000e+02
1.125000e+02
1.250000e+02
1.375000e+02
1.500000e+02
1.625000e+02
1.750000e+02
1.875000e+02
2.000000e+02
0.000000e+00
1.250000e+01
2.500000e+01
3.750000e+01
5.000000e+01
6.250000e+01
7.500000e+01
8.750000e+01
1.000000e+02
1.125000e+02
1.250000e+02
1.375000e+02
1.500000e+02
1.625000e+02
1.750000e+02
1.875000e+02
2.000000e+02
0.000000e+00
1.250000e+01
2.500000e+01
3.750000e+01
5.000000e+01
6.250000e+01
7.500000e+01
8.750000e+01
1.000000e+02
1.125000e+02
1.250000e+02
1.375000e+02
1.500000e+02
1.625000e+02
1.750000e+02
1.875000e+02
2.000000e+02
0.000000e+00
1.250000e+01
2.500000e+01
3.750000e+01
5.000000e+01
6.250000e+01
7.500000e+01
8.750000e+01
1.000000e+02
1.125000e+02
1.250000e+02
1.375000e+02
1.500000e+02
1.625000e+02
1.750000e+02
1.875000e+02
2.000000e+02
0.000000e+00
1.250000e+01
2.500000e+01
3.750000e+01
5.000000e+01
6.250000e+01
7.500000e+01
8.750000e+01
1.000000e+02
1.125000e+02
1.250000e+02
1.375000e+02
1.500000e+02
1.625000e+02
1.750000e+02
1.875000e+02
2.000000e+02
0.000000e+00
1.250000e+01
2.500000e+01
3.750000e+01
5.000000e+01
6.250000e+01
7.500000e+01
8.750000e+01
1.000000e+02
1.125000e+02
1.250000e+02
1.375000e+02
1.500000e+02
1.625000e+02
1.750000e+02
1.875000e+02
2.000000e+02
0.000000e+00
1.250000e+01
2.500000e+01
3.750000e+01
5.000000e+01
6.250000e+01
7.500000e+01
8.750000e+01
1.000000e+02
1.125000e+02
1.250000e+02
1.375000e+02
1.500000e+02
1.625000e+02
1.750000e+02
1.875000e+02
2.000000e+02
0.000000e+00
0.000000e+00
0.000000e+00
0.000000e+00
0.000000e+00
0.000000e+00
0.000000e+00
0.000000e+00
0.000000e+00
0.000000e+00
0.000000e+00
0.000000e+00
0.000000e+00
0.000000e+00
0.000000e+00
0.000000e+00
0.000000e+00
1.250000e+01
1.250000e+01
1.250000e+01
1.250000e+01
1.250000e+01
1.250000e+01
1.250000e+01
1.250000e+01
1.250000e+01
1.250000e+01
1.250000e+01
1.250000e+01
1.250000e+01
1.250000e+01
1.250000e+01
1.250000e+01
1.250000e+01
2.500000e+01
2.500000e+01
2.500000e+01
2.500000e+01
2.500000e+01
2.500000e+01
2.500000e+01
2.500000e+01
2.500000e+01
2.500000e+01
2.500000e+01
2.500000e+01
2.500000e+01
2.500000e+01
2.500000e+01
2.500000e+01
2.500000e+01
3.750000e+01
3.750000e+01
3.750000e+01
3.750000e+01
3.750000e+01
3.750000e+01
3.750000e+01
3.750000e+01
3.750000e+01
3.750000e+01
3.750000e+01
3.750000e+01
3.750000e+01
3.750000e+01
3.750000e+01
3.750000e+01
3.750000e+01
5.000000e+01
5.000000e+01
5.000000e+01
5.000000e+01
5.000000e+01
5.000000e+01
5.000000e+01
5.000000e+01
5.000000e+01
5.000000e+01
5.000000e+01
5.000000e+01
5.000000e+01
5.000000e+01
5.000000e+01
5.000000e+01
5.000000e+01
6.250000e+01
6.250000e+01
6.250000e+01
6.250000e+01
6.250000e+01
6.250000e+01
6.250000e+01
6.250000e+01
6.250000e+01
6.250000e+01
6.250000e+01
6.250000e+01
6.250000e+01
6.250000e+01
6.250000e+01
6.250000e+01
6.250000e+01
7.500000e+01
7.500000e+01
7.500000e+01
7.500000e+01
7.500000e+01
7.500000e+01
7.500000e+01
7.500000e+01
7.500000e+01
7.500000e+01
7.500000e+01
7.500000e+01
7.500000e+01
7.500000e+01
7.500000e+01
7.500000e+01
7.500000e+01
8.750000e+01
8.750000e+01
8.750000e+01
8.750000e+01
8.750000e+01
8.750000e+01
8.750000e+01
8.750000e+01
8.750000e+01
8.750000e+01
8.750000e+01
8.750000e+01
8.750000e+01
8.750000e+01
8.750000e+01
8.750000e+01
8.750000e+01
1.000000e+02
1.000000e+02
1.000000e+02
1.000000e+02
1.000000e+02
1.000000e+02
1.000000e+02
1.000000e+02
1.000000e+02
1.000000e+02
1.000000e+02
1.000000e+02
1.000000e+02
1.000000e+02
1.000000e+02
1.000000e+02
1.000000e+02
0.000000e+00
-8.702691e-01
-1.556748e+00
-2.232924e+00
-2.918187e+00
-3.580053e+00
-4.242307e+00
-4.907163e+00
-5.565404e+00
-6.221553e+00
-6.880328e+00
-7.536401e+00
-8.181125e+00
-8.816433e+00
-9.451723e+00
-1.009562e+01
-1.052868e+01
0.000000e+00
-4.580867e-01
-9.517486e-01
-1.449048e+00
-1.961797e+00
-2.457520e+00
-2.952685e+00
-3.450024e+00
-3.941655e+00
-4.429249e+00
-4.914043e+00
-5.387142e+00
-5.830702e+00
-6.216143e+00
-6.479791e+00
-6.541553e+00
-6.692378e+00
0.000000e+00
-2.377012e-01
-5.082915e-01
-8.253173e-01
-1.162337e+00
-1.495333e+00
-1.830910e+00
-2.166682e+00
-2.496937e+00
-2.819251e+00
-3.127396e+00
-3.406879e+00
-3.634715e+00
-3.778442e+00
-3.804148e+00
-3.774454e+00
-3.926798e+00
0.000000e+00
-1.015211e-01
-2.203129e-01
-3.685910e-01
-5.306549e-01
-6.985454e-01
-8.685891e-01
-1.036565e+00
-1.198775e+00
-1.350029e+00
-1.481341e+00
-1.579367e+00
-1.628117e+00
-1.615982e+00
-1.564026e+00
-1.568078e+00
-1.694584e+00
0.000000e+00
-8.767610e-04
-1.767098e-03
-2.508628e-03
-2.809437e-03
-2.152675e-03
3.683408e-04
6.206596e-03
1.768659e-02
3.860429e-02
7.451612e-02
1.316358e-01
2.130315e-01
3.091058e-01
3.819774e-01
3.788568e-01
2.846412e-01
0.000000e+00
1.000244e-01
2.172961e-01
3.642119e-01
5.255465e-01
6.942111e-01
8.679818e-01
1.045011e+00
1.225470e+00
1.410238e+00
1.598822e+00
1.787813e+00
1.968428e+00
2.121683e+00
2.217642e+00
2.231925e+00
2.180719e+00
0.000000e+00
2.369015e-01
5.066336e-01
8.227215e-01
1.158860e+00
1.491519e+00
1.827717e+00
2.165848e+00
2.502351e+00
2.837404e+00
3.165775e+00
3.473389e+00
3.741175e+00
3.948596e+00
4.076968e+00
4.120194e+00
4.108359e+00
0.000000e+00
4.580726e-01
9.516894e-01
1.448768e+00
1.960993e+00
2.455947e+00
2.949318e+00
3.442745e+00
3.928770e+00
4.407735e+00
4.871140e+00
5.293093e+00
5.642769e+00
5.898600e+00
6.054413e+00
6.121403e+00
6.133856e+00
0.000000e+00
8.708244e-01
1.558188e+00
2.235362e+00
2.921550e+00
3.584189e+00
4.245954e+00
4.907322e+00
5.558643e+00
6.199617e+00
6.814422e+00
7.361260e+00
7.792537e+00
8.077817e+00
8.217379e+00
8.251200e+00
8.250096e+00
0.000000e+00
-5.384185e-01
-1.128812e+00
-1.912412e+00
-2.864884e+00
-3.984267e+00
-5.279472e+00
-6.748610e+00
-8.389868e+00
-1.020517e+01
-1.219416e+01
-1.435307e+01
-1.667969e+01
-1.918197e+01
-2.191666e+01
-2.509657e+01
-2.977333e+01
0.000000e+00
-3.436176e-01
-9.609226e-01
-1.734940e+00
-2.689295e+00
-3.811377e+00
-5.105926e+00
-6.576004e+00
-8.219228e+00
-1.003567e+01
-1.202678e+01
-1.419145e+01
-1.652855e+01
-1.905079e+01
-2.180994e+01
-2.499182e+01
-2.888730e+01
0.000000e+00
-2.887028e-01
-8.524038e-01
-1.618118e+00
-2.567239e+00
-3.688563e+00
-4.983729e+00
-6.455566e+00
-8.102180e+00
-9.924159e+00
-1.192422e+01
-1.410298e+01
-1.646185e+01
-1.901611e+01
-2.179697e+01
-2.480541e+01
-2.765005e+01
0.000000e+00
-2.927282e-01
-8.161889e-01
-1.560054e+00
-2.498763e+00
-3.617120e+00
-4.913588e+00
-6.388422e+00
-8.040932e+00
-9.873107e+00
-1.188791e+01
-1.408520e+01
-1.646319e+01
-1.902256e+01
-2.173988e+01
-2.446824e+01
-2.687226e+01
0.000000e+00
-2.990579e-01
-8.115730e-01
-1.545168e+00
-2.478632e+00
-3.596449e+00
-4.895243e+00
-6.374085e+00
-8.033303e+00
-9.876011e+00
-1.190465e+01
-1.411537e+01
-1.649601e+01
-1.902126e+01
-2.162054e+01
-2.413770e+01
-2.632543e+01
0.000000e+00
-2.925738e-01
-8.165277e-01
-1.561599e+00
-2.502446e+00
-3.624360e+00
-4.926338e+00
-6.409045e+00
-8.072951e+00
-9.921968e+00
-1.195822e+01
-1.417268e+01
-1.653998e+01
-1.901206e+01
-2.150364e+01
-2.388411e+01
-2.598634e+01
0.000000e+00
-2.884430e-01
-8.529188e-01
-1.620537e+00
-2.573107e+00
-3.700212e+00
-5.004421e+00
-6.489325e+00
-8.154949e+00
-1.000522e+01
-1.204184e+01
-1.425103e+01
-1.659664e+01
-1.901797e+01
-2.142934e+01
-2.373140e+01
-2.583145e+01
0.000000e+00
-3.433622e-01
-9.614742e-01
-1.737569e+00
-2.695800e+00
-3.824347e+00
-5.128968e+00
-6.613856e+00
-8.278848e+00
-1.012714e+01
-1.215820e+01
-1.435421e+01
-1.667389e+01
-1.905293e+01
-2.140982e+01
-2.366686e+01
-2.579558e+01
0.000000e+00
-5.383267e-01
-1.129525e+00
-1.915208e+00
-2.871592e+00
-3.997406e+00
-5.302329e+00
-6.785882e+00
-8.448507e+00
-1.029311e+01
-1.231357e+01
-1.448716e+01
-1.677263e+01
-1.910989e+01
-2.142545e+01
-2.365484e+01
-2.579659e+01


0.000000e+00
1.243605e-05
2.306190e-05
3.390531e-05
4.643943e-05
5.866688e-05
7.008839e-05
8.124821e-05
9.201710e-05
1.019561e-04
1.105236e-04
1.170890e-04
1.215842e-04
1.247855e-04
1.273954e-04
1.304082e-04
1.339578e-04
0.000000e+00
9.175714e-06
1.863570e-05
2.670954e-05
3.650014e-05
4.595713e-05
5.443001e-05
6.269487e-05
7.076424e-05
7.807080e-05
8.407729e-05
8.822265e-05
9.031959e-05
9.073142e-05
9.087139e-05
9.332689e-05
9.742981e-05
0.000000e+00
7.127479e-06
1.365303e-05
1.921127e-05
2.582439e-05
3.201002e-05
3.757728e-05
4.294563e-05
4.801451e-05
5.239117e-05
5.576131e-05
5.783891e-05
5.858440e-05
5.844685e-05
5.862310e-05
6.097301e-05
6.497248e-05
0.000000e+00
3.629449e-06
6.436953e-06
9.766274e-06
1.289139e-05
1.581149e-05
1.860637e-05
2.122324e-05
2.351076e-05
2.538368e-05
2.672735e-05
2.748620e-05
2.780416e-05
2.807474e-05
2.877027e-05
3.054250e-05
3.330510e-05
0.000000e+00
-1.744357e-08
-3.760455e-08
-5.905932e-08
-8.152109e-08
-1.076813e-07
-1.412107e-07
-1.919480e-07
-2.886783e-07
-4.769179e-07
-7.647724e-07
-1.067258e-06
-1.209484e-06
-9.819017e-07
-4.267640e-07
3.473530e-07
1.635875e-06
0.000000e+00
-3.659339e-06
-6.499132e-06
-9.864478e-06
-1.302811e-05
-1.598951e-05
-1.882538e-05
-2.148730e-05
-2.387592e-05
-2.596214e-05
-2.765179e-05
-2.884963e-05
-2.950121e-05
-2.968204e-05
-2.969468e-05
-2.966924e-05
-2.927861e-05
0.000000e+00
-7.142007e-06
-1.368379e-05
-1.926543e-05
-2.591730e-05
-3.213787e-05
-3.771182e-05
-4.308411e-05
-4.815168e-05
-5.239428e-05
-5.546594e-05
-5.736769e-05
-5.840201e-05
-5.894264e-05
-5.928436e-05
-5.949536e-05
-5.944301e-05
0.000000e+00
-9.175249e-06
-1.863234e-05
-2.670685e-05
-3.652140e-05
-4.599909e-05
-5.445046e-05
-6.271647e-05
-7.081003e-05
-7.781553e-05
-8.293178e-05
-8.606912e-05
-8.780352e-05
-8.876357e-05
-8.932135e-05
-8.960178e-05
-8.965296e-05
0.000000e+00
-1.243249e-05
-2.303767e-05
-3.385277e-05
-4.636685e-05
-5.856744e-05
-6.992469e-05
-8.103811e-05
-9.180330e-05
-1.014404e-04
-1.090298e-04
-1.142106e-04
-1.173427e-04
-1.190582e-04
-1.198802e-04
-1.201610e-04
-1.202001e-04
0.000000e+00
1.068759e-05
1.797300e-05
2.763651e-05
4.055607e-05
5.556524e-05
7.344818e-05
9.460308e-05
1.184829e-04
1.445956e-04
1.725157e-04
2.018006e-04
2.324209e-04
2.651106e-04
3.026709e-04
3.463378e-04
3.905977e-04
0.000000e+00
5.791773e-06
1.357180e-05
2.250893e-05
3.493154e-05
5.027205e-05
6.846579e-05
8.972338e-05
1.138723e-04
1.405391e-04
1.693273e-04
1.997099e-04
2.313146e-04
2.644115e-04
3.001076e-04
3.412303e-04
3.842625e-04
0.000000e+00
2.654235e-06
9.747176e-06
1.869254e-05
3.075804e-05
4.636120e-05
6.490032e-05
8.632982e-05
1.107307e-04
1.378696e-04
1.673090e-04
1.984776e-04
2.308314e-04
2.638207e-04
2.969567e-04
3.346269e-04
3.755252e-04
0.000000e+00
1.560906e-06
7.843193e-06
1.694302e-05
2.908746e-05
4.471451e-05
6.338541e-05
8.499718e-05
1.095823e-04
1.369282e-04
1.665898e-04
1.979903e-04
2.304893e-04
2.631550e-04
2.947520e-04
3.292439e-04
3.671698e-04
0.000000e+00
1.314942e-06
7.280672e-06
1.635409e-05
2.864120e-05
4.421740e-05
6.291452e-05
8.462471e-05
1.093232e-04
1.367800e-04
1.665166e-04
1.979122e-04
2.302672e-04
2.626542e-04
2.940879e-04
3.266840e-04
3.612517e-04
0.000000e+00
1.567592e-06
7.846370e-06
1.693146e-05
2.905847e-05
4.467271e-05
6.333140e-05
8.495932e-05
1.096630e-04
1.372211e-04
1.670309e-04
1.983573e-04
2.304653e-04
2.625604e-04
2.941895e-04
3.260021e-04
3.580645e-04
0.000000e+00
2.664674e-06
9.752854e-06
1.867661e-05
3.071621e-05
4.629747e-05
6.481004e-05
8.626467e-05
1.108786e-04
1.384060e-04
1.681455e-04
1.992549e-04
2.309995e-04
2.627925e-04
2.943334e-04
3.257396e-04
3.567188e-04
0.000000e+00
5.803636e-06
1.358136e-05
2.250258e-05
3.490218e-05
5.020914e-05
6.836871e-05
8.966498e-05
1.140239e-04
1.410274e-04
1.700780e-04
2.004886e-04
2.316572e-04
2.630850e-04
2.944483e-04
3.255980e-04
3.563331e-04
0.000000e+00
1.069946e-05
1.798228e-05
2.763825e-05
4.054344e-05
5.550878e-05
7.335132e-05
9.456825e-05
1.186039e-04
1.448003e-04
1.727069e-04
2.020306e-04
2.324367e-04
2.634371e-04
2.945815e-04
3.255802e-04
3.562876e-04


2.394204e+00
2.292646e+00
2.405659e+00
2.562704e+00
2.680354e+00
2.949213e+00
3.270427e+00
3.628083e+00
4.104715e+00
4.695668e+00
5.296026e+00
5.779272e+00
6.023661e+00
5.764982e+00
4.943989e+00
4.238468e+00
3.601844e+00
3.492888e+00
3.540974e+00
3.621675e+00
3.684405e+00
3.868488e+00
4.094181e+00
4.346423e+00
4.690537e+00
5.125083e+00
5.569755e+00
5.925334e+00
6.071005e+00
5.716041e+00
4.830951e+00
4.068690e+00
5.200383e+00
5.133273e+00
5.127081e+00
5.128238e+00
5.127142e+00
5.199165e+00
5.287981e+00
5.387997e+00
5.535743e+00
5.731011e+00
5.934534e+00
6.095793e+00
6.130830e+00
5.792179e+00
5.042036e+00
4.441329e+00
6.095049e+00
6.059526e+00
6.037993e+00
6.000577e+00
5.980863e+00
5.985713e+00
5.991152e+00
5.997710e+00
6.017866e+00
6.052811e+00
6.093807e+00
6.132957e+00
6.135769e+00
5.957781e+00
5.569325e+00
5.259894e+00
6.094621e+00
6.058922e+00
6.036799e+00
5.998152e+00
5.976458e+00
5.977577e+00
5.976160e+00
5.973217e+00
5.983013e+00
6.006760e+00
6.038306e+00
6.080737e+00
6.126578e+00
6.111993e+00
6.010342e+00
5.920907e+00
5.199022e+00
5.131440e+00
5.123510e+00
5.121590e+00
5.116152e+00
5.179801e+00
5.254363e+00
5.341465e+00
5.483216e+00
5.669530e+00
5.855599e+00
6.016680e+00
6.149141e+00
6.235997e+00
6.268597e+00
6.274588e+00
3.599740e+00
3.490288e+00
3.536466e+00
3.614370e+00
3.674458e+00
3.853191e+00
4.073030e+00
4.337854e+00
4.720327e+00
5.184330e+00
5.619923e+00
5.955711e+00
6.184531e+00
6.324435e+00
6.398082e+00
6.427820e+00
2.391859e+00
2.290154e+00
2.401903e+00
2.557769e+00
2.676368e+00
2.946421e+00
3.275062e+00
3.673243e+00
4.230036e+00
4.886238e+00
5.485873e+00
5.930336e+00
6.212785e+00
6.371625e+00
6.450497e+00
6.482600e+00


-5.533177e-01
-2.312265e-01
-2.076009e-01
-2.580974e-01
-1.780468e-01
-1.787980e-01
-1.898163e-01
-1.670602e-01
-1.562238e-01
-1.554822e-01
-1.232830e-01
-3.655310e-02
9.912706e-02
3.037856e-01
5.558583e-01
-5.721601e-01
5.339949e-01
4.034694e-01
3.416321e-01
2.867976e-01
3.131946e-01
3.012600e-01
2.862724e-01
2.923519e-01
3.011734e-01
3.223989e-01
3.871428e-01
5.130158e-01
6.891595e-01
8.597532e-01
7.508024e-01
-1.274365e+00
8.275597e-01
7.046559e-01
5.915980e-01
5.399455e-01
5.289452e-01
5.112269e-01
4.993569e-01
4.988960e-01
5.053016e-01
5.247565e-01
5.666364e-01
6.216759e-01
6.405207e-01
5.331019e-01
2.254737e-01
-3.154119e-01
8.979253e-01
7.894485e-01
6.733978e-01
6.077803e-01
5.802935e-01
5.661076e-01
5.581789e-01
5.528616e-01
5.435071e-01
5.250197e-01
4.931278e-01
4.333509e-01
3.179035e-01
1.654416e-01
1.248663e-01
1.709480e-01
8.986247e-01
7.902554e-01
6.740225e-01
6.071547e-01
5.766834e-01
5.569217e-01
5.395934e-01
5.183873e-01
4.824914e-01
4.242270e-01
3.436590e-01
2.471052e-01
1.585257e-01
1.560848e-01
3.203740e-01
5.874200e-01
8.292284e-01
7.065846e-01
5.932574e-01
5.394357e-01
5.228731e-01
4.945199e-01
4.638704e-01
4.300642e-01
3.797738e-01
3.148835e-01
2.523340e-01
2.162819e-01
2.441978e-01
3.802143e-01
6.149925e-01
8.625969e-01
5.353439e-01
4.049122e-01
3.430749e-01
2.876202e-01
3.113216e-01
2.949110e-01
2.715879e-01
2.579933e-01
2.318627e-01
2.111803e-01
2.366803e-01
3.245009e-01
4.692233e-01
6.598914e-01
8.527145e-01
9.758323e-01
-5.541958e-01
-2.329229e-01
-2.092233e-01
-2.591607e-01
-1.786032e-01
-1.754906e-01
-1.778081e-01
-1.480582e-01
-1.208676e-01
-5.051194e-02
1.336827e-01
4.115292e-01
6.882851e-01
8.834310e-01
9.770856e-01
9.995468e-01
1 2 19 18
2 3 20 19
3 4 21 20
4 5 22 21
5 6 23 22
6 7 24 23
7 8 25 24
8 9 26 25
9 10 27 26
10 11 28 27
11 12 29 28
12 13 30 29
13 14 31 30
14 15 32 31
15 16 33 32
16 17 34 33
18 19 36 35
19 20 37 36
20 21 38 37
21 22 39 38
22 23 40 39
23 24 41 40
24 25 42 41
25 26 43 42
26 27 44 43
27 28 45 44
28 29 46 45
29 30 47 46
30 31 48 47
31 32 49 48
32 33 50 49
33 34 51 50
35 36 53 52
36 37 54 53
37 38 55 54
38 39 56 55
39 40 57 56
40 41 58 57
41 42 59 58
42 43 60 59
43 44 61 60
44 45 62 61
45 46 63 62
46 47 64 63
47 48 65 64
48 49 66 65
49 50 67 66
50 51 68 67
52 53 70 69
53 54 71 70
54 55 72 71
55 56 73 72
56 57 74 73
57 58 75 74
58 59 76 75
59 60 77 76
60 61 78 77
61 62 79 78
62 63 80 79
63 64 81 80
64 65 82 81
65 66 83 82
66 67 84 83
67 68 85 84
69 70 87 86
70 71 88 87
71 72 89 88
72 73 90 89
73 74 91 90
74 75 92 91
75 76 93 92
76 77 94 93
77 78 95 94
78 79 96 95
79 80 97 96
80 81 98 97
81 82 99 98
82 83 100 99
83 84 101 100
84 85 102 101
86 87 104 103
87 88 105 104
88 89 106 105
89 90 107 106
90 91 108 107
91 92 109 108
92 93 110 109
93 94 111 110
94 95 112 111
95 96 113 112
96 97 114 113
97 98 115 114
98 99 116 115
99 100 117 116
100 101 118 117
101 102 119 118
103 104 121 120
104 105 122 121
105 106 123 122
106 107 124 123
107 108 125 124
108 109 126 125
109 110 127 126
110 111 128 127
111 112 129 128
112 113 130 129
113 114 131 130
114 115 132 131
115 116 133 132
116 117 134 133
117 118 135 134
118 119 136 135
120 121 138 137
121 122 139 138
122 123 140 139
123 124 141 140
124 125 142 141
125 126 143 142
126 127 144 143
127 128 145 144
128 129 146 145
129 130 147 146
130 131 148 147
131 132 149 148
132 133 150 149
133 134 151 150
134 135 152 151
135 136 153 152
