TITLE = "Solution"
VARIABLES = x, y, u, v, psiu, psiv, t, stress
ZONE T="structure" N=153 E=128 F=FEBLOCK ET=QUADRILATERAL VARLOCATION=([7,8]=cellcentered)
0.000000e+00
1.250000e+01
2.500000e+01
3.750000e+01
5.000000e+01
6.250000e+01
7.500000e+01
8.750000e+01
1.000000e+02
1.125000e+02
1.250000e+02
1.375000e+02
1.500000e+02
1.625000e+02
1.750000e+02
1.875000e+02
2.000000e+02
0.000000e+00
1.250000e+01
2.500000e+01
3.750000e+01
5.000000e+01
6.250000e+01
7.500000e+01
8.750000e+01
1.000000e+02
1.125000e+02
1.250000e+02
1.375000e+02
1.500000e+02
1.625000e+02
1.750000e+02
1.875000e+02
2.000000e+02
0.000000e+00
1.250000e+01
2.500000e+01
3.750000e+01
5.000000e+01
6.250000e+01
7.500000e+01
8.750000e+01
1.000000e+02
1.125000e+02
1.250000e+02
1.375000e+02
1.500000e+02
1.625000e+02
1.750000e+02
1.875000e+02
2.000000e+02
0.000000e+00
1.250000e+01
2.500000e+01
3.750000e+01
5.000000e+01
6.250000e+01
7.500000e+01
8.750000e+01
1.000000e+02
1.125000e+02
1.250000e+02
1.375000e+02
1.500000e+02
1.625000e+02
1.750000e+02
1.875000e+02
2.000000e+02
0.000000e+00
1.250000e+01
2.500000e+01
3.750000e+01
5.000000e+01
6.250000e+01
7.500000e+01
8.750000e+01
1.000000e+02
1.125000e+02
1.250000e+02
1.375000e+02
1.500000e+02
1.625000e+02
1.750000e+02
1.875000e+02
2.000000e+02
0.000000e+00
1.250000e+01
2.500000e+01
3.750000e+01
5.000000e+01
6.250000e+01
7.500000e+01
8.750000e+01
1.000000e+02
1.125000e+02
1.250000e+02
1.375000e+02
1.500000e+02
1.625000e+02
1.750000e+02
1.875000e+02
2.000000e+02
0.000000e+00
1.250000e+01
2.500000e+01
3.750000e+01
5.000000e+01
6.250000e+01
7.500000e+01
8.750000e+01
1.000000e+02
1.125000e+02
1.250000e+02
1.375000e+02
1.500000e+02
1.625000e+02
1.750000e+02
1.875000e+02
2.000000e+02
0.000000e+00
1.250000e+01
2.500000e+01
3.750000e+01
5.000000e+01
6.250000e+01
7.500000e+01
8.750000e+01
1.000000e+02
1.125000e+02
1.250000e+02
1.375000e+02
1.500000e+02
1.625000e+02
1.750000e+02
1.875000e+02
2.000000e+02
0.000000e+00
1.250000e+01
2.500000e+01
3.750000e+01
5.000000e+01
6.250000e+01
7.500000e+01
8.750000e+01
1.000000e+02
1.125000e+02
1.250000e+02
1.375000e+02
1.500000e+02
1.625000e+02
1.750000e+02
1.875000e+02
2.000000e+02
0.000000e+00
0.000000e+00
0.000000e+00
0.000000e+00
0.000000e+00
0.000000e+00
0.000000e+00
0.000000e+00
0.000000e+00
0.000000e+00
0.000000e+00
0.000000e+00
0.000000e+00
0.000000e+00
0.000000e+00
0.000000e+00
0.000000e+00
1.250000e+01
1.250000e+01
1.250000e+01
1.250000e+01
1.250000e+01
1.250000e+01
1.250000e+01
1.250000e+01
1.250000e+01
1.250000e+01
1.250000e+01
1.250000e+01
1.250000e+01
1.250000e+01
1.250000e+01
1.250000e+01
1.250000e+01
2.500000e+01
2.500000e+01
2.500000e+01
2.500000e+01
2.500000e+01
2.500000e+01
2.500000e+01
2.500000e+01
2.500000e+01
2.500000e+01
2.500000e+01
2.500000e+01
2.500000e+01
2.500000e+01
2.500000e+01
2.500000e+01
2.500000e+01
3.750000e+01
3.750000e+01
3.750000e+01
3.750000e+01
3.750000e+01
3.750000e+01
3.750000e+01
3.750000e+01
3.750000e+01
3.750000e+01
3.750000e+01
3.750000e+01
3.750000e+01
3.750000e+01
3.750000e+01
3.750000e+01
3.750000e+01
5.000000e+01
5.000000e+01
5.000000e+01
5.000000e+01
5.000000e+01
5.000000e+01
5.000000e+01
5.000000e+01
5.000000e+01
5.000000e+01
5.000000e+01
5.000000e+01
5.000000e+01
5.000000e+01
5.000000e+01
5.000000e+01
5.000000e+01
6.250000e+01
6.250000e+01
6.250000e+01
6.250000e+01
6.250000e+01
6.250000e+01
6.250000e+01
6.250000e+01
6.250000e+01
6.250000e+01
6.250000e+01
6.250000e+01
6.250000e+01
6.250000e+01
6.250000e+01
6.250000e+01
6.250000e+01
7.500000e+01
7.500000e+01
7.500000e+01
7.500000e+01
7.500000e+01
7.500000e+01
7.500000e+01
7.500000e+01
7.500000e+01
7.500000e+01
7.500000e+01
7.500000e+01
7.500000e+01
7.500000e+01
7.500000e+01
7.500000e+01
7.500000e+01
8.750000e+01
8.750000e+01
8.750000e+01
8.750000e+01
8.750000e+01
8.750000e+01
8.750000e+01
8.750000e+01
8.750000e+01
8.750000e+01
8.750000e+01
8.750000e+01
8.750000e+01
8.750000e+01
8.750000e+01
8.750000e+01
8.750000e+01
1.000000e+02
1.000000e+02
1.000000e+02
1.000000e+02
1.000000e+02
1.000000e+02
1.000000e+02
1.000000e+02
1.000000e+02
1.000000e+02
1.000000e+02
1.000000e+02
1.000000e+02
1.000000e+02
1.000000e+02
1.000000e+02
1.000000e+02
0.000000e+00
-8.047235e-01
-1.469324e+00
-2.103256e+00
-2.739146e+00
-3.363689e+00
-3.971310e+00
-4.558277e+00
-5.117813e+00
-5.642730e+00
-6.127919e+00
-6.573336e+00
-6.988232e+00
-7.395118e+00
-7.833607e+00
-8.350477e+00
-8.728383e+00
0.000000e+00
-4.594149e-01
-9.550231e-01
-1.433160e+00
-1.910997e+00
-2.379660e+00
-2.835001e+00
-3.274562e+00
-3.693343e+00
-4.085300e+00
-4.444662e+00
-4.766838e+00
-5.048507e+00
-5.282744e+00
-5.445539e+00
-5.481191e+00
-5.600548e+00
0.000000e+00
-2.715982e-01
-5.655600e-01
-8.805664e-01
-1.200019e+00
-1.514240e+00
-1.819372e+00
-2.112406e+00
-2.388945e+00
-2.643474e+00
-2.869421e+00
-3.058887e+00
-3.201578e+00
-3.282701e+00
-3.287008e+00
-3.257921e+00
-3.381539e+00
0.000000e+00
-1.255846e-01
-2.645656e-01
-4.177336e-01
-5.772599e-01
-7.351718e-01
-8.881470e-01
-1.033339e+00
-1.167298e+00
-1.285552e+00
-1.382312e+00
-1.450487e+00
-1.482546e+00
-1.474643e+00
-1.443006e+00
-1.450505e+00
-1.544948e+00
0.000000e+00
-3.409378e-04
-7.389440e-04
-1.132397e-03
-1.397929e-03
-1.258006e-03
-1.634157e-04
2.873455e-03
9.500906e-03
2.221296e-02
4.429782e-02
7.909954e-02
1.276231e-01
1.828127e-01
2.215293e-01
2.127048e-01
1.488263e-01
0.000000e+00
1.250511e-01
2.633656e-01
4.158229e-01
5.747989e-01
7.327538e-01
8.871958e-01
1.036812e+00
1.180727e+00
1.318414e+00
1.449497e+00
1.572948e+00
1.684986e+00
1.775885e+00
1.829955e+00
1.834995e+00
1.802231e+00
0.000000e+00
2.714369e-01
5.650741e-01
8.796161e-01
1.198608e+00
1.512509e+00
1.817631e+00
2.111362e+00
2.389929e+00
2.648785e+00
2.883049e+00
3.087531e+00
3.256338e+00
3.382360e+00
3.458424e+00
3.483313e+00
3.475716e+00
0.000000e+00
4.596901e-01
9.554009e-01
1.433535e+00
1.911414e+00
2.380030e+00
2.834746e+00
3.272217e+00
3.685623e+00
4.065737e+00
4.402387e+00
4.685708e+00
4.907952e+00
5.065261e+00
5.159431e+00
5.199642e+00
5.207053e+00
0.000000e+00
8.052217e-01
1.470355e+00
2.104996e+00
2.742028e+00
3.368043e+00
3.976829e+00
4.563198e+00
5.116953e+00
5.624265e+00
6.069250e+00
6.435642e+00
6.710102e+00
6.886557e+00
6.971970e+00
6.992918e+00
6.992433e+00
0.000000e+00
-4.916041e-01
-9.933363e-01
-1.655391e+00
-2.474405e+00
-3.451718e+00
-4.585966e+00
-5.872453e+00
-7.303164e+00
-8.867939e+00
-1.055534e+01
-1.235505e+01
-1.426287e+01
-1.629052e+01
-1.849837e+01
-2.107681e+01
-2.491568e+01
0.000000e+00
-3.064215e-01
-8.293015e-01
-1.488654e+00
-2.309013e+00
-3.290113e+00
-4.429468e+00
-5.722498e+00
-7.161798e+00
-8.737209e+00
-1.043678e+01
-1.224910e+01
-1.416858e+01
-1.620687e+01
-1.841750e+01
-2.098171e+01
-2.418725e+01
0.000000e+00
-2.404912e-01
-7.176951e-01
-1.372536e+00
-2.191930e+00
-3.175506e+00
-4.319155e+00
-5.618072e+00
-7.065182e+00
-8.650752e+00
-1.036313e+01
-1.219112e+01
-1.412946e+01
-1.618787e+01
-1.840289e+01
-2.081529e+01
-2.312924e+01
0.000000e+00
-2.214009e-01
-6.668082e-01
-1.306448e+00
-2.123243e+00
-3.107982e+00
-4.255220e+00
-5.559541e+00
-7.014076e+00
-8.609578e+00
-1.033475e+01
-1.217806e+01
-1.413136e+01
-1.619265e+01
-1.835517e+01
-2.053984e+01
-2.251113e+01
0.000000e+00
-2.182606e-01
-6.529782e-01
-1.286244e+00
-2.101139e+00
-3.086852e+00
-4.236581e+00
-5.544950e+00
-7.005370e+00
-8.608862e+00
-1.034376e+01
-1.219633e+01
-1.415156e+01
-1.619020e+01
-1.827151e+01
-2.030417e+01
-2.213302e+01
0.000000e+00
-2.212212e-01
-6.667315e-01
-1.306760e+00
-2.124467e+00
-3.111058e+00
-4.261642e+00
-5.571577e+00
-7.034794e+00
-8.642280e+00
-1.038128e+01
-1.223465e+01
-1.417958e+01
-1.618354e+01
-1.819599e+01
-2.014098e+01
-2.191885e+01
0.000000e+00
-2.402031e-01
-7.175564e-01
-1.373013e+00
-2.193910e+00
-3.180566e+00
-4.329825e+00
-5.638208e+00
-7.100031e+00
-8.706039e+00
-1.044229e+01
-1.228863e+01
-1.421667e+01
-1.618742e+01
-1.815019e+01
-2.004730e+01
-2.182385e+01
0.000000e+00
-3.061512e-01
-8.291534e-01
-1.489196e+00
-2.311291e+00
-3.295932e+00
-4.441713e+00
-5.745537e+00
-7.201501e+00
-8.799889e+00
-1.052602e+01
-1.235834e+01
-1.426632e+01
-1.620930e+01
-1.813858e+01
-2.000842e+01
-2.180166e+01
0.000000e+00
-4.914630e-01
-9.932897e-01
-1.656097e+00
-2.476961e+00
-3.457892e+00
-4.598508e+00
-5.895357e+00
-7.341433e+00
-8.926320e+00
-1.063491e+01
-1.244558e+01
-1.432840e+01
-1.624433e+01
-1.814822e+01
-2.000128e+01
-2.180209e+01


0.000000e+00
7.345409e-06
1.502581e-05
2.216207e-05
2.897087e-05
3.526800e-05
4.072021e-05
4.513237e-05
4.853322e-05
5.102280e-05
5.270740e-05
5.379922e-05
5.452801e-05
5.508863e-05
5.565499e-05
5.647289e-05
5.753964e-05
0.000000e+00
5.330417e-06
1.200005e-05
1.747981e-05
2.259368e-05
2.733734e-05
3.139733e-05
3.459891e-05
3.700333e-05
3.870929e-05
3.979825e-05
4.042396e-05
4.073877e-05
4.082559e-05
4.092716e-05
4.157973e-05
4.268720e-05
0.000000e+00
3.979590e-06
8.320616e-06
1.202629e-05
1.550039e-05
1.863991e-05
2.128748e-05
2.335774e-05
2.489114e-05
2.594551e-05
2.657668e-05
2.688464e-05
2.698084e-05
2.697762e-05
2.707965e-05
2.761568e-05
2.851797e-05
0.000000e+00
2.006731e-06
3.913377e-06
5.866104e-06
7.656529e-06
9.223344e-06
1.053341e-05
1.156914e-05
1.233598e-05
1.285247e-05
1.314851e-05
1.328384e-05
1.333468e-05
1.339320e-05
1.353556e-05
1.384758e-05
1.435089e-05
0.000000e+00
-7.944053e-10
-1.364775e-09
-2.280936e-09
-5.097863e-09
-1.280782e-08
-2.771081e-08
-5.056860e-08
-8.075871e-08
-1.163515e-07
-1.513170e-07
-1.725185e-07
-1.586492e-07
-9.257890e-08
3.572806e-09
1.236809e-07
3.396029e-07
0.000000e+00
-2.012381e-06
-3.919209e-06
-5.868105e-06
-7.656926e-06
-9.231615e-06
-1.056278e-05
-1.163180e-05
-1.244310e-05
-1.301364e-05
-1.336699e-05
-1.354588e-05
-1.360079e-05
-1.358978e-05
-1.357202e-05
-1.355565e-05
-1.347943e-05
0.000000e+00
-3.992494e-06
-8.334019e-06
-1.202610e-05
-1.548856e-05
-1.862674e-05
-2.127963e-05
-2.335601e-05
-2.489676e-05
-2.596727e-05
-2.662133e-05
-2.695378e-05
-2.709368e-05
-2.714905e-05
-2.718489e-05
-2.720621e-05
-2.718595e-05
0.000000e+00
-5.347043e-06
-1.201728e-05
-1.747854e-05
-2.257730e-05
-2.731515e-05
-3.136699e-05
-3.454773e-05
-3.692136e-05
-3.860327e-05
-3.967257e-05
-4.026653e-05
-4.057177e-05
-4.073204e-05
-4.082479e-05
-4.087210e-05
-4.087890e-05
0.000000e+00
-7.362089e-06
-1.503962e-05
-2.215755e-05
-2.895078e-05
-3.523494e-05
-4.066427e-05
-4.503534e-05
-4.838194e-05
-5.081984e-05
-5.245226e-05
-5.345434e-05
-5.403491e-05
-5.436252e-05
-5.453706e-05
-5.460733e-05
-5.462002e-05
0.000000e+00
6.537357e-06
1.148342e-05
1.719572e-05
2.453987e-05
3.333670e-05
4.334637e-05
5.440711e-05
6.635264e-05
7.895020e-05
9.199931e-05
1.054001e-04
1.190992e-04
1.332002e-04
1.483346e-04
1.649708e-04
1.819881e-04
0.000000e+00
3.310812e-06
8.248983e-06
1.408941e-05
2.158717e-05
3.068546e-05
4.115213e-05
5.270695e-05
6.510194e-05
7.809511e-05
9.146746e-05
1.050900e-04
1.189239e-04
1.330293e-04
1.476752e-04
1.635708e-04
1.801728e-04
0.000000e+00
1.418507e-06
5.743856e-06
1.179327e-05
1.943902e-05
2.877573e-05
3.957160e-05
5.148577e-05
6.421308e-05
7.749808e-05
9.111405e-05
1.049143e-04
1.188508e-04
1.328918e-04
1.470127e-04
1.620706e-04
1.780163e-04
0.000000e+00
7.979429e-07
4.653776e-06
1.067199e-05
1.843981e-05
2.790170e-05
3.883368e-05
5.089998e-05
6.378132e-05
7.720929e-05
9.094895e-05
1.048395e-04
1.188023e-04
1.327585e-04
1.466415e-04
1.610974e-04
1.762617e-04
0.000000e+00
6.790079e-07
4.369651e-06
1.031676e-05
1.813749e-05
2.764255e-05
3.861251e-05
5.072239e-05
6.365275e-05
7.712867e-05
9.091017e-05
1.048227e-04
1.187688e-04
1.326761e-04
1.465302e-04
1.606764e-04
1.751488e-04
0.000000e+00
7.987014e-07
4.658003e-06
1.067423e-05
1.843721e-05
2.789900e-05
3.883746e-05
5.091336e-05
6.380618e-05
7.725026e-05
9.100492e-05
1.048851e-04
1.187892e-04
1.326696e-04
1.465400e-04
1.605299e-04
1.745697e-04
0.000000e+00
1.420236e-06
5.747989e-06
1.179186e-05
1.943114e-05
2.877143e-05
3.958170e-05
5.151566e-05
6.426732e-05
7.758569e-05
9.123314e-05
1.050226e-04
1.188577e-04
1.327051e-04
1.465684e-04
1.604679e-04
1.743131e-04
0.000000e+00
3.315206e-06
8.250277e-06
1.408121e-05
2.157554e-05
3.068232e-05
4.116626e-05
5.274380e-05
6.517066e-05
7.820778e-05
9.161754e-05
1.052299e-04
1.189568e-04
1.327527e-04
1.465916e-04
1.604393e-04
1.742269e-04
0.000000e+00
6.546702e-06
1.148104e-05
1.718186e-05
2.452735e-05
3.333474e-05
4.335752e-05
5.443459e-05
6.641024e-05
7.905277e-05
9.213043e-05
1.055066e-04
1.190940e-04
1.328195e-04
1.466213e-04
1.604376e-04
1.742133e-04


2.152797e+00
2.122166e+00
2.232524e+00
2.433759e+00
2.614082e+00
2.806130e+00
3.014636e+00
3.219753e+00
3.404915e+00
3.554793e+00
3.659159e+00
3.719180e+00
3.731500e+00
3.660013e+00
3.514018e+00
3.402471e+00
2.525873e+00
2.494797e+00
2.573079e+00
2.726559e+00
2.865763e+00
3.014269e+00
3.176208e+00
3.336482e+00
3.482658e+00
3.602423e+00
3.686554e+00
3.734300e+00
3.740269e+00
3.667710e+00
3.528128e+00
3.422949e+00
3.110621e+00
3.086177e+00
3.123135e+00
3.202997e+00
3.275258e+00
3.353996e+00
3.439725e+00
3.526235e+00
3.607901e+00
3.677144e+00
3.726930e+00
3.754938e+00
3.755152e+00
3.698431e+00
3.592201e+00
3.514742e+00
3.504275e+00
3.486979e+00
3.495661e+00
3.523019e+00
3.552839e+00
3.584004e+00
3.617148e+00
3.652726e+00
3.689240e+00
3.722573e+00
3.748202e+00
3.763636e+00
3.764517e+00
3.735442e+00
3.680281e+00
3.640703e+00
3.504354e+00
3.486741e+00
3.495062e+00
3.522279e+00
3.551963e+00
3.582719e+00
3.615252e+00
3.649922e+00
3.685042e+00
3.717127e+00
3.742564e+00
3.759539e+00
3.766621e+00
3.759545e+00
3.741750e+00
3.729390e+00
3.110761e+00
3.085489e+00
3.121592e+00
3.201240e+00
3.273319e+00
3.351337e+00
3.436192e+00
3.521161e+00
3.599872e+00
3.666275e+00
3.715614e+00
3.747558e+00
3.765366e+00
3.772411e+00
3.773691e+00
3.774141e+00
2.525832e+00
2.493740e+00
2.571112e+00
2.724643e+00
2.864104e+00
3.012652e+00
3.175081e+00
3.335401e+00
3.479897e+00
3.597855e+00
3.682288e+00
3.734903e+00
3.764465e+00
3.780228e+00
3.788888e+00
3.793177e+00
2.152531e+00
2.120891e+00
2.230494e+00
2.432041e+00
2.613134e+00
2.806169e+00
3.016692e+00
3.223868e+00
3.409561e+00
3.559801e+00
3.665700e+00
3.730461e+00
3.766315e+00
3.785384e+00
3.795454e+00
3.800070e+00


-4.086699e-01
-1.836289e-01
-8.335162e-02
-8.736999e-02
-4.892632e-02
6.979993e-03
7.281315e-02
1.569427e-01
2.590409e-01
3.716984e-01
4.826315e-01
5.770598e-01
6.452289e-01
6.859043e-01
7.267336e-01
-1.457296e-01
5.080270e-01
4.028363e-01
4.014846e-01
3.933503e-01
4.087524e-01
4.346887e-01
4.675587e-01
5.126612e-01
5.720143e-01
6.445603e-01
7.265447e-01
8.118006e-01
8.925556e-01
9.489292e-01
8.360924e-01
-7.091406e-01
8.309023e-01
7.562225e-01
7.039539e-01
6.845218e-01
6.827188e-01
6.878904e-01
6.982348e-01
7.155787e-01
7.415472e-01
7.763123e-01
8.164769e-01
8.516811e-01
8.596866e-01
7.942379e-01
5.663045e-01
1.605359e-01
9.486422e-01
8.906707e-01
8.443413e-01
8.201120e-01
8.098068e-01
8.040395e-01
7.995828e-01
7.959373e-01
7.934665e-01
7.916499e-01
7.868351e-01
7.701356e-01
7.287630e-01
6.605031e-01
6.097012e-01
6.014269e-01
9.489729e-01
8.911306e-01
8.448183e-01
8.202006e-01
8.087525e-01
8.005635e-01
7.915155e-01
7.799744e-01
7.652823e-01
7.468802e-01
7.241023e-01
6.975237e-01
6.745462e-01
6.785751e-01
7.370549e-01
8.357530e-01
8.315624e-01
7.572445e-01
7.051115e-01
6.849812e-01
6.810519e-01
6.816411e-01
6.830422e-01
6.846796e-01
6.858374e-01
6.858005e-01
6.856407e-01
6.910569e-01
7.150363e-01
7.719840e-01
8.590608e-01
9.490268e-01
5.081649e-01
4.034573e-01
4.023263e-01
3.937604e-01
4.080962e-01
4.321492e-01
4.613991e-01
5.003260e-01
5.499576e-01
6.076557e-01
6.696246e-01
7.336225e-01
8.016812e-01
8.762136e-01
9.467241e-01
9.911373e-01
-4.100778e-01
-1.848474e-01
-8.468083e-02
-8.967858e-02
-5.181062e-02
5.417069e-03
7.620945e-02
1.728215e-01
2.994705e-01
4.506027e-01
6.121990e-01
7.629920e-01
8.819064e-01
9.571071e-01
9.916050e-01
9.998256e-01
1 2 19 18
2 3 20 19
3 4 21 20
4 5 22 21
5 6 23 22
6 7 24 23
7 8 25 24
8 9 26 25
9 10 27 26
10 11 28 27
11 12 29 28
12 13 30 29
13 14 31 30
14 15 32 31
15 16 33 32
16 17 34 33
18 19 36 35
19 20 37 36
20 21 38 37
21 22 39 38
22 23 40 39
23 24 41 40
24 25 42 41
25 26 43 42
26 27 44 43
27 28 45 44
28 29 46 45
29 30 47 46
30 31 48 47
31 32 49 48
32 33 50 49
33 34 51 50
35 36 53 52
36 37 54 53
37 38 55 54
38 39 56 55
39 40 57 56
40 41 58 57
41 42 59 58
42 43 60 59
43 44 61 60
44 45 62 61
45 46 63 62
46 47 64 63
47 48 65 64
48 49 66 65
49 50 67 66
50 51 68 67
52 53 70 69
53 54 71 70
54 55 72 71
55 56 73 72
56 57 74 73
57 58 75 74
58 59 76 75
59 60 77 76
60 61 78 77
61 62 79 78
62 63 80 79
63 64 81 80
64 65 82 81
65 66 83 82
66 67 84 83
67 68 85 84
69 70 87 86
70 71 88 87
71 72 89 88
72 73 90 89
73 74 91 90
74 75 92 91
75 76 93 92
76 77 94 93
77 78 95 94
78 79 96 95
79 80 97 96
80 81 98 97
81 82 99 98
82 83 100 99
83 84 101 100
84 85 102 101
86 87 104 103
87 88 105 104
88 89 106 105
89 90 107 106
90 91 108 107
91 92 109 108
92 93 110 109
93 94 111 110
94 95 112 111
95 96 113 112
96 97 114 113
97 98 115 114
98 99 116 115
99 100 117 116
100 101 118 117
101 102 119 118
103 104 121 120
104 105 122 121
105 106 123 122
106 107 124 123
107 108 125 124
108 109 126 125
109 110 127 126
110 111 128 127
111 112 129 128
112 113 130 129
113 114 131 130
114 115 132 131
115 116 133 132
116 117 134 133
117 118 135 134
118 119 136 135
120 121 138 137
121 122 139 138
122 123 140 139
123 124 141 140
124 125 142 141
125 126 143 142
126 127 144 143
127 128 145 144
128 129 146 145
129 130 147 146
130 131 148 147
131 132 149 148
132 133 150 149
133 134 151 150
134 135 152 151
135 136 153 152
