TITLE = "Solution"
VARIABLES = x, y, u, v, psiu, psiv, t, stress
ZONE T="structure" N=153 E=128 F=FEBLOCK ET=QUADRILATERAL VARLOCATION=([7,8]=cellcentered)
0.000000e+00
1.250000e+01
2.500000e+01
3.750000e+01
5.000000e+01
6.250000e+01
7.500000e+01
8.750000e+01
1.000000e+02
1.125000e+02
1.250000e+02
1.375000e+02
1.500000e+02
1.625000e+02
1.750000e+02
1.875000e+02
2.000000e+02
0.000000e+00
1.250000e+01
2.500000e+01
3.750000e+01
5.000000e+01
6.250000e+01
7.500000e+01
8.750000e+01
1.000000e+02
1.125000e+02
1.250000e+02
1.375000e+02
1.500000e+02
1.625000e+02
1.750000e+02
1.875000e+02
2.000000e+02
0.000000e+00
1.250000e+01
2.500000e+01
3.750000e+01
5.000000e+01
6.250000e+01
7.500000e+01
8.750000e+01
1.000000e+02
1.125000e+02
1.250000e+02
1.375000e+02
1.500000e+02
1.625000e+02
1.750000e+02
1.875000e+02
2.000000e+02
0.000000e+00
1.250000e+01
2.500000e+01
3.750000e+01
5.000000e+01
6.250000e+01
7.500000e+01
8.750000e+01
1.000000e+02
1.125000e+02
1.250000e+02
1.375000e+02
1.500000e+02
1.625000e+02
1.750000e+02
1.875000e+02
2.000000e+02
0.000000e+00
1.250000e+01
2.500000e+01
3.750000e+01
5.000000e+01
6.250000e+01
7.500000e+01
8.750000e+01
1.000000e+02
1.125000e+02
1.250000e+02
1.375000e+02
1.500000e+02
1.625000e+02
1.750000e+02
1.875000e+02
2.000000e+02
0.000000e+00
1.250000e+01
2.500000e+01
3.750000e+01
5.000000e+01
6.250000e+01
7.500000e+01
8.750000e+01
1.000000e+02
1.125000e+02
1.250000e+02
1.375000e+02
1.500000e+02
1.625000e+02
1.750000e+02
1.875000e+02
2.000000e+02
0.000000e+00
1.250000e+01
2.500000e+01
3.750000e+01
5.000000e+01
6.250000e+01
7.500000e+01
8.750000e+01
1.000000e+02
1.125000e+02
1.250000e+02
1.375000e+02
1.500000e+02
1.625000e+02
1.750000e+02
1.875000e+02
2.000000e+02
0.000000e+00
1.250000e+01
2.500000e+01
3.750000e+01
5.000000e+01
6.250000e+01
7.500000e+01
8.750000e+01
1.000000e+02
1.125000e+02
1.250000e+02
1.375000e+02
1.500000e+02
1.625000e+02
1.750000e+02
1.875000e+02
2.000000e+02
0.000000e+00
1.250000e+01
2.500000e+01
3.750000e+01
5.000000e+01
6.250000e+01
7.500000e+01
8.750000e+01
1.000000e+02
1.125000e+02
1.250000e+02
1.375000e+02
1.500000e+02
1.625000e+02
1.750000e+02
1.875000e+02
2.000000e+02
0.000000e+00
0.000000e+00
0.000000e+00
0.000000e+00
0.000000e+00
0.000000e+00
0.000000e+00
0.000000e+00
0.000000e+00
0.000000e+00
0.000000e+00
0.000000e+00
0.000000e+00
0.000000e+00
0.000000e+00
0.000000e+00
0.000000e+00
1.250000e+01
1.250000e+01
1.250000e+01
1.250000e+01
1.250000e+01
1.250000e+01
1.250000e+01
1.250000e+01
1.250000e+01
1.250000e+01
1.250000e+01
1.250000e+01
1.250000e+01
1.250000e+01
1.250000e+01
1.250000e+01
1.250000e+01
2.500000e+01
2.500000e+01
2.500000e+01
2.500000e+01
2.500000e+01
2.500000e+01
2.500000e+01
2.500000e+01
2.500000e+01
2.500000e+01
2.500000e+01
2.500000e+01
2.500000e+01
2.500000e+01
2.500000e+01
2.500000e+01
2.500000e+01
3.750000e+01
3.750000e+01
3.750000e+01
3.750000e+01
3.750000e+01
3.750000e+01
3.750000e+01
3.750000e+01
3.750000e+01
3.750000e+01
3.750000e+01
3.750000e+01
3.750000e+01
3.750000e+01
3.750000e+01
3.750000e+01
3.750000e+01
5.000000e+01
5.000000e+01
5.000000e+01
5.000000e+01
5.000000e+01
5.000000e+01
5.000000e+01
5.000000e+01
5.000000e+01
5.000000e+01
5.000000e+01
5.000000e+01
5.000000e+01
5.000000e+01
5.000000e+01
5.000000e+01
5.000000e+01
6.250000e+01
6.250000e+01
6.250000e+01
6.250000e+01
6.250000e+01
6.250000e+01
6.250000e+01
6.250000e+01
6.250000e+01
6.250000e+01
6.250000e+01
6.250000e+01
6.250000e+01
6.250000e+01
6.250000e+01
6.250000e+01
6.250000e+01
7.500000e+01
7.500000e+01
7.500000e+01
7.500000e+01
7.500000e+01
7.500000e+01
7.500000e+01
7.500000e+01
7.500000e+01
7.500000e+01
7.500000e+01
7.500000e+01
7.500000e+01
7.500000e+01
7.500000e+01
7.500000e+01
7.500000e+01
8.750000e+01
8.750000e+01
8.750000e+01
8.750000e+01
8.750000e+01
8.750000e+01
8.750000e+01
8.750000e+01
8.750000e+01
8.750000e+01
8.750000e+01
8.750000e+01
8.750000e+01
8.750000e+01
8.750000e+01
8.750000e+01
8.750000e+01
1.000000e+02
1.000000e+02
1.000000e+02
1.000000e+02
1.000000e+02
1.000000e+02
1.000000e+02
1.000000e+02
1.000000e+02
1.000000e+02
1.000000e+02
1.000000e+02
1.000000e+02
1.000000e+02
1.000000e+02
1.000000e+02
1.000000e+02
0.000000e+00
-7.243321e-02
-1.333725e-01
-1.894446e-01
-2.416633e-01
-2.899185e-01
-3.341068e-01
-3.741938e-01
-4.102378e-01
-4.424049e-01
-4.710140e-01
-4.966242e-01
-5.201974e-01
-5.433955e-01
-5.690843e-01
-6.006335e-01
-6.243077e-01
0.000000e+00
-4.325584e-02
-8.985559e-02
-1.328875e-01
-1.725330e-01
-2.089431e-01
-2.421930e-01
-2.723275e-01
-2.994007e-01
-3.234962e-01
-3.447362e-01
-3.632738e-01
-3.792274e-01
-3.924326e-01
-4.017470e-01
-4.037885e-01
-4.111080e-01
0.000000e+00
-2.705097e-02
-5.562356e-02
-8.412894e-02
-1.107378e-01
-1.351685e-01
-1.574011e-01
-1.774608e-01
-1.953527e-01
-2.110467e-01
-2.244585e-01
-2.354008e-01
-2.434833e-01
-2.479952e-01
-2.481205e-01
-2.463180e-01
-2.537833e-01
0.000000e+00
-1.305647e-02
-2.687850e-02
-4.078781e-02
-5.408762e-02
-6.633756e-02
-7.744093e-02
-8.736537e-02
-9.605410e-02
-1.033940e-01
-1.091976e-01
-1.131909e-01
-1.150470e-01
-1.146133e-01
-1.128318e-01
-1.133190e-01
-1.188777e-01
0.000000e+00
-1.202743e-05
-2.734212e-05
-4.260653e-05
-5.070761e-05
-3.578364e-05
3.364891e-05
2.140833e-04
5.982045e-04
1.324072e-03
2.571803e-03
4.522341e-03
7.224579e-03
1.027824e-02
1.238762e-02
1.180908e-02
8.128750e-03
0.000000e+00
1.303797e-02
2.683553e-02
4.071908e-02
5.400214e-02
6.626804e-02
7.746790e-02
8.765650e-02
9.692219e-02
1.053724e-01
1.131177e-01
1.202152e-01
1.265417e-01
1.316149e-01
1.345992e-01
1.348359e-01
1.329679e-01
0.000000e+00
2.704794e-02
5.561431e-02
8.411052e-02
1.107091e-01
1.351327e-01
1.573714e-01
1.774705e-01
1.954716e-01
2.114066e-01
2.252895e-01
2.370864e-01
2.466616e-01
2.537408e-01
2.579899e-01
2.593696e-01
2.589340e-01
0.000000e+00
4.327358e-02
8.989417e-02
1.329490e-01
1.726156e-01
2.090314e-01
2.422426e-01
2.722369e-01
2.989686e-01
3.223605e-01
3.423017e-01
3.586542e-01
3.712874e-01
3.801593e-01
3.854516e-01
3.877085e-01
3.881230e-01
0.000000e+00
7.246289e-02
1.334508e-01
1.895912e-01
2.418975e-01
2.902480e-01
3.344998e-01
3.745242e-01
4.101875e-01
4.413042e-01
4.676046e-01
4.887380e-01
5.043573e-01
5.143398e-01
5.191674e-01
5.203590e-01
5.203360e-01
0.000000e+00
-4.384582e-02
-8.607443e-02
-1.407929e-01
-2.079484e-01
-2.874155e-01
-3.783237e-01
-4.796557e-01
-5.903340e-01
-7.092954e-01
-8.355577e-01
-9.683392e-01
-1.107320e+00
-1.253242e+00
-1.409890e+00
-1.589125e+00
-1.846652e+00
0.000000e+00
-2.699229e-02
-7.104366e-02
-1.264406e-01
-1.946938e-01
-2.752453e-01
-3.672548e-01
-4.696801e-01
-5.814311e-01
-7.014255e-01
-8.286538e-01
-9.622987e-01
-1.101990e+00
-1.248451e+00
-1.405038e+00
-1.583185e+00
-1.801434e+00
0.000000e+00
-2.036807e-02
-6.062358e-02
-1.162250e-01
-1.851234e-01
-2.665041e-01
-3.593594e-01
-4.626369e-01
-5.752541e-01
-6.961440e-01
-8.243168e-01
-9.589830e-01
-1.099808e+00
-1.247395e+00
-1.404117e+00
-1.572918e+00
-1.736281e+00
0.000000e+00
-1.755175e-02
-5.544277e-02
-1.102287e-01
-1.793762e-01
-2.612578e-01
-3.546920e-01
-4.585864e-01
-5.718789e-01
-6.935314e-01
-8.225753e-01
-9.582061e-01
-1.099930e+00
-1.247680e+00
-1.401267e+00
-1.556371e+00
-1.699257e+00
0.000000e+00
-1.674042e-02
-5.387481e-02
-1.083159e-01
-1.774822e-01
-2.595676e-01
-3.532704e-01
-4.574993e-01
-5.712123e-01
-6.933882e-01
-8.230371e-01
-9.592267e-01
-1.101077e+00
-1.247541e+00
-1.396428e+00
-1.542645e+00
-1.677346e+00
0.000000e+00
-1.754133e-02
-5.543535e-02
-1.102419e-01
-1.794411e-01
-2.614286e-01
-3.550572e-01
-4.592782e-01
-5.730715e-01
-6.954111e-01
-8.252428e-01
-9.614389e-01
-1.102682e+00
-1.247174e+00
-1.392140e+00
-1.533343e+00
-1.665170e+00
0.000000e+00
-2.035108e-02
-6.061129e-02
-1.162470e-01
-1.852327e-01
-2.667930e-01
-3.599786e-01
-4.638114e-01
-5.772819e-01
-6.993460e-01
-8.288789e-01
-9.645792e-01
-1.104812e+00
-1.247411e+00
-1.389567e+00
-1.528060e+00
-1.659799e+00
0.000000e+00
-2.697636e-02
-7.103296e-02
-1.264699e-01
-1.948249e-01
-2.755849e-01
-3.679756e-01
-4.710377e-01
-5.837604e-01
-7.050810e-01
-8.338282e-01
-9.686078e-01
-1.107646e+00
-1.248657e+00
-1.388922e+00
-1.525875e+00
-1.658538e+00
0.000000e+00
-4.383924e-02
-8.607535e-02
-1.408381e-01
-2.081004e-01
-2.877785e-01
-3.790612e-01
-4.810014e-01
-5.925775e-01
-7.127081e-01
-8.401938e-01
-9.736095e-01
-1.111169e+00
-1.250638e+00
-1.389470e+00
-1.525476e+00
-1.658558e+00


0.000000e+00
1.648491e-10
3.409310e-10
4.969214e-10
6.287079e-10
7.357607e-10
8.200807e-10
8.847101e-10
9.330604e-10
9.682813e-10
9.933740e-10
1.010982e-09
1.023535e-09
1.033290e-09
1.042360e-09
1.053540e-09
1.066952e-09
0.000000e+00
1.121199e-10
2.642185e-10
3.881482e-10
4.875639e-10
5.661361e-10
6.267757e-10
6.725053e-10
7.060707e-10
7.299605e-10
7.463536e-10
7.569953e-10
7.632847e-10
7.663812e-10
7.695201e-10
7.786644e-10
7.924736e-10
0.000000e+00
8.347861e-11
1.835249e-10
2.671226e-10
3.343107e-10
3.861786e-10
4.252593e-10
4.539601e-10
4.744513e-10
4.884327e-10
4.973820e-10
5.024453e-10
5.047044e-10
5.055744e-10
5.077789e-10
5.149399e-10
5.261175e-10
0.000000e+00
4.467806e-11
9.154075e-11
1.333579e-10
1.675735e-10
1.937293e-10
2.130492e-10
2.269137e-10
2.364875e-10
2.426794e-10
2.462744e-10
2.479927e-10
2.486904e-10
2.494625e-10
2.513936e-10
2.557492e-10
2.626365e-10
0.000000e+00
-4.127696e-14
-1.134446e-13
-2.119050e-13
-3.511880e-13
-5.576882e-13
-8.313034e-13
-1.234248e-12
-1.768013e-12
-2.443417e-12
-3.215872e-12
-3.882357e-12
-4.160849e-12
-3.711870e-12
-2.528020e-12
-4.307926e-13
3.155513e-12
0.000000e+00
-4.478357e-11
-9.175153e-11
-1.337283e-10
-1.681459e-10
-1.946033e-10
-2.143639e-10
-2.288395e-10
-2.392419e-10
-2.465002e-10
-2.513365e-10
-2.543177e-10
-2.558506e-10
-2.563612e-10
-2.563360e-10
-2.558176e-10
-2.542772e-10
0.000000e+00
-8.351950e-11
-1.836508e-10
-2.673634e-10
-3.347043e-10
-3.867540e-10
-4.260305e-10
-4.549609e-10
-4.757196e-10
-4.900367e-10
-4.994695e-10
-5.052750e-10
-5.086044e-10
-5.103921e-10
-5.113535e-10
-5.116848e-10
-5.112509e-10
0.000000e+00
-1.121619e-10
-2.643178e-10
-3.883240e-10
-4.877839e-10
-5.663935e-10
-6.270316e-10
-6.726691e-10
-7.060225e-10
-7.295651e-10
-7.454960e-10
-7.557534e-10
-7.620284e-10
-7.656698e-10
-7.676838e-10
-7.686004e-10
-7.687254e-10
0.000000e+00
-1.649303e-10
-3.410758e-10
-4.970861e-10
-6.288598e-10
-7.358431e-10
-8.199467e-10
-8.842217e-10
-9.319794e-10
-9.663388e-10
-9.902650e-10
-1.006243e-09
-1.016467e-09
-1.022584e-09
-1.025806e-09
-1.027051e-09
-1.027244e-09
0.000000e+00
1.497433e-10
2.691478e-10
3.944740e-10
5.449292e-10
7.220693e-10
9.222614e-10
1.140817e-09
1.373254e-09
1.615837e-09
1.865743e-09
2.121066e-09
2.380973e-09
2.647258e-09
2.927005e-09
3.223904e-09
3.524664e-09
0.000000e+00
8.050230e-11
1.971895e-10
3.309207e-10
4.928217e-10
6.809218e-10
8.907900e-10
1.117372e-09
1.356252e-09
1.603923e-09
1.857680e-09
2.115800e-09
2.377563e-09
2.643760e-09
2.917846e-09
3.206482e-09
3.502338e-09
0.000000e+00
3.969840e-11
1.406938e-10
2.813018e-10
4.525134e-10
6.496919e-10
8.672554e-10
1.100101e-09
1.343989e-09
1.595571e-09
1.852343e-09
2.112683e-09
2.375731e-09
2.641019e-09
2.908882e-09
3.187961e-09
3.475885e-09
0.000000e+00
2.257994e-11
1.140307e-10
2.552866e-10
4.313728e-10
6.335318e-10
8.552775e-10
1.091461e-09
1.337994e-09
1.591667e-09
1.850055e-09
2.111480e-09
2.374813e-09
2.638844e-09
2.903318e-09
3.174800e-09
3.452694e-09
0.000000e+00
1.823722e-11
1.067545e-10
2.474184e-10
4.248695e-10
6.286216e-10
8.517078e-10
1.088966e-09
1.336393e-09
1.590768e-09
1.849692e-09
2.111357e-09
2.374417e-09
2.637674e-09
2.900702e-09
3.167263e-09
3.436195e-09
0.000000e+00
2.261867e-11
1.140835e-10
2.553633e-10
4.314697e-10
6.336764e-10
8.555082e-10
1.091836e-09
1.338593e-09
1.592506e-09
1.851066e-09
2.112344e-09
2.374918e-09
2.637647e-09
2.900098e-09
3.163626e-09
3.426691e-09
0.000000e+00
3.975193e-11
1.407757e-10
2.814411e-10
4.526825e-10
6.499835e-10
8.677280e-10
1.100849e-09
1.345176e-09
1.597216e-09
1.854376e-09
2.114570e-09
2.376275e-09
2.638392e-09
2.900280e-09
3.162009e-09
3.422249e-09
0.000000e+00
8.059528e-11
1.973275e-10
3.311590e-10
4.931012e-10
6.813630e-10
8.914556e-10
1.118379e-09
1.357750e-09
1.605962e-09
1.860183e-09
2.118207e-09
2.378398e-09
2.639492e-09
2.900689e-09
3.161394e-09
3.420765e-09
0.000000e+00
1.498587e-10
2.693471e-10
3.947741e-10
5.453158e-10
7.225858e-10
9.229853e-10
1.141837e-09
1.374670e-09
1.617692e-09
1.867935e-09
2.123028e-09
2.381153e-09
2.640923e-09
2.901274e-09
3.161353e-09
3.420528e-09


2.116437e-01
2.116437e-01
2.116437e-01
2.116437e-01
2.116437e-01
2.116437e-01
2.116437e-01
2.116437e-01
2.116437e-01
2.116437e-01
2.116437e-01
2.116437e-01
2.116437e-01
2.116437e-01
2.116437e-01
2.116437e-01
2.116437e-01
2.116437e-01
2.116437e-01
2.116437e-01
2.116437e-01
2.116437e-01
2.116437e-01
2.116437e-01
2.116437e-01
2.116437e-01
2.116437e-01
2.116437e-01
2.116437e-01
2.116437e-01
2.116437e-01
2.116437e-01
2.116437e-01
2.116437e-01
2.116437e-01
2.116437e-01
2.116437e-01
2.116437e-01
2.116437e-01
2.116437e-01
2.116437e-01
2.116437e-01
2.116437e-01
2.116437e-01
2.116437e-01
2.116437e-01
2.116437e-01
2.116437e-01
2.116437e-01
2.116437e-01
2.116437e-01
2.116437e-01
2.116437e-01
2.116437e-01
2.116437e-01
2.116437e-01
2.116437e-01
2.116437e-01
2.116437e-01
2.116437e-01
2.116437e-01
2.116437e-01
2.116437e-01
2.116437e-01
2.116437e-01
2.116437e-01
2.116437e-01
2.116437e-01
2.116437e-01
2.116437e-01
2.116437e-01
2.116437e-01
2.116437e-01
2.116437e-01
2.116437e-01
2.116437e-01
2.116437e-01
2.116437e-01
2.116437e-01
2.116437e-01
2.116437e-01
2.116437e-01
2.116437e-01
2.116437e-01
2.116437e-01
2.116437e-01
2.116437e-01
2.116437e-01
2.116437e-01
2.116437e-01
2.116437e-01
2.116437e-01
2.116437e-01
2.116437e-01
2.116437e-01
2.116437e-01
2.116437e-01
2.116437e-01
2.116437e-01
2.116437e-01
2.116437e-01
2.116437e-01
2.116437e-01
2.116437e-01
2.116437e-01
2.116437e-01
2.116437e-01
2.116437e-01
2.116437e-01
2.116437e-01
2.116437e-01
2.116437e-01
2.116437e-01
2.116437e-01
2.116437e-01
2.116437e-01
2.116437e-01
2.116437e-01
2.116437e-01
2.116437e-01
2.116437e-01
2.116437e-01
2.116437e-01
2.116437e-01
2.116437e-01
2.116437e-01
2.116437e-01
2.116437e-01


9.881961e-01
9.898700e-01
9.914184e-01
9.926104e-01
9.937169e-01
9.947371e-01
9.956666e-01
9.964945e-01
9.972120e-01
9.978121e-01
9.982893e-01
9.986389e-01
9.988562e-01
9.989337e-01
9.989896e-01
9.955400e-01
9.955343e-01
9.947673e-01
9.952608e-01
9.959049e-01
9.965055e-01
9.970513e-01
9.975453e-01
9.979928e-01
9.983980e-01
9.987651e-01
9.990981e-01
9.993997e-01
9.996627e-01
9.998350e-01
9.993994e-01
9.934943e-01
9.984484e-01
9.980078e-01
9.978889e-01
9.980562e-01
9.982763e-01
9.984895e-01
9.986874e-01
9.988744e-01
9.990555e-01
9.992322e-01
9.993971e-01
9.995249e-01
9.995515e-01
9.993215e-01
9.984871e-01
9.969865e-01
9.996842e-01
9.993629e-01
9.991644e-01
9.991141e-01
9.991342e-01
9.991679e-01
9.992016e-01
9.992345e-01
9.992668e-01
9.992939e-01
9.993014e-01
9.992612e-01
9.991336e-01
9.989046e-01
9.987105e-01
9.986613e-01
9.996854e-01
9.993646e-01
9.991659e-01
9.991137e-01
9.991292e-01
9.991535e-01
9.991704e-01
9.991761e-01
9.991683e-01
9.991434e-01
9.990971e-01
9.990304e-01
9.989668e-01
9.989794e-01
9.991591e-01
9.994702e-01
9.984506e-01
9.980112e-01
9.978921e-01
9.980562e-01
9.982677e-01
9.984631e-01
9.986284e-01
9.987612e-01
9.988607e-01
9.989277e-01
9.989700e-01
9.990115e-01
9.990985e-01
9.992809e-01
9.995548e-01
9.998381e-01
9.955339e-01
9.947670e-01
9.952601e-01
9.959031e-01
9.965007e-01
9.970405e-01
9.975231e-01
9.979504e-01
9.983227e-01
9.986409e-01
9.989104e-01
9.991457e-01
9.993723e-01
9.996098e-01
9.998320e-01
9.999719e-01
9.881880e-01
9.898574e-01
9.914030e-01
9.925931e-01
9.937013e-01
9.947315e-01
9.956858e-01
9.965621e-01
9.973606e-01
9.980796e-01
9.987107e-01
9.992343e-01
9.996238e-01
9.998640e-01
9.999734e-01
9.999994e-01
1 2 19 18
2 3 20 19
3 4 21 20
4 5 22 21
5 6 23 22
6 7 24 23
7 8 25 24
8 9 26 25
9 10 27 26
10 11 28 27
11 12 29 28
12 13 30 29
13 14 31 30
14 15 32 31
15 16 33 32
16 17 34 33
18 19 36 35
19 20 37 36
20 21 38 37
21 22 39 38
22 23 40 39
23 24 41 40
24 25 42 41
25 26 43 42
26 27 44 43
27 28 45 44
28 29 46 45
29 30 47 46
30 31 48 47
31 32 49 48
32 33 50 49
33 34 51 50
35 36 53 52
36 37 54 53
37 38 55 54
38 39 56 55
39 40 57 56
40 41 58 57
41 42 59 58
42 43 60 59
43 44 61 60
44 45 62 61
45 46 63 62
46 47 64 63
47 48 65 64
48 49 66 65
49 50 67 66
50 51 68 67
52 53 70 69
53 54 71 70
54 55 72 71
55 56 73 72
56 57 74 73
57 58 75 74
58 59 76 75
59 60 77 76
60 61 78 77
61 62 79 78
62 63 80 79
63 64 81 80
64 65 82 81
65 66 83 82
66 67 84 83
67 68 85 84
69 70 87 86
70 71 88 87
71 72 89 88
72 73 90 89
73 74 91 90
74 75 92 91
75 76 93 92
76 77 94 93
77 78 95 94
78 79 96 95
79 80 97 96
80 81 98 97
81 82 99 98
82 83 100 99
83 84 101 100
84 85 102 101
86 87 104 103
87 88 105 104
88 89 106 105
89 90 107 106
90 91 108 107
91 92 109 108
92 93 110 109
93 94 111 110
94 95 112 111
95 96 113 112
96 97 114 113
97 98 115 114
98 99 116 115
99 100 117 116
100 101 118 117
101 102 119 118
103 104 121 120
104 105 122 121
105 106 123 122
106 107 124 123
107 108 125 124
108 109 126 125
109 110 127 126
110 111 128 127
111 112 129 128
112 113 130 129
113 114 131 130
114 115 132 131
115 116 133 132
116 117 134 133
117 118 135 134
118 119 136 135
120 121 138 137
121 122 139 138
122 123 140 139
123 124 141 140
124 125 142 141
125 126 143 142
126 127 144 143
127 128 145 144
128 129 146 145
129 130 147 146
130 131 148 147
131 132 149 148
132 133 150 149
133 134 151 150
134 135 152 151
135 136 153 152
