TITLE = "Solution"
VARIABLES = x, y, u, v, psiu, psiv, t, stress
ZONE T="structure" N=153 E=128 F=FEBLOCK ET=QUADRILATERAL VARLOCATION=([7,8]=cellcentered)
0.000000e+00
1.250000e+01
2.500000e+01
3.750000e+01
5.000000e+01
6.250000e+01
7.500000e+01
8.750000e+01
1.000000e+02
1.125000e+02
1.250000e+02
1.375000e+02
1.500000e+02
1.625000e+02
1.750000e+02
1.875000e+02
2.000000e+02
0.000000e+00
1.250000e+01
2.500000e+01
3.750000e+01
5.000000e+01
6.250000e+01
7.500000e+01
8.750000e+01
1.000000e+02
1.125000e+02
1.250000e+02
1.375000e+02
1.500000e+02
1.625000e+02
1.750000e+02
1.875000e+02
2.000000e+02
0.000000e+00
1.250000e+01
2.500000e+01
3.750000e+01
5.000000e+01
6.250000e+01
7.500000e+01
8.750000e+01
1.000000e+02
1.125000e+02
1.250000e+02
1.375000e+02
1.500000e+02
1.625000e+02
1.750000e+02
1.875000e+02
2.000000e+02
0.000000e+00
1.250000e+01
2.500000e+01
3.750000e+01
5.000000e+01
6.250000e+01
7.500000e+01
8.750000e+01
1.000000e+02
1.125000e+02
1.250000e+02
1.375000e+02
1.500000e+02
1.625000e+02
1.750000e+02
1.875000e+02
2.000000e+02
0.000000e+00
1.250000e+01
2.500000e+01
3.750000e+01
5.000000e+01
6.250000e+01
7.500000e+01
8.750000e+01
1.000000e+02
1.125000e+02
1.250000e+02
1.375000e+02
1.500000e+02
1.625000e+02
1.750000e+02
1.875000e+02
2.000000e+02
0.000000e+00
1.250000e+01
2.500000e+01
3.750000e+01
5.000000e+01
6.250000e+01
7.500000e+01
8.750000e+01
1.000000e+02
1.125000e+02
1.250000e+02
1.375000e+02
1.500000e+02
1.625000e+02
1.750000e+02
1.875000e+02
2.000000e+02
0.000000e+00
1.250000e+01
2.500000e+01
3.750000e+01
5.000000e+01
6.250000e+01
7.500000e+01
8.750000e+01
1.000000e+02
1.125000e+02
1.250000e+02
1.375000e+02
1.500000e+02
1.625000e+02
1.750000e+02
1.875000e+02
2.000000e+02
0.000000e+00
1.250000e+01
2.500000e+01
3.750000e+01
5.000000e+01
6.250000e+01
7.500000e+01
8.750000e+01
1.000000e+02
1.125000e+02
1.250000e+02
1.375000e+02
1.500000e+02
1.625000e+02
1.750000e+02
1.875000e+02
2.000000e+02
0.000000e+00
1.250000e+01
2.500000e+01
3.750000e+01
5.000000e+01
6.250000e+01
7.500000e+01
8.750000e+01
1.000000e+02
1.125000e+02
1.250000e+02
1.375000e+02
1.500000e+02
1.625000e+02
1.750000e+02
1.875000e+02
2.000000e+02
0.000000e+00
0.000000e+00
0.000000e+00
0.000000e+00
0.000000e+00
0.000000e+00
0.000000e+00
0.000000e+00
0.000000e+00
0.000000e+00
0.000000e+00
0.000000e+00
0.000000e+00
0.000000e+00
0.000000e+00
0.000000e+00
0.000000e+00
1.250000e+01
1.250000e+01
1.250000e+01
1.250000e+01
1.250000e+01
1.250000e+01
1.250000e+01
1.250000e+01
1.250000e+01
1.250000e+01
1.250000e+01
1.250000e+01
1.250000e+01
1.250000e+01
1.250000e+01
1.250000e+01
1.250000e+01
2.500000e+01
2.500000e+01
2.500000e+01
2.500000e+01
2.500000e+01
2.500000e+01
2.500000e+01
2.500000e+01
2.500000e+01
2.500000e+01
2.500000e+01
2.500000e+01
2.500000e+01
2.500000e+01
2.500000e+01
2.500000e+01
2.500000e+01
3.750000e+01
3.750000e+01
3.750000e+01
3.750000e+01
3.750000e+01
3.750000e+01
3.750000e+01
3.750000e+01
3.750000e+01
3.750000e+01
3.750000e+01
3.750000e+01
3.750000e+01
3.750000e+01
3.750000e+01
3.750000e+01
3.750000e+01
5.000000e+01
5.000000e+01
5.000000e+01
5.000000e+01
5.000000e+01
5.000000e+01
5.000000e+01
5.000000e+01
5.000000e+01
5.000000e+01
5.000000e+01
5.000000e+01
5.000000e+01
5.000000e+01
5.000000e+01
5.000000e+01
5.000000e+01
6.250000e+01
6.250000e+01
6.250000e+01
6.250000e+01
6.250000e+01
6.250000e+01
6.250000e+01
6.250000e+01
6.250000e+01
6.250000e+01
6.250000e+01
6.250000e+01
6.250000e+01
6.250000e+01
6.250000e+01
6.250000e+01
6.250000e+01
7.500000e+01
7.500000e+01
7.500000e+01
7.500000e+01
7.500000e+01
7.500000e+01
7.500000e+01
7.500000e+01
7.500000e+01
7.500000e+01
7.500000e+01
7.500000e+01
7.500000e+01
7.500000e+01
7.500000e+01
7.500000e+01
7.500000e+01
8.750000e+01
8.750000e+01
8.750000e+01
8.750000e+01
8.750000e+01
8.750000e+01
8.750000e+01
8.750000e+01
8.750000e+01
8.750000e+01
8.750000e+01
8.750000e+01
8.750000e+01
8.750000e+01
8.750000e+01
8.750000e+01
8.750000e+01
1.000000e+02
1.000000e+02
1.000000e+02
1.000000e+02
1.000000e+02
1.000000e+02
1.000000e+02
1.000000e+02
1.000000e+02
1.000000e+02
1.000000e+02
1.000000e+02
1.000000e+02
1.000000e+02
1.000000e+02
1.000000e+02
1.000000e+02
0.000000e+00
-7.511838e-02
-1.383168e-01
-1.964674e-01
-2.506220e-01
-3.006661e-01
-3.464924e-01
-3.880655e-01
-4.254457e-01
-4.588053e-01
-4.884749e-01
-5.150345e-01
-5.394816e-01
-5.635397e-01
-5.901808e-01
-6.228995e-01
-6.474514e-01
0.000000e+00
-4.485937e-02
-9.318662e-02
-1.378137e-01
-1.789290e-01
-2.166888e-01
-2.511713e-01
-2.824229e-01
-3.104998e-01
-3.354885e-01
-3.575159e-01
-3.767407e-01
-3.932857e-01
-4.069805e-01
-4.166401e-01
-4.187574e-01
-4.263482e-01
0.000000e+00
-2.805378e-02
-5.768558e-02
-8.724768e-02
-1.148430e-01
-1.401793e-01
-1.632361e-01
-1.840395e-01
-2.025946e-01
-2.188704e-01
-2.327794e-01
-2.441273e-01
-2.525095e-01
-2.571886e-01
-2.573185e-01
-2.554493e-01
-2.631913e-01
0.000000e+00
-1.354049e-02
-2.787491e-02
-4.229985e-02
-5.609269e-02
-6.879675e-02
-8.031173e-02
-9.060409e-02
-9.961491e-02
-1.072270e-01
-1.132457e-01
-1.173870e-01
-1.193119e-01
-1.188622e-01
-1.170146e-01
-1.175198e-01
-1.232846e-01
0.000000e+00
-1.247330e-05
-2.835573e-05
-4.418600e-05
-5.258740e-05
-3.711018e-05
3.489630e-05
2.220196e-04
6.203805e-04
1.373156e-03
2.667142e-03
4.689989e-03
7.492401e-03
1.065927e-02
1.284684e-02
1.224686e-02
8.430091e-03
0.000000e+00
1.352130e-02
2.783035e-02
4.222858e-02
5.600404e-02
6.872465e-02
8.033970e-02
9.090601e-02
1.005152e-01
1.092787e-01
1.173110e-01
1.246717e-01
1.312328e-01
1.364940e-01
1.395889e-01
1.398344e-01
1.378972e-01
0.000000e+00
2.805063e-02
5.767598e-02
8.722858e-02
1.148131e-01
1.401422e-01
1.632053e-01
1.840495e-01
2.027179e-01
2.192437e-01
2.336412e-01
2.458754e-01
2.558055e-01
2.631472e-01
2.675539e-01
2.689847e-01
2.685329e-01
0.000000e+00
4.487777e-02
9.322663e-02
1.378775e-01
1.790146e-01
2.167804e-01
2.512227e-01
2.823289e-01
3.100516e-01
3.343107e-01
3.549911e-01
3.719499e-01
3.850514e-01
3.942522e-01
3.997407e-01
4.020812e-01
4.025111e-01
0.000000e+00
7.514915e-02
1.383979e-01
1.966195e-01
2.508649e-01
3.010078e-01
3.469000e-01
3.884082e-01
4.253935e-01
4.576638e-01
4.849391e-01
5.068560e-01
5.230543e-01
5.334068e-01
5.384134e-01
5.396492e-01
5.396254e-01
0.000000e+00
-4.547122e-02
-8.926529e-02
-1.460122e-01
-2.156573e-01
-2.980702e-01
-3.923485e-01
-4.974370e-01
-6.122182e-01
-7.355896e-01
-8.665326e-01
-1.004236e+00
-1.148369e+00
-1.299700e+00
-1.462156e+00
-1.648035e+00
-1.915110e+00
0.000000e+00
-2.799292e-02
-7.367731e-02
-1.311279e-01
-2.019112e-01
-2.854489e-01
-3.808693e-01
-4.870916e-01
-6.029853e-01
-7.274280e-01
-8.593728e-01
-9.979720e-01
-1.142842e+00
-1.294732e+00
-1.457125e+00
-1.641876e+00
-1.868215e+00
0.000000e+00
-2.112314e-02
-6.287095e-02
-1.205336e-01
-1.919861e-01
-2.763836e-01
-3.726812e-01
-4.797873e-01
-5.965793e-01
-7.219508e-01
-8.548750e-01
-9.945334e-01
-1.140579e+00
-1.293637e+00
-1.456169e+00
-1.631227e+00
-1.800646e+00
0.000000e+00
-1.820241e-02
-5.749808e-02
-1.143150e-01
-1.860259e-01
-2.709429e-01
-3.678408e-01
-4.755867e-01
-5.930790e-01
-7.192412e-01
-8.530690e-01
-9.937277e-01
-1.140705e+00
-1.293933e+00
-1.453213e+00
-1.614067e+00
-1.762250e+00
0.000000e+00
-1.736100e-02
-5.587200e-02
-1.123313e-01
-1.840616e-01
-2.691900e-01
-3.663665e-01
-4.744592e-01
-5.923876e-01
-7.190927e-01
-8.535478e-01
-9.947862e-01
-1.141895e+00
-1.293789e+00
-1.448195e+00
-1.599832e+00
-1.739527e+00
0.000000e+00
-1.819160e-02
-5.749039e-02
-1.143287e-01
-1.860931e-01
-2.711200e-01
-3.682195e-01
-4.763040e-01
-5.943158e-01
-7.211906e-01
-8.558353e-01
-9.970803e-01
-1.143559e+00
-1.293408e+00
-1.443748e+00
-1.590186e+00
-1.726899e+00
0.000000e+00
-2.110551e-02
-6.285821e-02
-1.205564e-01
-1.920994e-01
-2.766832e-01
-3.733233e-01
-4.810054e-01
-5.986822e-01
-7.252714e-01
-8.596062e-01
-1.000337e+00
-1.145768e+00
-1.293654e+00
-1.441079e+00
-1.584706e+00
-1.721329e+00
0.000000e+00
-2.797639e-02
-7.366622e-02
-1.311582e-01
-2.020472e-01
-2.858011e-01
-3.816168e-01
-4.884995e-01
-6.054010e-01
-7.312190e-01
-8.647390e-01
-1.004515e+00
-1.148707e+00
-1.294946e+00
-1.440411e+00
-1.582441e+00
-1.720022e+00
0.000000e+00
-4.546440e-02
-8.926624e-02
-1.460591e-01
-2.158149e-01
-2.984467e-01
-3.931134e-01
-4.988326e-01
-6.145450e-01
-7.391289e-01
-8.713406e-01
-1.009702e+00
-1.152361e+00
-1.297000e+00
-1.440979e+00
-1.582026e+00
-1.720042e+00


0.000000e+00
4.602157e-10
9.516962e-10
1.387013e-09
1.754629e-09
2.053273e-09
2.288391e-09
2.468714e-09
2.603541e-09
2.701820e-09
2.771778e-09
2.820828e-09
2.855752e-09
2.882856e-09
2.908072e-09
2.939212e-09
2.976609e-09
0.000000e+00
3.130091e-10
7.375707e-10
1.083443e-09
1.360809e-09
1.579967e-09
1.749123e-09
1.876637e-09
1.970258e-09
2.036900e-09
2.082568e-09
2.112242e-09
2.129685e-09
2.138270e-09
2.146972e-09
2.172438e-09
2.210943e-09
0.000000e+00
2.330201e-10
5.122591e-10
7.455887e-10
9.330548e-10
1.077792e-09
1.186736e-09
1.266805e-09
1.323901e-09
1.362908e-09
1.387840e-09
1.401982e-09
1.408277e-09
1.410716e-09
1.416851e-09
1.436831e-09
1.468013e-09
0.000000e+00
1.247330e-10
2.555185e-10
3.722280e-10
4.676917e-10
5.406666e-10
5.945581e-10
6.332477e-10
6.599541e-10
6.772454e-10
6.872734e-10
6.920785e-10
6.940309e-10
6.961756e-10
7.015773e-10
7.137202e-10
7.329104e-10
0.000000e+00
-1.357887e-13
-3.191875e-13
-5.743758e-13
-9.421631e-13
-1.477489e-12
-2.251919e-12
-3.347594e-12
-4.835348e-12
-6.719342e-12
-8.833936e-12
-1.069262e-11
-1.141706e-11
-1.014442e-11
-6.823345e-12
-9.690198e-13
9.032344e-12
0.000000e+00
-1.249659e-10
-2.560579e-10
-3.731957e-10
-4.692593e-10
-5.430813e-10
-5.981656e-10
-6.385114e-10
-6.674562e-10
-6.876332e-10
-7.010851e-10
-7.093528e-10
-7.136143e-10
-7.150277e-10
-7.149560e-10
-7.135086e-10
-7.092344e-10
0.000000e+00
-2.331392e-10
-5.125873e-10
-7.461973e-10
-9.340255e-10
-1.079213e-09
-1.188698e-09
-1.269398e-09
-1.327237e-09
-1.367179e-09
-1.393429e-09
-1.409608e-09
-1.418839e-09
-1.423785e-09
-1.426442e-09
-1.427350e-09
-1.426147e-09
0.000000e+00
-3.130504e-10
-7.377768e-10
-1.083808e-09
-1.361319e-09
-1.580567e-09
-1.749679e-09
-1.876907e-09
-1.969893e-09
-2.035507e-09
-2.079884e-09
-2.108453e-09
-2.125893e-09
-2.136021e-09
-2.141600e-09
-2.144139e-09
-2.144494e-09
0.000000e+00
-4.604163e-10
-9.520236e-10
-1.387376e-09
-1.754919e-09
-2.053295e-09
-2.287834e-09
-2.467124e-09
-2.600311e-09
-2.696204e-09
-2.762867e-09
-2.807408e-09
-2.835805e-09
-2.852775e-09
-2.861733e-09
-2.865161e-09
-2.865754e-09
0.000000e+00
4.182219e-10
7.516727e-10
1.101553e-09
1.521483e-09
2.015722e-09
2.574255e-09
3.184037e-09
3.832548e-09
4.509454e-09
5.206822e-09
5.919216e-09
6.644430e-09
7.387213e-09
8.167547e-09
8.995732e-09
9.834541e-09
0.000000e+00
2.249312e-10
5.507673e-10
9.242144e-10
1.376003e-09
1.900944e-09
2.486470e-09
3.118618e-09
3.785165e-09
4.476214e-09
5.184333e-09
5.904569e-09
6.634878e-09
7.377498e-09
8.141998e-09
8.947123e-09
9.772344e-09
0.000000e+00
1.110089e-10
3.930760e-10
7.856837e-10
1.263561e-09
1.813797e-09
2.420798e-09
3.070437e-09
3.750932e-09
4.452923e-09
5.169444e-09
5.895881e-09
6.629796e-09
7.369875e-09
8.117013e-09
8.895491e-09
9.698566e-09
0.000000e+00
6.324825e-11
3.186606e-10
7.130713e-10
1.204545e-09
1.768700e-09
2.387383e-09
3.046348e-09
3.734225e-09
4.442038e-09
5.163039e-09
5.892509e-09
6.627181e-09
7.363786e-09
8.101508e-09
8.858796e-09
9.634004e-09
0.000000e+00
5.112350e-11
2.983740e-10
6.910889e-10
1.186401e-09
1.754970e-09
2.377403e-09
3.039386e-09
3.729711e-09
4.439516e-09
5.161996e-09
5.892126e-09
6.626082e-09
7.360497e-09
8.094219e-09
8.837824e-09
9.588051e-09
0.000000e+00
6.333391e-11
3.187795e-10
7.132323e-10
1.204773e-09
1.769062e-09
2.387999e-09
3.047387e-09
3.735865e-09
4.444365e-09
5.165828e-09
5.894886e-09
6.627457e-09
7.360429e-09
8.092560e-09
8.827701e-09
9.561597e-09
0.000000e+00
1.111442e-10
3.932905e-10
7.860012e-10
1.264031e-09
1.814551e-09
2.422055e-09
3.072507e-09
3.754149e-09
4.457478e-09
5.175030e-09
5.901071e-09
6.631270e-09
7.362500e-09
8.093088e-09
8.823221e-09
9.549243e-09
0.000000e+00
2.251204e-10
5.511216e-10
9.247394e-10
1.376762e-09
1.902091e-09
2.488249e-09
3.121367e-09
3.789246e-09
4.481846e-09
5.191227e-09
5.911230e-09
6.637166e-09
7.365598e-09
8.094230e-09
8.821517e-09
9.545119e-09
0.000000e+00
4.185232e-10
7.521916e-10
1.102282e-09
1.522478e-09
2.017099e-09
2.576207e-09
3.186818e-09
3.836426e-09
4.514563e-09
5.212833e-09
5.924635e-09
6.644839e-09
7.369541e-09
8.095844e-09
8.821400e-09
9.544488e-09


2.194895e-01
2.194895e-01
2.194895e-01
2.194895e-01
2.194895e-01
2.194895e-01
2.194895e-01
2.194895e-01
2.194895e-01
2.194896e-01
2.194896e-01
2.194896e-01
2.194896e-01
2.194896e-01
2.194896e-01
2.194895e-01
2.194895e-01
2.194895e-01
2.194895e-01
2.194895e-01
2.194895e-01
2.194895e-01
2.194895e-01
2.194895e-01
2.194895e-01
2.194896e-01
2.194896e-01
2.194896e-01
2.194896e-01
2.194896e-01
2.194896e-01
2.194895e-01
2.194895e-01
2.194895e-01
2.194895e-01
2.194895e-01
2.194895e-01
2.194895e-01
2.194895e-01
2.194895e-01
2.194896e-01
2.194896e-01
2.194896e-01
2.194896e-01
2.194896e-01
2.194896e-01
2.194896e-01
2.194896e-01
2.194895e-01
2.194895e-01
2.194895e-01
2.194895e-01
2.194895e-01
2.194895e-01
2.194896e-01
2.194896e-01
2.194896e-01
2.194896e-01
2.194896e-01
2.194896e-01
2.194896e-01
2.194896e-01
2.194896e-01
2.194896e-01
2.194895e-01
2.194895e-01
2.194895e-01
2.194895e-01
2.194895e-01
2.194895e-01
2.194896e-01
2.194896e-01
2.194896e-01
2.194896e-01
2.194896e-01
2.194896e-01
2.194896e-01
2.194896e-01
2.194896e-01
2.194896e-01
2.194895e-01
2.194895e-01
2.194895e-01
2.194895e-01
2.194895e-01
2.194895e-01
2.194895e-01
2.194895e-01
2.194896e-01
2.194896e-01
2.194896e-01
2.194896e-01
2.194896e-01
2.194896e-01
2.194896e-01
2.194896e-01
2.194895e-01
2.194895e-01
2.194895e-01
2.194895e-01
2.194895e-01
2.194895e-01
2.194895e-01
2.194895e-01
2.194895e-01
2.194896e-01
2.194896e-01
2.194896e-01
2.194896e-01
2.194896e-01
2.194896e-01
2.194896e-01
2.194895e-01
2.194895e-01
2.194895e-01
2.194895e-01
2.194895e-01
2.194895e-01
2.194895e-01
2.194895e-01
2.194895e-01
2.194896e-01
2.194896e-01
2.194896e-01
2.194896e-01
2.194896e-01
2.194896e-01
2.194896e-01


9.873047e-01
9.891050e-01
9.907704e-01
9.920524e-01
9.932424e-01
9.943397e-01
9.953394e-01
9.962297e-01
9.970015e-01
9.976469e-01
9.981601e-01
9.985361e-01
9.987698e-01
9.988532e-01
9.989133e-01
9.952032e-01
9.951971e-01
9.943721e-01
9.949029e-01
9.955957e-01
9.962416e-01
9.968286e-01
9.973600e-01
9.978413e-01
9.982771e-01
9.986718e-01
9.990300e-01
9.993543e-01
9.996373e-01
9.998225e-01
9.993540e-01
9.930030e-01
9.983312e-01
9.978574e-01
9.977295e-01
9.979094e-01
9.981461e-01
9.983754e-01
9.985883e-01
9.987894e-01
9.989842e-01
9.991742e-01
9.993516e-01
9.994890e-01
9.995176e-01
9.992703e-01
9.983729e-01
9.967589e-01
9.996604e-01
9.993148e-01
9.991013e-01
9.990472e-01
9.990688e-01
9.991051e-01
9.991413e-01
9.991767e-01
9.992115e-01
9.992406e-01
9.992486e-01
9.992054e-01
9.990682e-01
9.988219e-01
9.986131e-01
9.985602e-01
9.996616e-01
9.993166e-01
9.991029e-01
9.990468e-01
9.990634e-01
9.990896e-01
9.991077e-01
9.991138e-01
9.991055e-01
9.990788e-01
9.990289e-01
9.989571e-01
9.988888e-01
9.989024e-01
9.990956e-01
9.994302e-01
9.983336e-01
9.978610e-01
9.977329e-01
9.979094e-01
9.981369e-01
9.983470e-01
9.985248e-01
9.986677e-01
9.987747e-01
9.988467e-01
9.988923e-01
9.989368e-01
9.990304e-01
9.992265e-01
9.995212e-01
9.998259e-01
9.951967e-01
9.943718e-01
9.949022e-01
9.955937e-01
9.962365e-01
9.968170e-01
9.973360e-01
9.977956e-01
9.981960e-01
9.985383e-01
9.988281e-01
9.990811e-01
9.993248e-01
9.995803e-01
9.998193e-01
9.999698e-01
9.872961e-01
9.890914e-01
9.907538e-01
9.920338e-01
9.932257e-01
9.943336e-01
9.953600e-01
9.963025e-01
9.971613e-01
9.979346e-01
9.986134e-01
9.991765e-01
9.995953e-01
9.998538e-01
9.999713e-01
9.999994e-01
1 2 19 18
2 3 20 19
3 4 21 20
4 5 22 21
5 6 23 22
6 7 24 23
7 8 25 24
8 9 26 25
9 10 27 26
10 11 28 27
11 12 29 28
12 13 30 29
13 14 31 30
14 15 32 31
15 16 33 32
16 17 34 33
18 19 36 35
19 20 37 36
20 21 38 37
21 22 39 38
22 23 40 39
23 24 41 40
24 25 42 41
25 26 43 42
26 27 44 43
27 28 45 44
28 29 46 45
29 30 47 46
30 31 48 47
31 32 49 48
32 33 50 49
33 34 51 50
35 36 53 52
36 37 54 53
37 38 55 54
38 39 56 55
39 40 57 56
40 41 58 57
41 42 59 58
42 43 60 59
43 44 61 60
44 45 62 61
45 46 63 62
46 47 64 63
47 48 65 64
48 49 66 65
49 50 67 66
50 51 68 67
52 53 70 69
53 54 71 70
54 55 72 71
55 56 73 72
56 57 74 73
57 58 75 74
58 59 76 75
59 60 77 76
60 61 78 77
61 62 79 78
62 63 80 79
63 64 81 80
64 65 82 81
65 66 83 82
66 67 84 83
67 68 85 84
69 70 87 86
70 71 88 87
71 72 89 88
72 73 90 89
73 74 91 90
74 75 92 91
75 76 93 92
76 77 94 93
77 78 95 94
78 79 96 95
79 80 97 96
80 81 98 97
81 82 99 98
82 83 100 99
83 84 101 100
84 85 102 101
86 87 104 103
87 88 105 104
88 89 106 105
89 90 107 106
90 91 108 107
91 92 109 108
92 93 110 109
93 94 111 110
94 95 112 111
95 96 113 112
96 97 114 113
97 98 115 114
98 99 116 115
99 100 117 116
100 101 118 117
101 102 119 118
103 104 121 120
104 105 122 121
105 106 123 122
106 107 124 123
107 108 125 124
108 109 126 125
109 110 127 126
110 111 128 127
111 112 129 128
112 113 130 129
113 114 131 130
114 115 132 131
115 116 133 132
116 117 134 133
117 118 135 134
118 119 136 135
120 121 138 137
121 122 139 138
122 123 140 139
123 124 141 140
124 125 142 141
125 126 143 142
126 127 144 143
127 128 145 144
128 129 146 145
129 130 147 146
130 131 148 147
131 132 149 148
132 133 150 149
133 134 151 150
134 135 152 151
135 136 153 152
