TITLE = "Solution"
VARIABLES = x, y, u, v, psiu, psiv, t, stress
ZONE T="structure" N=153 E=128 F=FEBLOCK ET=QUADRILATERAL VARLOCATION=([7,8]=cellcentered)
0.000000e+00
1.250000e+01
2.500000e+01
3.750000e+01
5.000000e+01
6.250000e+01
7.500000e+01
8.750000e+01
1.000000e+02
1.125000e+02
1.250000e+02
1.375000e+02
1.500000e+02
1.625000e+02
1.750000e+02
1.875000e+02
2.000000e+02
0.000000e+00
1.250000e+01
2.500000e+01
3.750000e+01
5.000000e+01
6.250000e+01
7.500000e+01
8.750000e+01
1.000000e+02
1.125000e+02
1.250000e+02
1.375000e+02
1.500000e+02
1.625000e+02
1.750000e+02
1.875000e+02
2.000000e+02
0.000000e+00
1.250000e+01
2.500000e+01
3.750000e+01
5.000000e+01
6.250000e+01
7.500000e+01
8.750000e+01
1.000000e+02
1.125000e+02
1.250000e+02
1.375000e+02
1.500000e+02
1.625000e+02
1.750000e+02
1.875000e+02
2.000000e+02
0.000000e+00
1.250000e+01
2.500000e+01
3.750000e+01
5.000000e+01
6.250000e+01
7.500000e+01
8.750000e+01
1.000000e+02
1.125000e+02
1.250000e+02
1.375000e+02
1.500000e+02
1.625000e+02
1.750000e+02
1.875000e+02
2.000000e+02
0.000000e+00
1.250000e+01
2.500000e+01
3.750000e+01
5.000000e+01
6.250000e+01
7.500000e+01
8.750000e+01
1.000000e+02
1.125000e+02
1.250000e+02
1.375000e+02
1.500000e+02
1.625000e+02
1.750000e+02
1.875000e+02
2.000000e+02
0.000000e+00
1.250000e+01
2.500000e+01
3.750000e+01
5.000000e+01
6.250000e+01
7.500000e+01
8.750000e+01
1.000000e+02
1.125000e+02
1.250000e+02
1.375000e+02
1.500000e+02
1.625000e+02
1.750000e+02
1.875000e+02
2.000000e+02
0.000000e+00
1.250000e+01
2.500000e+01
3.750000e+01
5.000000e+01
6.250000e+01
7.500000e+01
8.750000e+01
1.000000e+02
1.125000e+02
1.250000e+02
1.375000e+02
1.500000e+02
1.625000e+02
1.750000e+02
1.875000e+02
2.000000e+02
0.000000e+00
1.250000e+01
2.500000e+01
3.750000e+01
5.000000e+01
6.250000e+01
7.500000e+01
8.750000e+01
1.000000e+02
1.125000e+02
1.250000e+02
1.375000e+02
1.500000e+02
1.625000e+02
1.750000e+02
1.875000e+02
2.000000e+02
0.000000e+00
1.250000e+01
2.500000e+01
3.750000e+01
5.000000e+01
6.250000e+01
7.500000e+01
8.750000e+01
1.000000e+02
1.125000e+02
1.250000e+02
1.375000e+02
1.500000e+02
1.625000e+02
1.750000e+02
1.875000e+02
2.000000e+02
0.000000e+00
0.000000e+00
0.000000e+00
0.000000e+00
0.000000e+00
0.000000e+00
0.000000e+00
0.000000e+00
0.000000e+00
0.000000e+00
0.000000e+00
0.000000e+00
0.000000e+00
0.000000e+00
0.000000e+00
0.000000e+00
0.000000e+00
1.250000e+01
1.250000e+01
1.250000e+01
1.250000e+01
1.250000e+01
1.250000e+01
1.250000e+01
1.250000e+01
1.250000e+01
1.250000e+01
1.250000e+01
1.250000e+01
1.250000e+01
1.250000e+01
1.250000e+01
1.250000e+01
1.250000e+01
2.500000e+01
2.500000e+01
2.500000e+01
2.500000e+01
2.500000e+01
2.500000e+01
2.500000e+01
2.500000e+01
2.500000e+01
2.500000e+01
2.500000e+01
2.500000e+01
2.500000e+01
2.500000e+01
2.500000e+01
2.500000e+01
2.500000e+01
3.750000e+01
3.750000e+01
3.750000e+01
3.750000e+01
3.750000e+01
3.750000e+01
3.750000e+01
3.750000e+01
3.750000e+01
3.750000e+01
3.750000e+01
3.750000e+01
3.750000e+01
3.750000e+01
3.750000e+01
3.750000e+01
3.750000e+01
5.000000e+01
5.000000e+01
5.000000e+01
5.000000e+01
5.000000e+01
5.000000e+01
5.000000e+01
5.000000e+01
5.000000e+01
5.000000e+01
5.000000e+01
5.000000e+01
5.000000e+01
5.000000e+01
5.000000e+01
5.000000e+01
5.000000e+01
6.250000e+01
6.250000e+01
6.250000e+01
6.250000e+01
6.250000e+01
6.250000e+01
6.250000e+01
6.250000e+01
6.250000e+01
6.250000e+01
6.250000e+01
6.250000e+01
6.250000e+01
6.250000e+01
6.250000e+01
6.250000e+01
6.250000e+01
7.500000e+01
7.500000e+01
7.500000e+01
7.500000e+01
7.500000e+01
7.500000e+01
7.500000e+01
7.500000e+01
7.500000e+01
7.500000e+01
7.500000e+01
7.500000e+01
7.500000e+01
7.500000e+01
7.500000e+01
7.500000e+01
7.500000e+01
8.750000e+01
8.750000e+01
8.750000e+01
8.750000e+01
8.750000e+01
8.750000e+01
8.750000e+01
8.750000e+01
8.750000e+01
8.750000e+01
8.750000e+01
8.750000e+01
8.750000e+01
8.750000e+01
8.750000e+01
8.750000e+01
8.750000e+01
1.000000e+02
1.000000e+02
1.000000e+02
1.000000e+02
1.000000e+02
1.000000e+02
1.000000e+02
1.000000e+02
1.000000e+02
1.000000e+02
1.000000e+02
1.000000e+02
1.000000e+02
1.000000e+02
1.000000e+02
1.000000e+02
1.000000e+02
0.000000e+00
-9.421795e-01
-1.635094e+00
-2.351380e+00
-3.028347e+00
-3.676652e+00
-4.351136e+00
-5.007389e+00
-5.654530e+00
-6.311143e+00
-6.960170e+00
-7.615492e+00
-8.317862e+00
-9.074739e+00
-9.867509e+00
-1.057007e+01
-1.101296e+01
0.000000e+00
-4.494437e-01
-9.312747e-01
-1.437480e+00
-1.949785e+00
-2.434743e+00
-2.940693e+00
-3.438390e+00
-3.926412e+00
-4.421361e+00
-4.908970e+00
-5.391145e+00
-5.884881e+00
-6.371440e+00
-6.741579e+00
-6.837836e+00
-7.006317e+00
0.000000e+00
-1.870410e-01
-4.236100e-01
-7.293732e-01
-1.068401e+00
-1.396734e+00
-1.742977e+00
-2.085431e+00
-2.422673e+00
-2.760659e+00
-3.086827e+00
-3.392070e+00
-3.662423e+00
-3.860308e+00
-3.925768e+00
-3.907991e+00
-4.057605e+00
0.000000e+00
-8.602735e-02
-1.831083e-01
-3.269057e-01
-4.775903e-01
-6.468751e-01
-8.190370e-01
-9.891268e-01
-1.157879e+00
-1.319156e+00
-1.465157e+00
-1.580911e+00
-1.644585e+00
-1.636913e+00
-1.571059e+00
-1.563915e+00
-1.690554e+00
0.000000e+00
-2.192884e-03
-4.548806e-03
-6.671096e-03
-8.290008e-03
-8.655512e-03
-6.785230e-03
-1.089421e-03
1.114522e-02
3.312926e-02
7.019827e-02
1.312412e-01
2.231296e-01
3.405473e-01
4.431725e-01
4.596482e-01
3.583083e-01
0.000000e+00
8.227261e-02
1.756974e-01
3.155010e-01
4.633310e-01
6.318328e-01
8.067724e-01
9.866762e-01
1.176194e+00
1.375100e+00
1.585438e+00
1.803018e+00
2.015368e+00
2.201739e+00
2.326585e+00
2.352561e+00
2.291257e+00
0.000000e+00
1.852669e-01
4.201719e-01
7.240545e-01
1.061368e+00
1.389094e+00
1.736584e+00
2.084813e+00
2.432923e+00
2.787515e+00
3.143544e+00
3.492635e+00
3.808733e+00
4.059693e+00
4.219269e+00
4.273799e+00
4.257576e+00
0.000000e+00
4.488936e-01
9.308883e-01
1.436846e+00
1.948568e+00
2.432210e+00
2.935046e+00
3.430547e+00
3.912196e+00
4.391337e+00
4.864342e+00
5.322753e+00
5.731529e+00
6.044155e+00
6.239665e+00
6.325086e+00
6.340696e+00
0.000000e+00
9.422916e-01
1.637367e+00
2.355624e+00
3.034117e+00
3.683064e+00
4.354169e+00
5.005410e+00
5.637902e+00
6.261287e+00
6.871491e+00
7.454895e+00
7.957086e+00
8.309668e+00
8.490459e+00
8.537674e+00
8.537426e+00
0.000000e+00
-5.868958e-01
-1.270354e+00
-2.179385e+00
-3.254602e+00
-4.496058e+00
-5.915602e+00
-7.498141e+00
-9.249169e+00
-1.117173e+01
-1.325847e+01
-1.551702e+01
-1.796619e+01
-2.061843e+01
-2.350372e+01
-2.681833e+01
-3.172139e+01
0.000000e+00
-3.850953e-01
-1.101447e+00
-1.997832e+00
-3.083623e+00
-4.322722e+00
-5.740629e+00
-7.327662e+00
-9.078447e+00
-1.100180e+01
-1.309161e+01
-1.534762e+01
-1.778990e+01
-2.044975e+01
-2.338012e+01
-2.672522e+01
-3.073724e+01
0.000000e+00
-3.461456e-01
-9.979180e-01
-1.887457e+00
-2.962929e+00
-4.200038e+00
-5.617781e+00
-7.205478e+00
-8.958941e+00
-1.088683e+01
-1.298457e+01
-1.525183e+01
-1.770873e+01
-2.039774e+01
-2.337171e+01
-2.656005e+01
-2.954093e+01
0.000000e+00
-3.812111e-01
-9.812772e-01
-1.845853e+00
-2.896584e+00
-4.132263e+00
-5.548944e+00
-7.137133e+00
-8.897028e+00
-1.083300e+01
-1.294528e+01
-1.523528e+01
-1.771338e+01
-2.040451e+01
-2.331622e+01
-2.624104e+01
-2.878321e+01
0.000000e+00
-3.911513e-01
-9.905388e-01
-1.832897e+00
-2.881399e+00
-4.114596e+00
-5.533182e+00
-7.125959e+00
-8.892914e+00
-1.083763e+01
-1.296317e+01
-1.527076e+01
-1.775425e+01
-2.040801e+01
-2.318217e+01
-2.588781e+01
-2.818912e+01
0.000000e+00
-3.805758e-01
-9.816812e-01
-1.848370e+00
-2.902894e+00
-4.144425e+00
-5.568508e+00
-7.167703e+00
-8.941501e+00
-1.089058e+01
-1.301969e+01
-1.532939e+01
-1.780152e+01
-2.040035e+01
-2.304900e+01
-2.558838e+01
-2.778101e+01
0.000000e+00
-3.454191e-01
-9.987319e-01
-1.891826e+00
-2.973615e+00
-4.220451e+00
-5.650901e+00
-7.256772e+00
-9.032649e+00
-1.098188e+01
-1.310611e+01
-1.540648e+01
-1.785917e+01
-2.040725e+01
-2.296256e+01
-2.539852e+01
-2.758159e+01
0.000000e+00
-3.844261e-01
-1.102310e+00
-2.002687e+00
-3.095506e+00
-4.345367e+00
-5.778218e+00
-7.385384e+00
-9.160102e+00
-1.110737e+01
-1.322567e+01
-1.551348e+01
-1.794350e+01
-2.044946e+01
-2.294024e+01
-2.531644e+01
-2.753167e+01
0.000000e+00
-5.865070e-01
-1.271607e+00
-2.184588e+00
-3.266792e+00
-4.518655e+00
-5.953041e+00
-7.555051e+00
-9.326866e+00
-1.127121e+01
-1.338470e+01
-1.565943e+01
-1.805989e+01
-2.052101e+01
-2.296159e+01
-2.530142e+01
-2.753179e+01


0.000000e+00
1.445492e-05
2.638991e-05
3.755054e-05
5.368106e-05
6.887263e-05
8.227822e-05
9.815879e-05
1.132157e-04
1.279543e-04
1.434106e-04
1.598064e-04
1.780149e-04
1.918650e-04
1.990398e-04
2.037451e-04
2.099902e-04
0.000000e+00
1.080610e-05
2.056025e-05
2.839237e-05
4.096226e-05
5.300907e-05
6.236639e-05
7.388534e-05
8.566190e-05
9.588530e-05
1.064891e-04
1.179353e-04
1.296416e-04
1.367324e-04
1.375390e-04
1.409577e-04
1.466759e-04
0.000000e+00
8.640050e-06
1.515072e-05
1.998802e-05
2.841476e-05
3.637503e-05
4.206568e-05
4.951498e-05
5.691211e-05
6.285365e-05
6.879778e-05
7.429839e-05
7.867735e-05
7.996740e-05
7.969909e-05
8.228954e-05
8.704011e-05
0.000000e+00
3.850400e-06
7.205278e-06
9.355050e-06
1.359349e-05
1.663450e-05
1.942387e-05
2.308329e-05
2.547922e-05
2.786607e-05
2.931974e-05
2.912127e-05
2.794585e-05
2.676684e-05
2.747360e-05
3.098182e-05
3.652353e-05
0.000000e+00
-7.754382e-08
-1.816002e-07
-3.135131e-07
-4.828820e-07
-7.592500e-07
-1.160917e-06
-1.733421e-06
-2.636998e-06
-3.994132e-06
-6.086345e-06
-8.854228e-06
-1.191093e-05
-1.398982e-05
-1.348919e-05
-1.082089e-05
-6.943608e-06
0.000000e+00
-3.977863e-06
-7.505293e-06
-9.825897e-06
-1.439341e-05
-1.783976e-05
-2.111893e-05
-2.558719e-05
-2.899583e-05
-3.275899e-05
-3.655165e-05
-4.017717e-05
-4.346169e-05
-4.580332e-05
-4.735824e-05
-4.780849e-05
-4.665582e-05
0.000000e+00
-8.713571e-06
-1.523191e-05
-2.014787e-05
-2.883308e-05
-3.692826e-05
-4.279843e-05
-5.061115e-05
-5.784544e-05
-6.335936e-05
-6.978753e-05
-7.536339e-05
-7.925503e-05
-8.232301e-05
-8.482093e-05
-8.658935e-05
-8.713232e-05
0.000000e+00
-1.084426e-05
-2.052395e-05
-2.829798e-05
-4.101249e-05
-5.298732e-05
-6.227898e-05
-7.414686e-05
-8.559947e-05
-9.512145e-05
-1.062699e-04
-1.166685e-04
-1.234456e-04
-1.276374e-04
-1.300167e-04
-1.309355e-04
-1.311763e-04
0.000000e+00
-1.452618e-05
-2.637837e-05
-3.735604e-05
-5.344744e-05
-6.840841e-05
-8.143781e-05
-9.744681e-05
-1.123070e-04
-1.268023e-04
-1.437831e-04
-1.597247e-04
-1.709863e-04
-1.766815e-04
-1.782453e-04
-1.779222e-04
-1.776310e-04
0.000000e+00
1.225650e-05
2.047061e-05
3.235581e-05
4.965415e-05
6.825604e-05
9.084486e-05
1.195967e-04
1.512098e-04
1.869068e-04
2.281013e-04
2.747433e-04
3.268474e-04
3.822771e-04
4.453997e-04
5.168237e-04
5.901993e-04
0.000000e+00
6.890554e-06
1.618260e-05
2.668271e-05
4.255220e-05
6.218280e-05
8.478174e-05
1.127719e-04
1.448817e-04
1.806875e-04
2.215650e-04
2.676689e-04
3.203514e-04
3.785860e-04
4.411341e-04
5.096860e-04
5.801092e-04
0.000000e+00
3.421564e-06
1.225326e-05
2.210136e-05
3.705271e-05
5.707316e-05
8.031798e-05
1.078108e-04
1.400919e-04
1.765133e-04
2.171583e-04
2.632833e-04
3.165947e-04
3.770900e-04
4.376590e-04
5.022041e-04
5.694179e-04
0.000000e+00
2.192613e-06
1.020901e-05
2.012976e-05
3.482445e-05
5.493251e-05
7.837023e-05
1.060519e-04
1.383337e-04
1.748748e-04
2.159033e-04
2.619556e-04
3.156547e-04
3.761532e-04
4.353501e-04
4.942725e-04
5.546520e-04
0.000000e+00
2.005055e-06
9.480108e-06
1.969836e-05
3.430435e-05
5.429247e-05
7.780796e-05
1.056303e-04
1.379561e-04
1.744060e-04
2.157002e-04
2.622351e-04
3.159306e-04
3.765894e-04
4.341490e-04
4.874200e-04
5.393683e-04
0.000000e+00
2.296763e-06
1.037614e-05
2.026636e-05
3.496889e-05
5.506355e-05
7.836425e-05
1.061051e-04
1.383863e-04
1.747276e-04
2.164109e-04
2.641433e-04
3.183443e-04
3.774167e-04
4.342233e-04
4.844423e-04
5.298859e-04
0.000000e+00
3.579727e-06
1.249137e-05
2.231376e-05
3.731384e-05
5.722363e-05
8.023735e-05
1.077760e-04
1.399543e-04
1.762326e-04
2.186141e-04
2.678255e-04
3.221219e-04
3.789119e-04
4.335319e-04
4.826744e-04
5.272992e-04
0.000000e+00
7.037280e-06
1.642184e-05
2.695943e-05
4.286908e-05
6.235738e-05
8.473451e-05
1.126613e-04
1.444480e-04
1.802864e-04
2.233642e-04
2.726725e-04
3.256674e-04
3.802242e-04
4.329091e-04
4.816962e-04
5.277052e-04
0.000000e+00
1.240077e-05
2.067330e-05
3.266127e-05
5.001441e-05
6.840132e-05
9.088454e-05
1.196032e-04
1.505824e-04
1.865479e-04
2.301413e-04
2.780016e-04
3.287284e-04
3.812030e-04
4.327709e-04
4.813760e-04
5.280140e-04


3.576512e+00
3.515119e+00
3.596059e+00
3.344457e+00
3.198571e+00
3.398705e+00
3.541720e+00
3.798722e+00
4.214450e+00
4.660979e+00
5.370530e+00
6.471755e+00
7.516114e+00
7.805516e+00
6.870134e+00
5.770475e+00
5.692348e+00
5.610493e+00
5.578249e+00
5.393335e+00
5.224113e+00
5.333366e+00
5.404713e+00
5.542013e+00
5.802987e+00
6.074508e+00
6.489870e+00
7.145169e+00
7.750334e+00
7.624783e+00
6.318514e+00
4.835882e+00
7.787401e+00
7.732091e+00
7.700780e+00
7.551212e+00
7.461798e+00
7.477842e+00
7.468984e+00
7.491645e+00
7.560845e+00
7.607695e+00
7.648720e+00
7.735985e+00
7.798735e+00
7.390007e+00
6.106434e+00
4.871468e+00
8.588215e+00
8.559051e+00
8.531982e+00
8.455372e+00
8.408932e+00
8.385390e+00
8.346414e+00
8.307051e+00
8.251802e+00
8.126991e+00
7.880807e+00
7.556734e+00
7.327390e+00
7.083934e+00
6.581426e+00
6.114839e+00
8.584534e+00
8.554368e+00
8.526122e+00
8.447011e+00
8.395283e+00
8.360617e+00
8.304031e+00
8.233428e+00
8.112030e+00
7.881929e+00
7.507919e+00
7.077289e+00
6.897805e+00
7.046532e+00
7.283879e+00
7.400921e+00
7.776847e+00
7.718296e+00
7.678502e+00
7.516886e+00
7.405815e+00
7.384496e+00
7.324340e+00
7.249293e+00
7.149939e+00
7.035747e+00
6.948922e+00
6.918637e+00
7.096755e+00
7.526355e+00
7.976416e+00
8.233305e+00
5.677731e+00
5.591039e+00
5.547743e+00
5.345248e+00
5.146739e+00
5.214000e+00
5.236639e+00
5.280025e+00
5.438213e+00
5.781700e+00
6.385095e+00
7.062218e+00
7.640234e+00
8.121440e+00
8.459667e+00
8.619759e+00
3.559727e+00
3.499137e+00
3.572765e+00
3.312301e+00
3.149582e+00
3.327841e+00
3.469486e+00
3.710961e+00
4.171299e+00
4.965921e+00
6.121608e+00
7.243461e+00
8.002949e+00
8.435767e+00
8.658799e+00
8.751066e+00


-6.995298e-01
-2.266298e-01
-3.080788e-01
-2.411334e-01
-1.305590e-01
-2.244687e-01
-1.736237e-01
-1.389913e-01
-1.731727e-01
-1.450660e-01
-1.470597e-01
-2.615914e-01
-3.460981e-01
-1.555848e-01
4.354924e-01
-7.336309e-01
5.799705e-01
4.278077e-01
3.085101e-01
2.497017e-01
3.041416e-01
2.314512e-01
2.367828e-01
2.464507e-01
2.180043e-01
2.376186e-01
2.784941e-01
3.269168e-01
4.601522e-01
7.134462e-01
7.314965e-01
-1.054448e+00
7.842426e-01
5.861335e-01
3.549562e-01
3.009442e-01
2.915054e-01
2.485966e-01
2.578934e-01
2.674848e-01
2.704006e-01
3.041392e-01
3.640656e-01
4.347265e-01
4.681207e-01
3.370571e-01
1.084982e-01
-2.473114e-01
8.100787e-01
6.518004e-01
4.180917e-01
3.174433e-01
2.593712e-01
2.342865e-01
2.405107e-01
2.543624e-01
2.694827e-01
2.846921e-01
2.901712e-01
2.566876e-01
1.164952e-01
-1.498889e-01
-1.797272e-01
6.162089e-03
8.118835e-01
6.540595e-01
4.214618e-01
3.190775e-01
2.575280e-01
2.263784e-01
2.204687e-01
2.167895e-01
2.100042e-01
1.873725e-01
1.373383e-01
5.737688e-02
-6.523848e-02
-1.519484e-01
6.960961e-03
4.027696e-01
7.883552e-01
5.914634e-01
3.629351e-01
3.065893e-01
2.895759e-01
2.349998e-01
2.185937e-01
1.921369e-01
1.453468e-01
8.265755e-02
4.138666e-03
-4.259154e-02
-2.385322e-02
1.083744e-01
4.071300e-01
7.804492e-01
5.833619e-01
4.301118e-01
3.112695e-01
2.511426e-01
3.014547e-01
2.216334e-01
2.060181e-01
1.944017e-01
1.377946e-01
7.671601e-02
2.069105e-02
5.550717e-02
2.225820e-01
4.765882e-01
7.610014e-01
9.586068e-01
-6.979399e-01
-2.313719e-01
-3.118974e-01
-2.435379e-01
-1.300885e-01
-2.137360e-01
-1.636341e-01
-1.056459e-01
-9.268414e-02
-6.987847e-02
-1.176639e-02
1.944108e-01
5.297862e-01
8.126031e-01
9.607661e-01
9.990842e-01
1 2 19 18
2 3 20 19
3 4 21 20
4 5 22 21
5 6 23 22
6 7 24 23
7 8 25 24
8 9 26 25
9 10 27 26
10 11 28 27
11 12 29 28
12 13 30 29
13 14 31 30
14 15 32 31
15 16 33 32
16 17 34 33
18 19 36 35
19 20 37 36
20 21 38 37
21 22 39 38
22 23 40 39
23 24 41 40
24 25 42 41
25 26 43 42
26 27 44 43
27 28 45 44
28 29 46 45
29 30 47 46
30 31 48 47
31 32 49 48
32 33 50 49
33 34 51 50
35 36 53 52
36 37 54 53
37 38 55 54
38 39 56 55
39 40 57 56
40 41 58 57
41 42 59 58
42 43 60 59
43 44 61 60
44 45 62 61
45 46 63 62
46 47 64 63
47 48 65 64
48 49 66 65
49 50 67 66
50 51 68 67
52 53 70 69
53 54 71 70
54 55 72 71
55 56 73 72
56 57 74 73
57 58 75 74
58 59 76 75
59 60 77 76
60 61 78 77
61 62 79 78
62 63 80 79
63 64 81 80
64 65 82 81
65 66 83 82
66 67 84 83
67 68 85 84
69 70 87 86
70 71 88 87
71 72 89 88
72 73 90 89
73 74 91 90
74 75 92 91
75 76 93 92
76 77 94 93
77 78 95 94
78 79 96 95
79 80 97 96
80 81 98 97
81 82 99 98
82 83 100 99
83 84 101 100
84 85 102 101
86 87 104 103
87 88 105 104
88 89 106 105
89 90 107 106
90 91 108 107
91 92 109 108
92 93 110 109
93 94 111 110
94 95 112 111
95 96 113 112
96 97 114 113
97 98 115 114
98 99 116 115
99 100 117 116
100 101 118 117
101 102 119 118
103 104 121 120
104 105 122 121
105 106 123 122
106 107 124 123
107 108 125 124
108 109 126 125
109 110 127 126
110 111 128 127
111 112 129 128
112 113 130 129
113 114 131 130
114 115 132 131
115 116 133 132
116 117 134 133
117 118 135 134
118 119 136 135
120 121 138 137
121 122 139 138
122 123 140 139
123 124 141 140
124 125 142 141
125 126 143 142
126 127 144 143
127 128 145 144
128 129 146 145
129 130 147 146
130 131 148 147
131 132 149 148
132 133 150 149
133 134 151 150
134 135 152 151
135 136 153 152
