TITLE = "Solution"
VARIABLES = x, y, u, v, psiu, psiv, t, stress
ZONE T="structure" N=561 E=512 F=FEBLOCK ET=QUADRILATERAL VARLOCATION=([7,8]=cellcentered)
0.000000e+00
6.250000e+00
1.250000e+01
1.875000e+01
2.500000e+01
3.125000e+01
3.750000e+01
4.375000e+01
5.000000e+01
5.625000e+01
6.250000e+01
6.875000e+01
7.500000e+01
8.125000e+01
8.750000e+01
9.375000e+01
1.000000e+02
1.062500e+02
1.125000e+02
1.187500e+02
1.250000e+02
1.312500e+02
1.375000e+02
1.437500e+02
1.500000e+02
1.562500e+02
1.625000e+02
1.687500e+02
1.750000e+02
1.812500e+02
1.875000e+02
1.937500e+02
2.000000e+02
0.000000e+00
6.250000e+00
1.250000e+01
1.875000e+01
2.500000e+01
3.125000e+01
3.750000e+01
4.375000e+01
5.000000e+01
5.625000e+01
6.250000e+01
6.875000e+01
7.500000e+01
8.125000e+01
8.750000e+01
9.375000e+01
1.000000e+02
1.062500e+02
1.125000e+02
1.187500e+02
1.250000e+02
1.312500e+02
1.375000e+02
1.437500e+02
1.500000e+02
1.562500e+02
1.625000e+02
1.687500e+02
1.750000e+02
1.812500e+02
1.875000e+02
1.937500e+02
2.000000e+02
0.000000e+00
6.250000e+00
1.250000e+01
1.875000e+01
2.500000e+01
3.125000e+01
3.750000e+01
4.375000e+01
5.000000e+01
5.625000e+01
6.250000e+01
6.875000e+01
7.500000e+01
8.125000e+01
8.750000e+01
9.375000e+01
1.000000e+02
1.062500e+02
1.125000e+02
1.187500e+02
1.250000e+02
1.312500e+02
1.375000e+02
1.437500e+02
1.500000e+02
1.562500e+02
1.625000e+02
1.687500e+02
1.750000e+02
1.812500e+02
1.875000e+02
1.937500e+02
2.000000e+02
0.000000e+00
6.250000e+00
1.250000e+01
1.875000e+01
2.500000e+01
3.125000e+01
3.750000e+01
4.375000e+01
5.000000e+01
5.625000e+01
6.250000e+01
6.875000e+01
7.500000e+01
8.125000e+01
8.750000e+01
9.375000e+01
1.000000e+02
1.062500e+02
1.125000e+02
1.187500e+02
1.250000e+02
1.312500e+02
1.375000e+02
1.437500e+02
1.500000e+02
1.562500e+02
1.625000e+02
1.687500e+02
1.750000e+02
1.812500e+02
1.875000e+02
1.937500e+02
2.000000e+02
0.000000e+00
6.250000e+00
1.250000e+01
1.875000e+01
2.500000e+01
3.125000e+01
3.750000e+01
4.375000e+01
5.000000e+01
5.625000e+01
6.250000e+01
6.875000e+01
7.500000e+01
8.125000e+01
8.750000e+01
9.375000e+01
1.000000e+02
1.062500e+02
1.125000e+02
1.187500e+02
1.250000e+02
1.312500e+02
1.375000e+02
1.437500e+02
1.500000e+02
1.562500e+02
1.625000e+02
1.687500e+02
1.750000e+02
1.812500e+02
1.875000e+02
1.937500e+02
2.000000e+02
0.000000e+00
6.250000e+00
1.250000e+01
1.875000e+01
2.500000e+01
3.125000e+01
3.750000e+01
4.375000e+01
5.000000e+01
5.625000e+01
6.250000e+01
6.875000e+01
7.500000e+01
8.125000e+01
8.750000e+01
9.375000e+01
1.000000e+02
1.062500e+02
1.125000e+02
1.187500e+02
1.250000e+02
1.312500e+02
1.375000e+02
1.437500e+02
1.500000e+02
1.562500e+02
1.625000e+02
1.687500e+02
1.750000e+02
1.812500e+02
1.875000e+02
1.937500e+02
2.000000e+02
0.000000e+00
6.250000e+00
1.250000e+01
1.875000e+01
2.500000e+01
3.125000e+01
3.750000e+01
4.375000e+01
5.000000e+01
5.625000e+01
6.250000e+01
6.875000e+01
7.500000e+01
8.125000e+01
8.750000e+01
9.375000e+01
1.000000e+02
1.062500e+02
1.125000e+02
1.187500e+02
1.250000e+02
1.312500e+02
1.375000e+02
1.437500e+02
1.500000e+02
1.562500e+02
1.625000e+02
1.687500e+02
1.750000e+02
1.812500e+02
1.875000e+02
1.937500e+02
2.000000e+02
0.000000e+00
6.250000e+00
1.250000e+01
1.875000e+01
2.500000e+01
3.125000e+01
3.750000e+01
4.375000e+01
5.000000e+01
5.625000e+01
6.250000e+01
6.875000e+01
7.500000e+01
8.125000e+01
8.750000e+01
9.375000e+01
1.000000e+02
1.062500e+02
1.125000e+02
1.187500e+02
1.250000e+02
1.312500e+02
1.375000e+02
1.437500e+02
1.500000e+02
1.562500e+02
1.625000e+02
1.687500e+02
1.750000e+02
1.812500e+02
1.875000e+02
1.937500e+02
2.000000e+02
0.000000e+00
6.250000e+00
1.250000e+01
1.875000e+01
2.500000e+01
3.125000e+01
3.750000e+01
4.375000e+01
5.000000e+01
5.625000e+01
6.250000e+01
6.875000e+01
7.500000e+01
8.125000e+01
8.750000e+01
9.375000e+01
1.000000e+02
1.062500e+02
1.125000e+02
1.187500e+02
1.250000e+02
1.312500e+02
1.375000e+02
1.437500e+02
1.500000e+02
1.562500e+02
1.625000e+02
1.687500e+02
1.750000e+02
1.812500e+02
1.875000e+02
1.937500e+02
2.000000e+02
0.000000e+00
6.250000e+00
1.250000e+01
1.875000e+01
2.500000e+01
3.125000e+01
3.750000e+01
4.375000e+01
5.000000e+01
5.625000e+01
6.250000e+01
6.875000e+01
7.500000e+01
8.125000e+01
8.750000e+01
9.375000e+01
1.000000e+02
1.062500e+02
1.125000e+02
1.187500e+02
1.250000e+02
1.312500e+02
1.375000e+02
1.437500e+02
1.500000e+02
1.562500e+02
1.625000e+02
1.687500e+02
1.750000e+02
1.812500e+02
1.875000e+02
1.937500e+02
2.000000e+02
0.000000e+00
6.250000e+00
1.250000e+01
1.875000e+01
2.500000e+01
3.125000e+01
3.750000e+01
4.375000e+01
5.000000e+01
5.625000e+01
6.250000e+01
6.875000e+01
7.500000e+01
8.125000e+01
8.750000e+01
9.375000e+01
1.000000e+02
1.062500e+02
1.125000e+02
1.187500e+02
1.250000e+02
1.312500e+02
1.375000e+02
1.437500e+02
1.500000e+02
1.562500e+02
1.625000e+02
1.687500e+02
1.750000e+02
1.812500e+02
1.875000e+02
1.937500e+02
2.000000e+02
0.000000e+00
6.250000e+00
1.250000e+01
1.875000e+01
2.500000e+01
3.125000e+01
3.750000e+01
4.375000e+01
5.000000e+01
5.625000e+01
6.250000e+01
6.875000e+01
7.500000e+01
8.125000e+01
8.750000e+01
9.375000e+01
1.000000e+02
1.062500e+02
1.125000e+02
1.187500e+02
1.250000e+02
1.312500e+02
1.375000e+02
1.437500e+02
1.500000e+02
1.562500e+02
1.625000e+02
1.687500e+02
1.750000e+02
1.812500e+02
1.875000e+02
1.937500e+02
2.000000e+02
0.000000e+00
6.250000e+00
1.250000e+01
1.875000e+01
2.500000e+01
3.125000e+01
3.750000e+01
4.375000e+01
5.000000e+01
5.625000e+01
6.250000e+01
6.875000e+01
7.500000e+01
8.125000e+01
8.750000e+01
9.375000e+01
1.000000e+02
1.062500e+02
1.125000e+02
1.187500e+02
1.250000e+02
1.312500e+02
1.375000e+02
1.437500e+02
1.500000e+02
1.562500e+02
1.625000e+02
1.687500e+02
1.750000e+02
1.812500e+02
1.875000e+02
1.937500e+02
2.000000e+02
0.000000e+00
6.250000e+00
1.250000e+01
1.875000e+01
2.500000e+01
3.125000e+01
3.750000e+01
4.375000e+01
5.000000e+01
5.625000e+01
6.250000e+01
6.875000e+01
7.500000e+01
8.125000e+01
8.750000e+01
9.375000e+01
1.000000e+02
1.062500e+02
1.125000e+02
1.187500e+02
1.250000e+02
1.312500e+02
1.375000e+02
1.437500e+02
1.500000e+02
1.562500e+02
1.625000e+02
1.687500e+02
1.750000e+02
1.812500e+02
1.875000e+02
1.937500e+02
2.000000e+02
0.000000e+00
6.250000e+00
1.250000e+01
1.875000e+01
2.500000e+01
3.125000e+01
3.750000e+01
4.375000e+01
5.000000e+01
5.625000e+01
6.250000e+01
6.875000e+01
7.500000e+01
8.125000e+01
8.750000e+01
9.375000e+01
1.000000e+02
1.062500e+02
1.125000e+02
1.187500e+02
1.250000e+02
1.312500e+02
1.375000e+02
1.437500e+02
1.500000e+02
1.562500e+02
1.625000e+02
1.687500e+02
1.750000e+02
1.812500e+02
1.875000e+02
1.937500e+02
2.000000e+02
0.000000e+00
6.250000e+00
1.250000e+01
1.875000e+01
2.500000e+01
3.125000e+01
3.750000e+01
4.375000e+01
5.000000e+01
5.625000e+01
6.250000e+01
6.875000e+01
7.500000e+01
8.125000e+01
8.750000e+01
9.375000e+01
1.000000e+02
1.062500e+02
1.125000e+02
1.187500e+02
1.250000e+02
1.312500e+02
1.375000e+02
1.437500e+02
1.500000e+02
1.562500e+02
1.625000e+02
1.687500e+02
1.750000e+02
1.812500e+02
1.875000e+02
1.937500e+02
2.000000e+02
0.000000e+00
6.250000e+00
1.250000e+01
1.875000e+01
2.500000e+01
3.125000e+01
3.750000e+01
4.375000e+01
5.000000e+01
5.625000e+01
6.250000e+01
6.875000e+01
7.500000e+01
8.125000e+01
8.750000e+01
9.375000e+01
1.000000e+02
1.062500e+02
1.125000e+02
1.187500e+02
1.250000e+02
1.312500e+02
1.375000e+02
1.437500e+02
1.500000e+02
1.562500e+02
1.625000e+02
1.687500e+02
1.750000e+02
1.812500e+02
1.875000e+02
1.937500e+02
2.000000e+02
0.000000e+00
0.000000e+00
0.000000e+00
0.000000e+00
0.000000e+00
0.000000e+00
0.000000e+00
0.000000e+00
0.000000e+00
0.000000e+00
0.000000e+00
0.000000e+00
0.000000e+00
0.000000e+00
0.000000e+00
0.000000e+00
0.000000e+00
0.000000e+00
0.000000e+00
0.000000e+00
0.000000e+00
0.000000e+00
0.000000e+00
0.000000e+00
0.000000e+00
0.000000e+00
0.000000e+00
0.000000e+00
0.000000e+00
0.000000e+00
0.000000e+00
0.000000e+00
0.000000e+00
6.250000e+00
6.250000e+00
6.250000e+00
6.250000e+00
6.250000e+00
6.250000e+00
6.250000e+00
6.250000e+00
6.250000e+00
6.250000e+00
6.250000e+00
6.250000e+00
6.250000e+00
6.250000e+00
6.250000e+00
6.250000e+00
6.250000e+00
6.250000e+00
6.250000e+00
6.250000e+00
6.250000e+00
6.250000e+00
6.250000e+00
6.250000e+00
6.250000e+00
6.250000e+00
6.250000e+00
6.250000e+00
6.250000e+00
6.250000e+00
6.250000e+00
6.250000e+00
6.250000e+00
1.250000e+01
1.250000e+01
1.250000e+01
1.250000e+01
1.250000e+01
1.250000e+01
1.250000e+01
1.250000e+01
1.250000e+01
1.250000e+01
1.250000e+01
1.250000e+01
1.250000e+01
1.250000e+01
1.250000e+01
1.250000e+01
1.250000e+01
1.250000e+01
1.250000e+01
1.250000e+01
1.250000e+01
1.250000e+01
1.250000e+01
1.250000e+01
1.250000e+01
1.250000e+01
1.250000e+01
1.250000e+01
1.250000e+01
1.250000e+01
1.250000e+01
1.250000e+01
1.250000e+01
1.875000e+01
1.875000e+01
1.875000e+01
1.875000e+01
1.875000e+01
1.875000e+01
1.875000e+01
1.875000e+01
1.875000e+01
1.875000e+01
1.875000e+01
1.875000e+01
1.875000e+01
1.875000e+01
1.875000e+01
1.875000e+01
1.875000e+01
1.875000e+01
1.875000e+01
1.875000e+01
1.875000e+01
1.875000e+01
1.875000e+01
1.875000e+01
1.875000e+01
1.875000e+01
1.875000e+01
1.875000e+01
1.875000e+01
1.875000e+01
1.875000e+01
1.875000e+01
1.875000e+01
2.500000e+01
2.500000e+01
2.500000e+01
2.500000e+01
2.500000e+01
2.500000e+01
2.500000e+01
2.500000e+01
2.500000e+01
2.500000e+01
2.500000e+01
2.500000e+01
2.500000e+01
2.500000e+01
2.500000e+01
2.500000e+01
2.500000e+01
2.500000e+01
2.500000e+01
2.500000e+01
2.500000e+01
2.500000e+01
2.500000e+01
2.500000e+01
2.500000e+01
2.500000e+01
2.500000e+01
2.500000e+01
2.500000e+01
2.500000e+01
2.500000e+01
2.500000e+01
2.500000e+01
3.125000e+01
3.125000e+01
3.125000e+01
3.125000e+01
3.125000e+01
3.125000e+01
3.125000e+01
3.125000e+01
3.125000e+01
3.125000e+01
3.125000e+01
3.125000e+01
3.125000e+01
3.125000e+01
3.125000e+01
3.125000e+01
3.125000e+01
3.125000e+01
3.125000e+01
3.125000e+01
3.125000e+01
3.125000e+01
3.125000e+01
3.125000e+01
3.125000e+01
3.125000e+01
3.125000e+01
3.125000e+01
3.125000e+01
3.125000e+01
3.125000e+01
3.125000e+01
3.125000e+01
3.750000e+01
3.750000e+01
3.750000e+01
3.750000e+01
3.750000e+01
3.750000e+01
3.750000e+01
3.750000e+01
3.750000e+01
3.750000e+01
3.750000e+01
3.750000e+01
3.750000e+01
3.750000e+01
3.750000e+01
3.750000e+01
3.750000e+01
3.750000e+01
3.750000e+01
3.750000e+01
3.750000e+01
3.750000e+01
3.750000e+01
3.750000e+01
3.750000e+01
3.750000e+01
3.750000e+01
3.750000e+01
3.750000e+01
3.750000e+01
3.750000e+01
3.750000e+01
3.750000e+01
4.375000e+01
4.375000e+01
4.375000e+01
4.375000e+01
4.375000e+01
4.375000e+01
4.375000e+01
4.375000e+01
4.375000e+01
4.375000e+01
4.375000e+01
4.375000e+01
4.375000e+01
4.375000e+01
4.375000e+01
4.375000e+01
4.375000e+01
4.375000e+01
4.375000e+01
4.375000e+01
4.375000e+01
4.375000e+01
4.375000e+01
4.375000e+01
4.375000e+01
4.375000e+01
4.375000e+01
4.375000e+01
4.375000e+01
4.375000e+01
4.375000e+01
4.375000e+01
4.375000e+01
5.000000e+01
5.000000e+01
5.000000e+01
5.000000e+01
5.000000e+01
5.000000e+01
5.000000e+01
5.000000e+01
5.000000e+01
5.000000e+01
5.000000e+01
5.000000e+01
5.000000e+01
5.000000e+01
5.000000e+01
5.000000e+01
5.000000e+01
5.000000e+01
5.000000e+01
5.000000e+01
5.000000e+01
5.000000e+01
5.000000e+01
5.000000e+01
5.000000e+01
5.000000e+01
5.000000e+01
5.000000e+01
5.000000e+01
5.000000e+01
5.000000e+01
5.000000e+01
5.000000e+01
5.625000e+01
5.625000e+01
5.625000e+01
5.625000e+01
5.625000e+01
5.625000e+01
5.625000e+01
5.625000e+01
5.625000e+01
5.625000e+01
5.625000e+01
5.625000e+01
5.625000e+01
5.625000e+01
5.625000e+01
5.625000e+01
5.625000e+01
5.625000e+01
5.625000e+01
5.625000e+01
5.625000e+01
5.625000e+01
5.625000e+01
5.625000e+01
5.625000e+01
5.625000e+01
5.625000e+01
5.625000e+01
5.625000e+01
5.625000e+01
5.625000e+01
5.625000e+01
5.625000e+01
6.250000e+01
6.250000e+01
6.250000e+01
6.250000e+01
6.250000e+01
6.250000e+01
6.250000e+01
6.250000e+01
6.250000e+01
6.250000e+01
6.250000e+01
6.250000e+01
6.250000e+01
6.250000e+01
6.250000e+01
6.250000e+01
6.250000e+01
6.250000e+01
6.250000e+01
6.250000e+01
6.250000e+01
6.250000e+01
6.250000e+01
6.250000e+01
6.250000e+01
6.250000e+01
6.250000e+01
6.250000e+01
6.250000e+01
6.250000e+01
6.250000e+01
6.250000e+01
6.250000e+01
6.875000e+01
6.875000e+01
6.875000e+01
6.875000e+01
6.875000e+01
6.875000e+01
6.875000e+01
6.875000e+01
6.875000e+01
6.875000e+01
6.875000e+01
6.875000e+01
6.875000e+01
6.875000e+01
6.875000e+01
6.875000e+01
6.875000e+01
6.875000e+01
6.875000e+01
6.875000e+01
6.875000e+01
6.875000e+01
6.875000e+01
6.875000e+01
6.875000e+01
6.875000e+01
6.875000e+01
6.875000e+01
6.875000e+01
6.875000e+01
6.875000e+01
6.875000e+01
6.875000e+01
7.500000e+01
7.500000e+01
7.500000e+01
7.500000e+01
7.500000e+01
7.500000e+01
7.500000e+01
7.500000e+01
7.500000e+01
7.500000e+01
7.500000e+01
7.500000e+01
7.500000e+01
7.500000e+01
7.500000e+01
7.500000e+01
7.500000e+01
7.500000e+01
7.500000e+01
7.500000e+01
7.500000e+01
7.500000e+01
7.500000e+01
7.500000e+01
7.500000e+01
7.500000e+01
7.500000e+01
7.500000e+01
7.500000e+01
7.500000e+01
7.500000e+01
7.500000e+01
7.500000e+01
8.125000e+01
8.125000e+01
8.125000e+01
8.125000e+01
8.125000e+01
8.125000e+01
8.125000e+01
8.125000e+01
8.125000e+01
8.125000e+01
8.125000e+01
8.125000e+01
8.125000e+01
8.125000e+01
8.125000e+01
8.125000e+01
8.125000e+01
8.125000e+01
8.125000e+01
8.125000e+01
8.125000e+01
8.125000e+01
8.125000e+01
8.125000e+01
8.125000e+01
8.125000e+01
8.125000e+01
8.125000e+01
8.125000e+01
8.125000e+01
8.125000e+01
8.125000e+01
8.125000e+01
8.750000e+01
8.750000e+01
8.750000e+01
8.750000e+01
8.750000e+01
8.750000e+01
8.750000e+01
8.750000e+01
8.750000e+01
8.750000e+01
8.750000e+01
8.750000e+01
8.750000e+01
8.750000e+01
8.750000e+01
8.750000e+01
8.750000e+01
8.750000e+01
8.750000e+01
8.750000e+01
8.750000e+01
8.750000e+01
8.750000e+01
8.750000e+01
8.750000e+01
8.750000e+01
8.750000e+01
8.750000e+01
8.750000e+01
8.750000e+01
8.750000e+01
8.750000e+01
8.750000e+01
9.375000e+01
9.375000e+01
9.375000e+01
9.375000e+01
9.375000e+01
9.375000e+01
9.375000e+01
9.375000e+01
9.375000e+01
9.375000e+01
9.375000e+01
9.375000e+01
9.375000e+01
9.375000e+01
9.375000e+01
9.375000e+01
9.375000e+01
9.375000e+01
9.375000e+01
9.375000e+01
9.375000e+01
9.375000e+01
9.375000e+01
9.375000e+01
9.375000e+01
9.375000e+01
9.375000e+01
9.375000e+01
9.375000e+01
9.375000e+01
9.375000e+01
9.375000e+01
9.375000e+01
1.000000e+02
1.000000e+02
1.000000e+02
1.000000e+02
1.000000e+02
1.000000e+02
1.000000e+02
1.000000e+02
1.000000e+02
1.000000e+02
1.000000e+02
1.000000e+02
1.000000e+02
1.000000e+02
1.000000e+02
1.000000e+02
1.000000e+02
1.000000e+02
1.000000e+02
1.000000e+02
1.000000e+02
1.000000e+02
1.000000e+02
1.000000e+02
1.000000e+02
1.000000e+02
1.000000e+02
1.000000e+02
1.000000e+02
1.000000e+02
1.000000e+02
1.000000e+02
1.000000e+02
0.000000e+00
-4.345575e-01
-7.650831e-01
-1.090383e+00
-1.402867e+00
-1.701523e+00
-2.007916e+00
-2.306529e+00
-2.605130e+00
-2.907114e+00
-3.205104e+00
-3.504858e+00
-3.805256e+00
-4.103533e+00
-4.403312e+00
-4.702812e+00
-5.001399e+00
-5.301372e+00
-5.601096e+00
-5.900524e+00
-6.201711e+00
-6.503269e+00
-6.804762e+00
-7.108982e+00
-7.414735e+00
-7.721484e+00
-8.036358e+00
-8.357655e+00
-8.683484e+00
-9.051314e+00
-9.517819e+00
-9.938652e+00
-1.014540e+01
0.000000e+00
-2.329817e-01
-4.827521e-01
-7.442501e-01
-1.009801e+00
-1.265946e+00
-1.533108e+00
-1.794975e+00
-2.056615e+00
-2.321699e+00
-2.583014e+00
-2.845778e+00
-3.109245e+00
-3.370723e+00
-3.633466e+00
-3.895914e+00
-4.157339e+00
-4.419733e+00
-4.681564e+00
-4.942577e+00
-5.204479e+00
-5.465944e+00
-5.726321e+00
-5.987904e+00
-6.249145e+00
-6.508499e+00
-6.770691e+00
-7.031360e+00
-7.286096e+00
-7.549209e+00
-7.793436e+00
-7.891314e+00
-7.996868e+00
0.000000e+00
-1.263033e-01
-2.745068e-01
-4.666225e-01
-6.765510e-01
-8.857950e-01
-1.109986e+00
-1.332028e+00
-1.555208e+00
-1.781818e+00
-2.006025e+00
-2.231814e+00
-2.458506e+00
-2.684014e+00
-2.910647e+00
-3.137175e+00
-3.362949e+00
-3.589266e+00
-3.814888e+00
-4.039433e+00
-4.263895e+00
-4.487171e+00
-4.708529e+00
-4.929045e+00
-5.147025e+00
-5.359936e+00
-5.567886e+00
-5.765280e+00
-5.944001e+00
-6.094767e+00
-6.175075e+00
-6.179518e+00
-6.271558e+00
0.000000e+00
-8.138736e-02
-1.685572e-01
-2.975371e-01
-4.414266e-01
-6.006251e-01
-7.769762e-01
-9.553313e-01
-1.138625e+00
-1.326091e+00
-1.513136e+00
-1.702521e+00
-1.893082e+00
-2.083378e+00
-2.274935e+00
-2.466589e+00
-2.657831e+00
-2.849304e+00
-3.039995e+00
-3.229480e+00
-3.417985e+00
-3.604545e+00
-3.788142e+00
-3.968144e+00
-4.142254e+00
-4.306821e+00
-4.458183e+00
-4.590144e+00
-4.692871e+00
-4.755020e+00
-4.766227e+00
-4.779018e+00
-4.859642e+00
0.000000e+00
-8.355252e-02
-1.609820e-01
-2.549170e-01
-3.601861e-01
-4.819861e-01
-6.147136e-01
-7.526701e-01
-8.969271e-01
-1.043353e+00
-1.190878e+00
-1.340392e+00
-1.490361e+00
-1.641055e+00
-1.792587e+00
-1.944020e+00
-2.095328e+00
-2.246200e+00
-2.395960e+00
-2.544148e+00
-2.690040e+00
-2.832588e+00
-2.970346e+00
-3.101455e+00
-3.223473e+00
-3.333238e+00
-3.426984e+00
-3.499890e+00
-3.546501e+00
-3.562462e+00
-3.556377e+00
-3.583490e+00
-3.657758e+00
0.000000e+00
-6.991811e-02
-1.377624e-01
-2.080249e-01
-2.879812e-01
-3.755147e-01
-4.707319e-01
-5.718746e-01
-6.760004e-01
-7.826037e-01
-8.907582e-01
-9.998665e-01
-1.110149e+00
-1.221217e+00
-1.332734e+00
-1.444472e+00
-1.555896e+00
-1.666562e+00
-1.775949e+00
-1.883183e+00
-1.987211e+00
-2.086746e+00
-2.180059e+00
-2.265082e+00
-2.339624e+00
-2.401356e+00
-2.447918e+00
-2.476679e+00
-2.484402e+00
-2.471987e+00
-2.464457e+00
-2.493205e+00
-2.562427e+00
0.000000e+00
-4.946120e-02
-9.784261e-02
-1.474101e-01
-2.004000e-01
-2.581022e-01
-3.200447e-01
-3.853599e-01
-4.530258e-01
-5.222642e-01
-5.927101e-01
-6.640797e-01
-7.361576e-01
-8.087454e-01
-8.815343e-01
-9.541737e-01
-1.026271e+00
-1.097339e+00
-1.166762e+00
-1.233695e+00
-1.297027e+00
-1.355396e+00
-1.407160e+00
-1.450458e+00
-1.483331e+00
-1.503878e+00
-1.510160e+00
-1.499664e+00
-1.473330e+00
-1.441387e+00
-1.429814e+00
-1.458632e+00
-1.527577e+00
0.000000e+00
-2.619348e-02
-5.204096e-02
-7.815734e-02
-1.055666e-01
-1.348105e-01
-1.659183e-01
-1.985090e-01
-2.321564e-01
-2.665250e-01
-3.013318e-01
-3.363429e-01
-3.713573e-01
-4.061736e-01
-4.405647e-01
-4.742615e-01
-5.069435e-01
-5.382165e-01
-5.675669e-01
-5.943036e-01
-6.175044e-01
-6.359912e-01
-6.483435e-01
-6.529363e-01
-6.479565e-01
-6.312615e-01
-6.003685e-01
-5.553517e-01
-5.043289e-01
-4.607892e-01
-4.468235e-01
-4.765611e-01
-5.473885e-01
0.000000e+00
-1.913389e-03
-3.825657e-03
-5.689663e-03
-7.460102e-03
-9.089628e-03
-1.052048e-02
-1.168103e-02
-1.249276e-02
-1.287528e-02
-1.273473e-02
-1.194848e-02
-1.036683e-02
-7.824249e-03
-4.143026e-03
8.711292e-04
7.443094e-03
1.584541e-02
2.642153e-02
3.962758e-02
5.609027e-02
7.667995e-02
1.025732e-01
1.352875e-01
1.766870e-01
2.286090e-01
2.912560e-01
3.599244e-01
4.236899e-01
4.688237e-01
4.796238e-01
4.461758e-01
3.755614e-01
0.000000e+00
2.243258e-02
4.452725e-02
6.699667e-02
9.095350e-02
1.170280e-01
1.453480e-01
1.756554e-01
2.076643e-01
2.411959e-01
2.761654e-01
3.125953e-01
3.505869e-01
3.902735e-01
4.317943e-01
4.752871e-01
5.208979e-01
5.687932e-01
6.191652e-01
6.722443e-01
7.283469e-01
7.880068e-01
8.521393e-01
9.220166e-01
9.986468e-01
1.081476e+00
1.167106e+00
1.248260e+00
1.314406e+00
1.353759e+00
1.356038e+00
1.320271e+00
1.259286e+00
0.000000e+00
4.589976e-02
9.074997e-02
1.369153e-01
1.867409e-01
2.416008e-01
3.011031e-01
3.644384e-01
4.306420e-01
4.990577e-01
5.695486e-01
6.421243e-01
7.168632e-01
7.938737e-01
8.732119e-01
9.549584e-01
1.039227e+00
1.126139e+00
1.215845e+00
1.308491e+00
1.404243e+00
1.503352e+00
1.605966e+00
1.711708e+00
1.819137e+00
1.925236e+00
2.025080e+00
2.111182e+00
2.174247e+00
2.206104e+00
2.204084e+00
2.174117e+00
2.128984e+00
0.000000e+00
6.670082e-02
1.313569e-01
1.986411e-01
2.759178e-01
3.612405e-01
4.548260e-01
5.549395e-01
6.585915e-01
7.652950e-01
8.743398e-01
9.854515e-01
1.099112e+00
1.215177e+00
1.333602e+00
1.454508e+00
1.577832e+00
1.703681e+00
1.832198e+00
1.963393e+00
2.097225e+00
2.233330e+00
2.370385e+00
2.505931e+00
2.636846e+00
2.759239e+00
2.867829e+00
2.956068e+00
3.017688e+00
3.049605e+00
3.053271e+00
3.034803e+00
3.005844e+00
0.000000e+00
8.075091e-02
1.555955e-01
2.469755e-01
3.502346e-01
4.705624e-01
6.025159e-01
7.405814e-01
8.857151e-01
1.033753e+00
1.183868e+00
1.337216e+00
1.492566e+00
1.650443e+00
1.811122e+00
1.973880e+00
2.138913e+00
2.305990e+00
2.474436e+00
2.643787e+00
2.813220e+00
2.981448e+00
3.146402e+00
3.305307e+00
3.455082e+00
3.591749e+00
3.710183e+00
3.805179e+00
3.873196e+00
3.913163e+00
3.926769e+00
3.919925e+00
3.904567e+00
0.000000e+00
7.922713e-02
1.643739e-01
2.913633e-01
4.337216e-01
5.919250e-01
7.676783e-01
9.460321e-01
1.130085e+00
1.319081e+00
1.508736e+00
1.702117e+00
1.898328e+00
2.096352e+00
2.297918e+00
2.501951e+00
2.707981e+00
2.916154e+00
3.124680e+00
3.332150e+00
3.537318e+00
3.737761e+00
3.931145e+00
4.115672e+00
4.288713e+00
4.445510e+00
4.579976e+00
4.687375e+00
4.765510e+00
4.814635e+00
4.837527e+00
4.840424e+00
4.835258e+00
0.000000e+00
1.251295e-01
2.720761e-01
4.628661e-01
6.718249e-01
8.804568e-01
1.104150e+00
1.325862e+00
1.548986e+00
1.775833e+00
2.000737e+00
2.227855e+00
2.456664e+00
2.685316e+00
2.916316e+00
3.148524e+00
3.381296e+00
3.615609e+00
3.849702e+00
4.082398e+00
4.313215e+00
4.539624e+00
4.759496e+00
4.972126e+00
5.173681e+00
5.354757e+00
5.506148e+00
5.624038e+00
5.708928e+00
5.763578e+00
5.792337e+00
5.801741e+00
5.802781e+00
0.000000e+00
2.330591e-01
4.827555e-01
7.439951e-01
1.009366e+00
1.265457e+00
1.532372e+00
1.793881e+00
2.055136e+00
2.319733e+00
2.580447e+00
2.842453e+00
3.104960e+00
3.365225e+00
3.626443e+00
3.887013e+00
4.146013e+00
4.405271e+00
4.663309e+00
4.919658e+00
5.175314e+00
5.428373e+00
5.676831e+00
5.919295e+00
6.147898e+00
6.348039e+00
6.509442e+00
6.630392e+00
6.713883e+00
6.765306e+00
6.791739e+00
6.801387e+00
6.803730e+00
0.000000e+00
4.356330e-01
7.672741e-01
1.093650e+00
1.407077e+00
1.706585e+00
2.013433e+00
2.312189e+00
2.610761e+00
2.912379e+00
3.209565e+00
3.507899e+00
3.806022e+00
4.100929e+00
4.395944e+00
4.689100e+00
4.979487e+00
5.269329e+00
5.557540e+00
5.844412e+00
6.131946e+00
6.418561e+00
6.701649e+00
6.976817e+00
7.230452e+00
7.444260e+00
7.608348e+00
7.722485e+00
7.791202e+00
7.822668e+00
7.828791e+00
7.824367e+00
7.821784e+00
0.000000e+00
-2.637884e-01
-5.464137e-01
-9.049580e-01
-1.307735e+00
-1.752056e+00
-2.237116e+00
-2.756008e+00
-3.312223e+00
-3.904368e+00
-4.531909e+00
-5.196919e+00
-5.898232e+00
-6.636327e+00
-7.412038e+00
-8.224669e+00
-9.074899e+00
-9.963169e+00
-1.088919e+01
-1.185382e+01
-1.285772e+01
-1.390088e+01
-1.498453e+01
-1.610997e+01
-1.727771e+01
-1.849078e+01
-1.975338e+01
-2.106936e+01
-2.244922e+01
-2.391059e+01
-2.546980e+01
-2.728340e+01
-2.983639e+01
0.000000e+00
-1.656326e-01
-4.635751e-01
-8.184360e-01
-1.224382e+00
-1.668040e+00
-2.152668e+00
-2.672604e+00
-3.228005e+00
-3.820309e+00
-4.448136e+00
-5.112667e+00
-5.814251e+00
-6.552385e+00
-7.327892e+00
-8.140768e+00
-8.990929e+00
-9.879095e+00
-1.080533e+01
-1.176984e+01
-1.277357e+01
-1.381692e+01
-1.490036e+01
-1.602541e+01
-1.719332e+01
-1.840557e+01
-1.966696e+01
-2.098320e+01
-2.236099e+01
-2.381569e+01
-2.539439e+01
-2.719391e+01
-2.945894e+01
0.000000e+00
-1.380036e-01
-4.066628e-01
-7.571106e-01
-1.158781e+00
-1.599192e+00
-2.082811e+00
-2.601960e+00
-3.156608e+00
-3.748834e+00
-4.376315e+00
-5.040505e+00
-5.742085e+00
-6.480041e+00
-7.255499e+00
-8.068493e+00
-8.918644e+00
-9.806969e+00
-1.073352e+01
-1.169823e+01
-1.270231e+01
-1.374620e+01
-1.482999e+01
-1.595556e+01
-1.712443e+01
-1.833755e+01
-1.960054e+01
-2.091985e+01
-2.230249e+01
-2.377775e+01
-2.539401e+01
-2.709027e+01
-2.885363e+01
0.000000e+00
-1.588586e-01
-3.973550e-01
-7.331288e-01
-1.120015e+00
-1.552439e+00
-2.032486e+00
-2.547780e+00
-3.100838e+00
-3.692032e+00
-4.318131e+00
-4.981780e+00
-5.682837e+00
-6.420316e+00
-7.195752e+00
-8.008719e+00
-8.858987e+00
-9.747723e+00
-1.067482e+01
-1.164028e+01
-1.264534e+01
-1.369043e+01
-1.477566e+01
-1.590299e+01
-1.707412e+01
-1.829051e+01
-1.955770e+01
-2.088242e+01
-2.227448e+01
-2.376744e+01
-2.537517e+01
-2.693765e+01
-2.835557e+01
0.000000e+00
-1.895726e-01
-4.256631e-01
-7.439507e-01
-1.113510e+00
-1.535074e+00
-2.005938e+00
-2.515012e+00
-3.064676e+00
-3.652849e+00
-4.276972e+00
-4.939396e+00
-5.639244e+00
-6.376189e+00
-7.151377e+00
-7.964235e+00
-8.814904e+00
-9.704225e+00
-1.063222e+01
-1.159916e+01
-1.260589e+01
-1.365296e+01
-1.474085e+01
-1.587101e+01
-1.704518e+01
-1.826563e+01
-1.953720e+01
-2.086590e+01
-2.226008e+01
-2.374127e+01
-2.528445e+01
-2.673338e+01
-2.799969e+01
0.000000e+00
-2.001717e-01
-4.473199e-01
-7.534216e-01
-1.115229e+00
-1.528074e+00
-1.989682e+00
-2.494454e+00
-3.040110e+00
-3.625340e+00
-4.248455e+00
-4.909589e+00
-5.608660e+00
-6.345477e+00
-7.120429e+00
-7.933504e+00
-8.784845e+00
-9.674997e+00
-1.060433e+01
-1.157322e+01
-1.258227e+01
-1.363211e+01
-1.472337e+01
-1.585702e+01
-1.703441e+01
-1.825777e+01
-1.953118e+01
-2.085882e+01
-2.223967e+01
-2.368266e+01
-2.513629e+01
-2.650612e+01
-2.769551e+01
0.000000e+00
-2.045893e-01
-4.564585e-01
-7.602920e-01
-1.117026e+00
-1.524898e+00
-1.980971e+00
-2.481937e+00
-3.024967e+00
-3.608228e+00
-4.230541e+00
-4.891217e+00
-5.590005e+00
-6.326924e+00
-7.102079e+00
-7.915603e+00
-8.767781e+00
-9.659054e+00
-1.058994e+01
-1.156096e+01
-1.257264e+01
-1.362551e+01
-1.472013e+01
-1.585706e+01
-1.703695e+01
-1.826101e+01
-1.953219e+01
-2.085049e+01
-2.220521e+01
-2.359805e+01
-2.497672e+01
-2.627616e+01
-2.740804e+01
0.000000e+00
-2.064157e-01
-4.601845e-01
-7.638648e-01
-1.118662e+00
-1.523901e+00
-1.977424e+00
-2.476297e+00
-3.017909e+00
-3.600420e+00
-4.222541e+00
-4.883391e+00
-5.582547e+00
-6.319962e+00
-7.095727e+00
-7.910025e+00
-8.763201e+00
-9.655732e+00
-1.058820e+01
-1.156121e+01
-1.257529e+01
-1.363085e+01
-1.472819e+01
-1.586744e+01
-1.704837e+01
-1.827048e+01
-1.953398e+01
-2.083432e+01
-2.215736e+01
-2.349986e+01
-2.481630e+01
-2.604689e+01
-2.711760e+01
0.000000e+00
-2.068880e-01
-4.612685e-01
-7.651375e-01
-1.119660e+00
-1.524455e+00
-1.977610e+00
-2.476354e+00
-3.018114e+00
-3.601042e+00
-4.223815e+00
-4.885487e+00
-5.585580e+00
-6.323990e+00
-7.100786e+00
-7.916171e+00
-8.770513e+00
-9.664301e+00
-1.059815e+01
-1.157273e+01
-1.258854e+01
-1.364589e+01
-1.474481e+01
-1.588483e+01
-1.706439e+01
-1.828075e+01
-1.953117e+01
-2.080904e+01
-2.210078e+01
-2.339498e+01
-2.465464e+01
-2.581718e+01
-2.682368e+01
0.000000e+00
-2.063930e-01
-4.603689e-01
-7.644969e-01
-1.120006e+00
-1.526253e+00
-1.981122e+00
-2.481682e+00
-3.025220e+00
-3.609771e+00
-4.234026e+00
-4.897144e+00
-5.598690e+00
-6.338559e+00
-7.116787e+00
-7.933537e+00
-8.789151e+00
-9.684096e+00
-1.061898e+01
-1.159443e+01
-1.261094e+01
-1.366872e+01
-1.476747e+01
-1.590577e+01
-1.708053e+01
-1.828754e+01
-1.952256e+01
-2.077799e+01
-2.204004e+01
-2.329061e+01
-2.449570e+01
-2.560160e+01
-2.656426e+01
0.000000e+00
-2.045562e-01
-4.568533e-01
-7.615949e-01
-1.119763e+00
-1.529640e+00
-1.988359e+00
-2.492615e+00
-3.039386e+00
-3.626606e+00
-4.253066e+00
-4.918167e+00
-5.621620e+00
-6.363333e+00
-7.143305e+00
-7.961604e+00
-8.818500e+00
-9.714410e+00
-1.064983e+01
-1.162528e+01
-1.264111e+01
-1.369744e+01
-1.479350e+01
-1.592700e+01
-1.709425e+01
-1.829068e+01
-1.951085e+01
-2.074588e+01
-2.198060e+01
-2.319307e+01
-2.435286e+01
-2.542206e+01
-2.636740e+01
0.000000e+00
-2.001502e-01
-4.479767e-01
-7.554792e-01
-1.119467e+00
-1.535339e+00
-2.000847e+00
-2.510366e+00
-3.061369e+00
-3.652242e+00
-4.281295e+00
-4.948780e+00
-5.654529e+00
-6.398203e+00
-7.180032e+00
-7.999850e+00
-8.857767e+00
-9.754235e+00
-1.068947e+01
-1.166372e+01
-1.267728e+01
-1.373006e+01
-1.482096e+01
-1.594761e+01
-1.710671e+01
-1.829355e+01
-1.950119e+01
-2.071876e+01
-2.192926e+01
-2.311078e+01
-2.423924e+01
-2.528931e+01
-2.623607e+01
0.000000e+00
-1.896065e-01
-4.266511e-01
-7.468497e-01
-1.119401e+00
-1.545009e+00
-2.020994e+00
-2.536103e+00
-3.092486e+00
-3.687800e+00
-4.319483e+00
-4.989967e+00
-5.698245e+00
-6.443794e+00
-7.227497e+00
-8.048528e+00
-8.906902e+00
-9.803185e+00
-1.073709e+01
-1.170873e+01
-1.271849e+01
-1.376611e+01
-1.485040e+01
-1.596981e+01
-1.712203e+01
-1.830201e+01
-1.950050e+01
-2.070351e+01
-2.189316e+01
-2.305072e+01
-2.415861e+01
-2.520039e+01
-2.616037e+01
0.000000e+00
-1.589486e-01
-3.986168e-01
-7.368220e-01
-1.127362e+00
-1.564714e+00
-2.050816e+00
-2.573047e+00
-3.133881e+00
-3.733488e+00
-4.368569e+00
-5.041814e+00
-5.752835e+00
-6.500373e+00
-7.285649e+00
-8.107749e+00
-8.966101e+00
-9.861405e+00
-1.079306e+01
-1.176096e+01
-1.276596e+01
-1.380776e+01
-1.488548e+01
-1.599901e+01
-1.714712e+01
-1.832320e+01
-1.951412e+01
-2.070356e+01
-2.187514e+01
-2.301401e+01
-2.410773e+01
-2.514713e+01
-2.612693e+01
0.000000e+00
-1.378559e-01
-4.078233e-01
-7.608749e-01
-1.166516e+00
-1.612164e+00
-2.102146e+00
-2.628555e+00
-3.191351e+00
-3.792564e+00
-4.429717e+00
-5.104287e+00
-5.816726e+00
-6.565613e+00
-7.351768e+00
-8.174576e+00
-9.032992e+00
-9.927452e+00
-1.085726e+01
-1.182210e+01
-1.282300e+01
-1.385999e+01
-1.493289e+01
-1.604292e+01
-1.718858e+01
-1.836013e+01
-1.954171e+01
-2.071762e+01
-2.187385e+01
-2.299813e+01
-2.408134e+01
-2.512031e+01
-2.612056e+01
0.000000e+00
-1.654246e-01
-4.646606e-01
-8.221598e-01
-1.232173e+00
-1.681142e+00
-2.172170e+00
-2.699438e+00
-3.263077e+00
-3.864509e+00
-4.502208e+00
-5.177337e+00
-5.890023e+00
-6.639342e+00
-7.425766e+00
-8.248583e+00
-9.106906e+00
-1.000079e+01
-1.092946e+01
-1.189268e+01
-1.289133e+01
-1.392567e+01
-1.499626e+01
-1.610416e+01
-1.724570e+01
-1.840897e+01
-1.957883e+01
-2.074163e+01
-2.188495e+01
-2.299778e+01
-2.407282e+01
-2.511059e+01
-2.612503e+01
0.000000e+00
-2.638296e-01
-5.476664e-01
-9.088413e-01
-1.315685e+00
-1.765285e+00
-2.256665e+00
-2.782854e+00
-3.347278e+00
-3.948494e+00
-4.585843e+00
-5.261345e+00
-5.973609e+00
-6.722690e+00
-7.509053e+00
-8.331288e+00
-9.189230e+00
-1.008272e+01
-1.101068e+01
-1.197339e+01
-1.297146e+01
-1.400474e+01