TITLE = "Solution"
VARIABLES = x, y, u, v, psiu, psiv, t, stress
ZONE T="structure" N=561 E=512 F=FEBLOCK ET=QUADRILATERAL VARLOCATION=([7,8]=cellcentered)
0.000000e+00
6.250000e+00
1.250000e+01
1.875000e+01
2.500000e+01
3.125000e+01
3.750000e+01
4.375000e+01
5.000000e+01
5.625000e+01
6.250000e+01
6.875000e+01
7.500000e+01
8.125000e+01
8.750000e+01
9.375000e+01
1.000000e+02
1.062500e+02
1.125000e+02
1.187500e+02
1.250000e+02
1.312500e+02
1.375000e+02
1.437500e+02
1.500000e+02
1.562500e+02
1.625000e+02
1.687500e+02
1.750000e+02
1.812500e+02
1.875000e+02
1.937500e+02
2.000000e+02
0.000000e+00
6.250000e+00
1.250000e+01
1.875000e+01
2.500000e+01
3.125000e+01
3.750000e+01
4.375000e+01
5.000000e+01
5.625000e+01
6.250000e+01
6.875000e+01
7.500000e+01
8.125000e+01
8.750000e+01
9.375000e+01
1.000000e+02
1.062500e+02
1.125000e+02
1.187500e+02
1.250000e+02
1.312500e+02
1.375000e+02
1.437500e+02
1.500000e+02
1.562500e+02
1.625000e+02
1.687500e+02
1.750000e+02
1.812500e+02
1.875000e+02
1.937500e+02
2.000000e+02
0.000000e+00
6.250000e+00
1.250000e+01
1.875000e+01
2.500000e+01
3.125000e+01
3.750000e+01
4.375000e+01
5.000000e+01
5.625000e+01
6.250000e+01
6.875000e+01
7.500000e+01
8.125000e+01
8.750000e+01
9.375000e+01
1.000000e+02
1.062500e+02
1.125000e+02
1.187500e+02
1.250000e+02
1.312500e+02
1.375000e+02
1.437500e+02
1.500000e+02
1.562500e+02
1.625000e+02
1.687500e+02
1.750000e+02
1.812500e+02
1.875000e+02
1.937500e+02
2.000000e+02
0.000000e+00
6.250000e+00
1.250000e+01
1.875000e+01
2.500000e+01
3.125000e+01
3.750000e+01
4.375000e+01
5.000000e+01
5.625000e+01
6.250000e+01
6.875000e+01
7.500000e+01
8.125000e+01
8.750000e+01
9.375000e+01
1.000000e+02
1.062500e+02
1.125000e+02
1.187500e+02
1.250000e+02
1.312500e+02
1.375000e+02
1.437500e+02
1.500000e+02
1.562500e+02
1.625000e+02
1.687500e+02
1.750000e+02
1.812500e+02
1.875000e+02
1.937500e+02
2.000000e+02
0.000000e+00
6.250000e+00
1.250000e+01
1.875000e+01
2.500000e+01
3.125000e+01
3.750000e+01
4.375000e+01
5.000000e+01
5.625000e+01
6.250000e+01
6.875000e+01
7.500000e+01
8.125000e+01
8.750000e+01
9.375000e+01
1.000000e+02
1.062500e+02
1.125000e+02
1.187500e+02
1.250000e+02
1.312500e+02
1.375000e+02
1.437500e+02
1.500000e+02
1.562500e+02
1.625000e+02
1.687500e+02
1.750000e+02
1.812500e+02
1.875000e+02
1.937500e+02
2.000000e+02
0.000000e+00
6.250000e+00
1.250000e+01
1.875000e+01
2.500000e+01
3.125000e+01
3.750000e+01
4.375000e+01
5.000000e+01
5.625000e+01
6.250000e+01
6.875000e+01
7.500000e+01
8.125000e+01
8.750000e+01
9.375000e+01
1.000000e+02
1.062500e+02
1.125000e+02
1.187500e+02
1.250000e+02
1.312500e+02
1.375000e+02
1.437500e+02
1.500000e+02
1.562500e+02
1.625000e+02
1.687500e+02
1.750000e+02
1.812500e+02
1.875000e+02
1.937500e+02
2.000000e+02
0.000000e+00
6.250000e+00
1.250000e+01
1.875000e+01
2.500000e+01
3.125000e+01
3.750000e+01
4.375000e+01
5.000000e+01
5.625000e+01
6.250000e+01
6.875000e+01
7.500000e+01
8.125000e+01
8.750000e+01
9.375000e+01
1.000000e+02
1.062500e+02
1.125000e+02
1.187500e+02
1.250000e+02
1.312500e+02
1.375000e+02
1.437500e+02
1.500000e+02
1.562500e+02
1.625000e+02
1.687500e+02
1.750000e+02
1.812500e+02
1.875000e+02
1.937500e+02
2.000000e+02
0.000000e+00
6.250000e+00
1.250000e+01
1.875000e+01
2.500000e+01
3.125000e+01
3.750000e+01
4.375000e+01
5.000000e+01
5.625000e+01
6.250000e+01
6.875000e+01
7.500000e+01
8.125000e+01
8.750000e+01
9.375000e+01
1.000000e+02
1.062500e+02
1.125000e+02
1.187500e+02
1.250000e+02
1.312500e+02
1.375000e+02
1.437500e+02
1.500000e+02
1.562500e+02
1.625000e+02
1.687500e+02
1.750000e+02
1.812500e+02
1.875000e+02
1.937500e+02
2.000000e+02
0.000000e+00
6.250000e+00
1.250000e+01
1.875000e+01
2.500000e+01
3.125000e+01
3.750000e+01
4.375000e+01
5.000000e+01
5.625000e+01
6.250000e+01
6.875000e+01
7.500000e+01
8.125000e+01
8.750000e+01
9.375000e+01
1.000000e+02
1.062500e+02
1.125000e+02
1.187500e+02
1.250000e+02
1.312500e+02
1.375000e+02
1.437500e+02
1.500000e+02
1.562500e+02
1.625000e+02
1.687500e+02
1.750000e+02
1.812500e+02
1.875000e+02
1.937500e+02
2.000000e+02
0.000000e+00
6.250000e+00
1.250000e+01
1.875000e+01
2.500000e+01
3.125000e+01
3.750000e+01
4.375000e+01
5.000000e+01
5.625000e+01
6.250000e+01
6.875000e+01
7.500000e+01
8.125000e+01
8.750000e+01
9.375000e+01
1.000000e+02
1.062500e+02
1.125000e+02
1.187500e+02
1.250000e+02
1.312500e+02
1.375000e+02
1.437500e+02
1.500000e+02
1.562500e+02
1.625000e+02
1.687500e+02
1.750000e+02
1.812500e+02
1.875000e+02
1.937500e+02
2.000000e+02
0.000000e+00
6.250000e+00
1.250000e+01
1.875000e+01
2.500000e+01
3.125000e+01
3.750000e+01
4.375000e+01
5.000000e+01
5.625000e+01
6.250000e+01
6.875000e+01
7.500000e+01
8.125000e+01
8.750000e+01
9.375000e+01
1.000000e+02
1.062500e+02
1.125000e+02
1.187500e+02
1.250000e+02
1.312500e+02
1.375000e+02
1.437500e+02
1.500000e+02
1.562500e+02
1.625000e+02
1.687500e+02
1.750000e+02
1.812500e+02
1.875000e+02
1.937500e+02
2.000000e+02
0.000000e+00
6.250000e+00
1.250000e+01
1.875000e+01
2.500000e+01
3.125000e+01
3.750000e+01
4.375000e+01
5.000000e+01
5.625000e+01
6.250000e+01
6.875000e+01
7.500000e+01
8.125000e+01
8.750000e+01
9.375000e+01
1.000000e+02
1.062500e+02
1.125000e+02
1.187500e+02
1.250000e+02
1.312500e+02
1.375000e+02
1.437500e+02
1.500000e+02
1.562500e+02
1.625000e+02
1.687500e+02
1.750000e+02
1.812500e+02
1.875000e+02
1.937500e+02
2.000000e+02
0.000000e+00
6.250000e+00
1.250000e+01
1.875000e+01
2.500000e+01
3.125000e+01
3.750000e+01
4.375000e+01
5.000000e+01
5.625000e+01
6.250000e+01
6.875000e+01
7.500000e+01
8.125000e+01
8.750000e+01
9.375000e+01
1.000000e+02
1.062500e+02
1.125000e+02
1.187500e+02
1.250000e+02
1.312500e+02
1.375000e+02
1.437500e+02
1.500000e+02
1.562500e+02
1.625000e+02
1.687500e+02
1.750000e+02
1.812500e+02
1.875000e+02
1.937500e+02
2.000000e+02
0.000000e+00
6.250000e+00
1.250000e+01
1.875000e+01
2.500000e+01
3.125000e+01
3.750000e+01
4.375000e+01
5.000000e+01
5.625000e+01
6.250000e+01
6.875000e+01
7.500000e+01
8.125000e+01
8.750000e+01
9.375000e+01
1.000000e+02
1.062500e+02
1.125000e+02
1.187500e+02
1.250000e+02
1.312500e+02
1.375000e+02
1.437500e+02
1.500000e+02
1.562500e+02
1.625000e+02
1.687500e+02
1.750000e+02
1.812500e+02
1.875000e+02
1.937500e+02
2.000000e+02
0.000000e+00
6.250000e+00
1.250000e+01
1.875000e+01
2.500000e+01
3.125000e+01
3.750000e+01
4.375000e+01
5.000000e+01
5.625000e+01
6.250000e+01
6.875000e+01
7.500000e+01
8.125000e+01
8.750000e+01
9.375000e+01
1.000000e+02
1.062500e+02
1.125000e+02
1.187500e+02
1.250000e+02
1.312500e+02
1.375000e+02
1.437500e+02
1.500000e+02
1.562500e+02
1.625000e+02
1.687500e+02
1.750000e+02
1.812500e+02
1.875000e+02
1.937500e+02
2.000000e+02
0.000000e+00
6.250000e+00
1.250000e+01
1.875000e+01
2.500000e+01
3.125000e+01
3.750000e+01
4.375000e+01
5.000000e+01
5.625000e+01
6.250000e+01
6.875000e+01
7.500000e+01
8.125000e+01
8.750000e+01
9.375000e+01
1.000000e+02
1.062500e+02
1.125000e+02
1.187500e+02
1.250000e+02
1.312500e+02
1.375000e+02
1.437500e+02
1.500000e+02
1.562500e+02
1.625000e+02
1.687500e+02
1.750000e+02
1.812500e+02
1.875000e+02
1.937500e+02
2.000000e+02
0.000000e+00
6.250000e+00
1.250000e+01
1.875000e+01
2.500000e+01
3.125000e+01
3.750000e+01
4.375000e+01
5.000000e+01
5.625000e+01
6.250000e+01
6.875000e+01
7.500000e+01
8.125000e+01
8.750000e+01
9.375000e+01
1.000000e+02
1.062500e+02
1.125000e+02
1.187500e+02
1.250000e+02
1.312500e+02
1.375000e+02
1.437500e+02
1.500000e+02
1.562500e+02
1.625000e+02
1.687500e+02
1.750000e+02
1.812500e+02
1.875000e+02
1.937500e+02
2.000000e+02
0.000000e+00
0.000000e+00
0.000000e+00
0.000000e+00
0.000000e+00
0.000000e+00
0.000000e+00
0.000000e+00
0.000000e+00
0.000000e+00
0.000000e+00
0.000000e+00
0.000000e+00
0.000000e+00
0.000000e+00
0.000000e+00
0.000000e+00
0.000000e+00
0.000000e+00
0.000000e+00
0.000000e+00
0.000000e+00
0.000000e+00
0.000000e+00
0.000000e+00
0.000000e+00
0.000000e+00
0.000000e+00
0.000000e+00
0.000000e+00
0.000000e+00
0.000000e+00
0.000000e+00
6.250000e+00
6.250000e+00
6.250000e+00
6.250000e+00
6.250000e+00
6.250000e+00
6.250000e+00
6.250000e+00
6.250000e+00
6.250000e+00
6.250000e+00
6.250000e+00
6.250000e+00
6.250000e+00
6.250000e+00
6.250000e+00
6.250000e+00
6.250000e+00
6.250000e+00
6.250000e+00
6.250000e+00
6.250000e+00
6.250000e+00
6.250000e+00
6.250000e+00
6.250000e+00
6.250000e+00
6.250000e+00
6.250000e+00
6.250000e+00
6.250000e+00
6.250000e+00
6.250000e+00
1.250000e+01
1.250000e+01
1.250000e+01
1.250000e+01
1.250000e+01
1.250000e+01
1.250000e+01
1.250000e+01
1.250000e+01
1.250000e+01
1.250000e+01
1.250000e+01
1.250000e+01
1.250000e+01
1.250000e+01
1.250000e+01
1.250000e+01
1.250000e+01
1.250000e+01
1.250000e+01
1.250000e+01
1.250000e+01
1.250000e+01
1.250000e+01
1.250000e+01
1.250000e+01
1.250000e+01
1.250000e+01
1.250000e+01
1.250000e+01
1.250000e+01
1.250000e+01
1.250000e+01
1.875000e+01
1.875000e+01
1.875000e+01
1.875000e+01
1.875000e+01
1.875000e+01
1.875000e+01
1.875000e+01
1.875000e+01
1.875000e+01
1.875000e+01
1.875000e+01
1.875000e+01
1.875000e+01
1.875000e+01
1.875000e+01
1.875000e+01
1.875000e+01
1.875000e+01
1.875000e+01
1.875000e+01
1.875000e+01
1.875000e+01
1.875000e+01
1.875000e+01
1.875000e+01
1.875000e+01
1.875000e+01
1.875000e+01
1.875000e+01
1.875000e+01
1.875000e+01
1.875000e+01
2.500000e+01
2.500000e+01
2.500000e+01
2.500000e+01
2.500000e+01
2.500000e+01
2.500000e+01
2.500000e+01
2.500000e+01
2.500000e+01
2.500000e+01
2.500000e+01
2.500000e+01
2.500000e+01
2.500000e+01
2.500000e+01
2.500000e+01
2.500000e+01
2.500000e+01
2.500000e+01
2.500000e+01
2.500000e+01
2.500000e+01
2.500000e+01
2.500000e+01
2.500000e+01
2.500000e+01
2.500000e+01
2.500000e+01
2.500000e+01
2.500000e+01
2.500000e+01
2.500000e+01
3.125000e+01
3.125000e+01
3.125000e+01
3.125000e+01
3.125000e+01
3.125000e+01
3.125000e+01
3.125000e+01
3.125000e+01
3.125000e+01
3.125000e+01
3.125000e+01
3.125000e+01
3.125000e+01
3.125000e+01
3.125000e+01
3.125000e+01
3.125000e+01
3.125000e+01
3.125000e+01
3.125000e+01
3.125000e+01
3.125000e+01
3.125000e+01
3.125000e+01
3.125000e+01
3.125000e+01
3.125000e+01
3.125000e+01
3.125000e+01
3.125000e+01
3.125000e+01
3.125000e+01
3.750000e+01
3.750000e+01
3.750000e+01
3.750000e+01
3.750000e+01
3.750000e+01
3.750000e+01
3.750000e+01
3.750000e+01
3.750000e+01
3.750000e+01
3.750000e+01
3.750000e+01
3.750000e+01
3.750000e+01
3.750000e+01
3.750000e+01
3.750000e+01
3.750000e+01
3.750000e+01
3.750000e+01
3.750000e+01
3.750000e+01
3.750000e+01
3.750000e+01
3.750000e+01
3.750000e+01
3.750000e+01
3.750000e+01
3.750000e+01
3.750000e+01
3.750000e+01
3.750000e+01
4.375000e+01
4.375000e+01
4.375000e+01
4.375000e+01
4.375000e+01
4.375000e+01
4.375000e+01
4.375000e+01
4.375000e+01
4.375000e+01
4.375000e+01
4.375000e+01
4.375000e+01
4.375000e+01
4.375000e+01
4.375000e+01
4.375000e+01
4.375000e+01
4.375000e+01
4.375000e+01
4.375000e+01
4.375000e+01
4.375000e+01
4.375000e+01
4.375000e+01
4.375000e+01
4.375000e+01
4.375000e+01
4.375000e+01
4.375000e+01
4.375000e+01
4.375000e+01
4.375000e+01
5.000000e+01
5.000000e+01
5.000000e+01
5.000000e+01
5.000000e+01
5.000000e+01
5.000000e+01
5.000000e+01
5.000000e+01
5.000000e+01
5.000000e+01
5.000000e+01
5.000000e+01
5.000000e+01
5.000000e+01
5.000000e+01
5.000000e+01
5.000000e+01
5.000000e+01
5.000000e+01
5.000000e+01
5.000000e+01
5.000000e+01
5.000000e+01
5.000000e+01
5.000000e+01
5.000000e+01
5.000000e+01
5.000000e+01
5.000000e+01
5.000000e+01
5.000000e+01
5.000000e+01
5.625000e+01
5.625000e+01
5.625000e+01
5.625000e+01
5.625000e+01
5.625000e+01
5.625000e+01
5.625000e+01
5.625000e+01
5.625000e+01
5.625000e+01
5.625000e+01
5.625000e+01
5.625000e+01
5.625000e+01
5.625000e+01
5.625000e+01
5.625000e+01
5.625000e+01
5.625000e+01
5.625000e+01
5.625000e+01
5.625000e+01
5.625000e+01
5.625000e+01
5.625000e+01
5.625000e+01
5.625000e+01
5.625000e+01
5.625000e+01
5.625000e+01
5.625000e+01
5.625000e+01
6.250000e+01
6.250000e+01
6.250000e+01
6.250000e+01
6.250000e+01
6.250000e+01
6.250000e+01
6.250000e+01
6.250000e+01
6.250000e+01
6.250000e+01
6.250000e+01
6.250000e+01
6.250000e+01
6.250000e+01
6.250000e+01
6.250000e+01
6.250000e+01
6.250000e+01
6.250000e+01
6.250000e+01
6.250000e+01
6.250000e+01
6.250000e+01
6.250000e+01
6.250000e+01
6.250000e+01
6.250000e+01
6.250000e+01
6.250000e+01
6.250000e+01
6.250000e+01
6.250000e+01
6.875000e+01
6.875000e+01
6.875000e+01
6.875000e+01
6.875000e+01
6.875000e+01
6.875000e+01
6.875000e+01
6.875000e+01
6.875000e+01
6.875000e+01
6.875000e+01
6.875000e+01
6.875000e+01
6.875000e+01
6.875000e+01
6.875000e+01
6.875000e+01
6.875000e+01
6.875000e+01
6.875000e+01
6.875000e+01
6.875000e+01
6.875000e+01
6.875000e+01
6.875000e+01
6.875000e+01
6.875000e+01
6.875000e+01
6.875000e+01
6.875000e+01
6.875000e+01
6.875000e+01
7.500000e+01
7.500000e+01
7.500000e+01
7.500000e+01
7.500000e+01
7.500000e+01
7.500000e+01
7.500000e+01
7.500000e+01
7.500000e+01
7.500000e+01
7.500000e+01
7.500000e+01
7.500000e+01
7.500000e+01
7.500000e+01
7.500000e+01
7.500000e+01
7.500000e+01
7.500000e+01
7.500000e+01
7.500000e+01
7.500000e+01
7.500000e+01
7.500000e+01
7.500000e+01
7.500000e+01
7.500000e+01
7.500000e+01
7.500000e+01
7.500000e+01
7.500000e+01
7.500000e+01
8.125000e+01
8.125000e+01
8.125000e+01
8.125000e+01
8.125000e+01
8.125000e+01
8.125000e+01
8.125000e+01
8.125000e+01
8.125000e+01
8.125000e+01
8.125000e+01
8.125000e+01
8.125000e+01
8.125000e+01
8.125000e+01
8.125000e+01
8.125000e+01
8.125000e+01
8.125000e+01
8.125000e+01
8.125000e+01
8.125000e+01
8.125000e+01
8.125000e+01
8.125000e+01
8.125000e+01
8.125000e+01
8.125000e+01
8.125000e+01
8.125000e+01
8.125000e+01
8.125000e+01
8.750000e+01
8.750000e+01
8.750000e+01
8.750000e+01
8.750000e+01
8.750000e+01
8.750000e+01
8.750000e+01
8.750000e+01
8.750000e+01
8.750000e+01
8.750000e+01
8.750000e+01
8.750000e+01
8.750000e+01
8.750000e+01
8.750000e+01
8.750000e+01
8.750000e+01
8.750000e+01
8.750000e+01
8.750000e+01
8.750000e+01
8.750000e+01
8.750000e+01
8.750000e+01
8.750000e+01
8.750000e+01
8.750000e+01
8.750000e+01
8.750000e+01
8.750000e+01
8.750000e+01
9.375000e+01
9.375000e+01
9.375000e+01
9.375000e+01
9.375000e+01
9.375000e+01
9.375000e+01
9.375000e+01
9.375000e+01
9.375000e+01
9.375000e+01
9.375000e+01
9.375000e+01
9.375000e+01
9.375000e+01
9.375000e+01
9.375000e+01
9.375000e+01
9.375000e+01
9.375000e+01
9.375000e+01
9.375000e+01
9.375000e+01
9.375000e+01
9.375000e+01
9.375000e+01
9.375000e+01
9.375000e+01
9.375000e+01
9.375000e+01
9.375000e+01
9.375000e+01
9.375000e+01
1.000000e+02
1.000000e+02
1.000000e+02
1.000000e+02
1.000000e+02
1.000000e+02
1.000000e+02
1.000000e+02
1.000000e+02
1.000000e+02
1.000000e+02
1.000000e+02
1.000000e+02
1.000000e+02
1.000000e+02
1.000000e+02
1.000000e+02
1.000000e+02
1.000000e+02
1.000000e+02
1.000000e+02
1.000000e+02
1.000000e+02
1.000000e+02
1.000000e+02
1.000000e+02
1.000000e+02
1.000000e+02
1.000000e+02
1.000000e+02
1.000000e+02
1.000000e+02
1.000000e+02
0.000000e+00
-4.401251e-02
-7.985485e-02
-1.130577e-01
-1.449231e-01
-1.756940e-01
-2.054321e-01
-2.341349e-01
-2.617842e-01
-2.883600e-01
-3.138455e-01
-3.382293e-01
-3.615055e-01
-3.836735e-01
-4.047386e-01
-4.247118e-01
-4.436110e-01
-4.614623e-01
-4.783014e-01
-4.941770e-01
-5.091534e-01
-5.233161e-01
-5.367779e-01
-5.496885e-01
-5.622484e-01
-5.747301e-01
-5.875122e-01
-6.011345e-01
-6.163887e-01
-6.344402e-01
-6.568006e-01
-6.834482e-01
-6.997108e-01
0.000000e+00
-2.950920e-02
-6.139707e-02
-9.146312e-02
-1.200397e-01
-1.473990e-01
-1.736855e-01
-1.989625e-01
-2.232552e-01
-2.465718e-01
-2.689138e-01
-2.902812e-01
-3.106751e-01
-3.300987e-01
-3.485585e-01
-3.660647e-01
-3.826324e-01
-3.982818e-01
-4.130402e-01
-4.269428e-01
-4.400345e-01
-4.523719e-01
-4.640252e-01
-4.750805e-01
-4.856406e-01
-4.958236e-01
-5.057544e-01
-5.155355e-01
-5.251664e-01
-5.343338e-01
-5.419727e-01
-5.464388e-01
-5.526563e-01
0.000000e+00
-2.340677e-02
-4.818847e-02
-7.342018e-02
-9.793759e-02
-1.215515e-01
-1.442468e-01
-1.660450e-01
-1.869654e-01
-2.070211e-01
-2.262207e-01
-2.445702e-01
-2.620747e-01
-2.787392e-01
-2.945701e-01
-3.095749e-01
-3.237634e-01
-3.371479e-01
-3.497434e-01
-3.615678e-01
-3.726419e-01
-3.829881e-01
-3.926283e-01
-4.015797e-01
-4.098458e-01
-4.174001e-01
-4.241562e-01
-4.299153e-01
-4.342878e-01
-4.366422e-01
-4.364358e-01
-4.351137e-01
-4.423741e-01
0.000000e+00
-1.857120e-02
-3.816804e-02
-5.830136e-02
-7.838749e-02
-9.798709e-02
-1.169323e-01
-1.351630e-01
-1.526627e-01
-1.694309e-01
-1.854718e-01
-2.007908e-01
-2.153931e-01
-2.292832e-01
-2.424653e-01
-2.549431e-01
-2.667200e-01
-2.777989e-01
-2.881823e-01
-2.978707e-01
-3.068615e-01
-3.151466e-01
-3.227077e-01
-3.295094e-01
-3.354891e-01
-3.405411e-01
-3.444982e-01
-3.471187e-01
-3.481193e-01
-3.473765e-01
-3.455725e-01
-3.454648e-01
-3.523821e-01
0.000000e+00
-1.441384e-02
-2.951464e-02
-4.509782e-02
-6.080759e-02
-7.632469e-02
-9.143501e-02
-1.060301e-01
-1.200608e-01
-1.335081e-01
-1.463670e-01
-1.586381e-01
-1.703239e-01
-1.814263e-01
-1.919459e-01
-2.018819e-01
-2.112312e-01
-2.199881e-01
-2.281435e-01
-2.356839e-01
-2.425889e-01
-2.488291e-01
-2.543617e-01
-2.591260e-01
-2.630378e-01
-2.659863e-01
-2.678418e-01
-2.684926e-01
-2.679587e-01
-2.666521e-01
-2.658045e-01
-2.677619e-01
-2.736627e-01
0.000000e+00
-1.059334e-02
-2.164053e-02
-3.304264e-02
-4.460264e-02
-5.610476e-02
-6.737767e-02
-7.831003e-02
-8.884072e-02
-9.894001e-02
-1.085954e-01
-1.178024e-01
-1.265595e-01
-1.348651e-01
-1.427160e-01
-1.501068e-01
-1.570286e-01
-1.634687e-01
-1.694098e-01
-1.748285e-01
-1.796945e-01
-1.839681e-01
-1.875996e-01
-1.905279e-01
-1.926836e-01
-1.939989e-01
-1.944353e-01
-1.940437e-01
-1.930785e-01
-1.921601e-01
-1.923837e-01
-1.948791e-01
-1.997616e-01
0.000000e+00
-6.971688e-03
-1.421914e-02
-2.169650e-02
-2.929714e-02
-3.689313e-02
-4.436991e-02
-5.164398e-02
-5.866308e-02
-6.539839e-02
-7.183533e-02
-7.796657e-02
-8.378742e-02
-8.929304e-02
-9.447677e-02
-9.932914e-02
-1.038371e-01
-1.079832e-01
-1.117453e-01
-1.150957e-01
-1.180007e-01
-1.204209e-01
-1.223124e-01
-1.236304e-01
-1.243386e-01
-1.244265e-01
-1.239423e-01
-1.230462e-01
-1.220794e-01
-1.216107e-01
-1.223419e-01
-1.247714e-01
-1.287127e-01
0.000000e+00
-3.462835e-03
-7.056586e-03
-1.076278e-02
-1.453461e-02
-1.831250e-02
-2.203985e-02
-2.567239e-02
-2.918020e-02
-3.254500e-02
-3.575598e-02
-3.880597e-02
-4.168872e-02
-4.439708e-02
-4.692184e-02
-4.925085e-02
-5.136851e-02
-5.325525e-02
-5.488736e-02
-5.623704e-02
-5.727311e-02
-5.796274e-02
-5.827515e-02
-5.818826e-02
-5.770036e-02
-5.684870e-02
-5.573633e-02
-5.456426e-02
-5.365439e-02
-5.342647e-02
-5.428439e-02
-5.640379e-02
-5.953108e-02
0.000000e+00
-5.586951e-06
-1.211410e-05
-1.921986e-05
-2.653046e-05
-3.354195e-05
-3.949482e-05
-4.323493e-05
-4.305087e-05
-3.647830e-05
-2.006363e-05
1.091689e-05
6.278250e-05
1.438103e-04
2.646173e-04
4.385294e-04
6.818795e-04
1.014143e-03
1.457764e-03
2.037452e-03
2.778610e-03
3.704425e-03
4.830957e-03
6.159428e-03
7.664953e-03
9.281581e-03
1.088554e-02
1.228296e-02
1.321580e-02
1.340498e-02
1.264327e-02
1.091825e-02
8.502272e-03
0.000000e+00
3.452312e-03
7.033723e-03
1.072643e-02
1.448432e-02
1.824873e-02
2.196449e-02
2.558946e-02
2.909692e-02
3.247320e-02
3.571396e-02
3.882089e-02
4.179964e-02
4.465864e-02
4.740869e-02
5.006287e-02
5.263649e-02
5.514705e-02
5.761367e-02
6.005607e-02
6.249250e-02
6.493638e-02
6.739119e-02
6.984330e-02
7.225285e-02
7.454380e-02
7.659624e-02
7.824702e-02
7.930769e-02
7.960798e-02
7.906413e-02
7.775372e-02
7.596059e-02
0.000000e+00
6.963092e-03
1.420033e-02
2.166639e-02
2.925515e-02
3.683940e-02
4.430566e-02
5.157215e-02
5.858914e-02
6.533150e-02
7.178989e-02
7.796416e-02
8.385931e-02
8.948328e-02
9.484594e-02
9.995871e-02
1.048344e-01
1.094869e-01
1.139307e-01
1.181795e-01
1.222443e-01
1.261303e-01
1.298322e-01
1.333286e-01
1.365757e-01
1.395014e-01
1.420038e-01
1.439584e-01
1.452376e-01
1.457491e-01
1.454861e-01
1.445794e-01
1.433279e-01
0.000000e+00
1.058785e-02
2.162831e-02
3.302274e-02
4.457439e-02
5.606788e-02
6.733255e-02
7.825810e-02
8.878498e-02
9.888579e-02
1.085513e-01
1.177818e-01
1.265819e-01
1.349585e-01
1.429195e-01
1.504734e-01
1.576290e-01
1.643953e-01
1.707812e-01
1.767940e-01
1.824378e-01
1.877114e-01
1.926045e-01
1.970941e-01
2.011405e-01
2.046849e-01
2.076509e-01
2.099528e-01
2.115139e-01
2.122961e-01
2.123401e-01
2.118081e-01
2.110172e-01
0.000000e+00
1.441248e-02
2.951123e-02
4.509172e-02
6.079817e-02
7.631140e-02
9.141752e-02
1.060084e-01
1.200353e-01
1.334799e-01
1.463383e-01
1.586126e-01
1.703075e-01
1.814276e-01
1.919777e-01
2.019622e-01
2.113847e-01
2.202483e-01
2.285553e-01
2.363059e-01
2.434979e-01
2.501246e-01
2.561733e-01
2.616231e-01
2.664433e-01
2.705936e-01
2.740263e-01
2.766942e-01
2.785640e-01
2.796382e-01
2.799866e-01
2.797869e-01
2.793702e-01
0.000000e+00
1.857465e-02
3.817506e-02
5.831179e-02
7.840105e-02
9.800339e-02
1.169508e-01
1.351827e-01
1.526822e-01
1.694478e-01
1.854824e-01
2.007898e-01
2.153728e-01
2.292331e-01
2.423709e-01
2.547851e-01
2.664734e-01
2.774320e-01
2.876555e-01
2.971366e-01
3.058657e-01
3.138308e-01
3.210165e-01
3.274049e-01
3.329755e-01
3.377076e-01
3.415832e-01
3.445937e-01
3.467483e-01
3.480873e-01
3.487033e-01
3.487767e-01
3.486385e-01
0.000000e+00
2.341519e-02
4.820645e-02
7.344833e-02
9.797646e-02
1.216015e-01
1.443081e-01
1.661168e-01
1.870457e-01
2.071059e-01
2.263026e-01
2.446375e-01
2.621092e-01
2.787146e-01
2.944484e-01
3.093034e-01
3.232706e-01
3.363384e-01
3.484932e-01
3.597187e-01
3.699965e-01
3.793066e-01
3.876288e-01
3.949443e-01
4.012394e-01
4.065093e-01
4.107634e-01
4.140318e-01
4.163710e-01
4.178692e-01
4.186533e-01
4.189087e-01
4.189392e-01
0.000000e+00
2.952184e-02
6.142469e-02
9.150755e-02
1.201032e-01
1.474836e-01
1.737931e-01
1.990941e-01
2.234104e-01
2.467473e-01
2.691025e-01
2.904696e-01
3.108407e-01
3.302064e-01
3.485556e-01
3.658755e-01
3.821501e-01
3.973603e-01
4.114833e-01
4.244924e-01
4.363576e-01
4.470469e-01
4.565289e-01
4.647763e-01
4.717720e-01
4.775163e-01
4.820365e-01
4.853962e-01
4.877040e-01
4.891182e-01
4.898407e-01
4.901026e-01
4.901668e-01
0.000000e+00
4.402635e-02
7.988714e-02
1.131130e-01
1.450059e-01
1.758088e-01
2.055836e-01
2.343275e-01
2.620215e-01
2.886433e-01
3.141725e-01
3.385913e-01
3.618841e-01
3.840359e-01
4.050313e-01
4.248528e-01
4.434793e-01
4.608848e-01
4.770375e-01
4.918992e-01
5.054252e-01
5.175655e-01
5.282682e-01
5.374841e-01
5.451753e-01
5.513261e-01
5.559586e-01
5.591498e-01
5.610520e-01
5.619090e-01
5.620648e-01
5.619358e-01
5.618632e-01
0.000000e+00
-2.719889e-02
-4.746794e-02
-6.958635e-02
-9.421652e-02
-1.220388e-01
-1.532464e-01
-1.878937e-01
-2.259462e-01
-2.673222e-01
-3.119121e-01
-3.595898e-01
-4.102192e-01
-4.636587e-01
-5.197636e-01
-5.783885e-01
-6.393887e-01
-7.026221e-01
-7.679513e-01
-8.352469e-01
-9.043919e-01
-9.752877e-01
-1.047864e+00
-1.122092e+00
-1.198010e+00
-1.275758e+00
-1.355645e+00
-1.438275e+00
-1.524800e+00
-1.617504e+00
-1.721316e+00
-1.847863e+00
-2.022691e+00
0.000000e+00
-1.690307e-02
-3.811942e-02
-6.038704e-02
-8.536051e-02
-1.134850e-01
-1.449959e-01
-1.799464e-01
-2.183052e-01
-2.599905e-01
-3.048921e-01
-3.528828e-01
-4.038254e-01
-4.575771e-01
-5.139919e-01
-5.729230e-01
-6.342238e-01
-6.977500e-01
-7.633617e-01
-8.309263e-01
-9.003226e-01
-9.714470e-01
-1.044223e+00
-1.118613e+00
-1.194646e+00
-1.272448e+00
-1.352314e+00
-1.434826e+00
-1.521115e+00
-1.613426e+00
-1.716437e+00
-1.840166e+00
-2.003500e+00
0.000000e+00
-1.241628e-02
-3.073170e-02
-5.269555e-02
-7.771265e-02
-1.060444e-01
-1.378040e-01
-1.730209e-01
-2.116528e-01
-2.536143e-01
-2.987931e-01
-3.470612e-01
-3.982806e-01
-4.523081e-01
-5.089972e-01
-5.682003e-01
-6.297703e-01
-6.935621e-01
-7.594348e-01
-8.272547e-01
-8.968994e-01
-9.682647e-01
-1.041273e+00
-1.115891e+00
-1.192146e+00
-1.270176e+00
-1.350284e+00
-1.433071e+00
-1.519653e+00
-1.612051e+00
-1.713721e+00
-1.828746e+00
-1.956343e+00
0.000000e+00
-9.942433e-03
-2.602355e-02
-4.681618e-02
-7.151177e-02
-9.983471e-02
-1.317302e-01
-1.671444e-01
-2.060011e-01
-2.481992e-01
-2.936194e-01
-3.421304e-01
-3.935931e-01
-4.478639e-01
-5.047966e-01
-5.642439e-01
-6.260592e-01
-6.900980e-01
-7.562200e-01
-8.242928e-01
-8.941956e-01
-9.658265e-01
-1.039112e+00
-1.114024e+00
-1.190598e+00
-1.268977e+00
-1.349463e+00
-1.432608e+00
-1.519326e+00
-1.610949e+00
-1.708753e+00
-1.811905e+00
-1.907929e+00
0.000000e+00
-8.412934e-03
-2.294459e-02
-4.264113e-02
-6.677377e-02
-9.491101e-02
-1.268185e-01
-1.623477e-01
-2.013705e-01
-2.437592e-01
-2.893813e-01
-3.380993e-01
-3.897717e-01
-4.442545e-01
-5.014019e-01
-5.610679e-01
-6.231072e-01
-6.873768e-01
-7.537385e-01
-8.220621e-01
-8.922294e-01
-9.641418e-01
-1.037729e+00
-1.112964e+00
-1.189881e+00
-1.268604e+00
-1.349380e+00
-1.432607e+00
-1.518809e+00
-1.608411e+00
-1.700983e+00
-1.793128e+00
-1.876755e+00
0.000000e+00
-7.439700e-03
-2.092440e-02
-3.976804e-02
-6.335744e-02
-9.123112e-02
-1.230692e-01
-1.586440e-01
-1.977760e-01
-2.403075e-01
-2.860896e-01
-3.349765e-01
-3.868234e-01
-4.414856e-01
-4.988180e-01
-5.586760e-01
-6.209163e-01
-6.853980e-01
-7.519851e-01
-8.205494e-01
-8.909745e-01
-9.631623e-01
-1.037041e+00
-1.112573e+00
-1.189774e+00
-1.268718e+00
-1.349543e+00
-1.432424e+00
-1.517457e+00
-1.604355e+00
-1.691795e+00
-1.776652e+00
-1.854211e+00
0.000000e+00
-6.834846e-03
-1.964714e-02
-3.790047e-02
-6.106876e-02
-8.870224e-02
-1.204458e-01
-1.560250e-01
-1.952216e-01
-2.378520e-01
-2.837519e-01
-3.327679e-01
-3.847518e-01
-4.395581e-01
-4.970427e-01
-5.570626e-01
-6.194763e-01
-6.841450e-01
-7.509343e-01
-8.197167e-01
-8.903750e-01
-9.628068e-01
-1.036930e+00
-1.112690e+00
-1.190059e+00
-1.269039e+00
-1.349637e+00
-1.431808e+00
-1.515313e+00
-1.599473e+00
-1.682833e+00
-1.762988e+00
-1.836994e+00
0.000000e+00
-6.502470e-03
-1.893842e-02
-3.684806e-02
-5.975639e-02
-8.722919e-02
-1.188999e-01
-1.544713e-01
-1.937028e-01
-2.363943e-01
-2.823715e-01
-3.314755e-01
-3.835561e-01
-4.384679e-01
-4.960677e-01
-5.562142e-01
-6.187675e-01
-6.835901e-01
-7.505480e-01
-8.195123e-01
-8.903618e-01
-9.629851e-01
-1.037283e+00
-1.113171e+00
-1.190572e+00
-1.269406e+00
-1.349558e+00
-1.430809e+00
-1.512725e+00
-1.594501e+00
-1.674823e+00
-1.751884e+00
-1.823673e+00
0.000000e+00
-6.395380e-03
-1.870977e-02
-3.650696e-02
-5.932868e-02
-8.674708e-02
-1.183935e-01
-1.539643e-01
-1.932124e-01
-2.359325e-01
-2.819473e-01
-3.310970e-01
-3.832316e-01
-4.382065e-01
-4.958800e-01
-5.561121e-01
-6.187644e-01
-6.836995e-01
-7.507825e-01
-8.198810e-01
-8.908666e-01
-9.636149e-01
-1.038005e+00
-1.113917e+00
-1.191223e+00
-1.269769e+00
-1.349341e+00
-1.429612e+00
-1.510063e+00
-1.589901e+00
-1.668016e+00
-1.743028e+00
-1.813464e+00
0.000000e+00
-6.499373e-03
-1.893412e-02
-3.684436e-02
-5.975528e-02
-8.723312e-02
-1.189121e-01
-1.544961e-01
-1.937459e-01
-2.364632e-01
-2.824758e-01
-3.316272e-01
-3.837703e-01
-4.387624e-01
-4.964637e-01
-5.567354e-01
-6.194395e-01
-6.844384e-01
-7.515947e-01
-8.207712e-01
-8.918299e-01
-9.646312e-01
-1.039031e+00
-1.114874e+00
-1.191985e+00
-1.270150e+00
-1.349089e+00
-1.428418e+00
-1.507602e+00
-1.585920e+00
-1.662456e+00
-1.736142e+00
-1.805855e+00
0.000000e+00
-6.828902e-03
-1.963890e-02
-3.789334e-02
-6.106652e-02
-8.870962e-02
-1.204690e-01
-1.560723e-01
-1.953040e-01
-2.379837e-01
-2.839515e-01
-3.330586e-01
-3.851622e-01
-4.401229e-01
-4.978024e-01
-5.580630e-01
-6.207668e-01
-6.857750e-01
-7.529471e-01
-8.221399e-01
-8.932056e-01
-9.659887e-01
-1.040322e+00
-1.116020e+00
-1.192868e+00
-1.270608e+00
-1.348919e+00
-1.427395e+00
-1.505521e+00
-1.582669e+00
-1.658095e+00
-1.730978e+00
-1.800454e+00
0.000000e+00
-7.431438e-03
-2.091294e-02
-3.975807e-02
-6.335422e-02
-9.124122e-02
-1.231013e-01
-1.587097e-01
-1.978907e-01
-2.404912e-01
-2.863681e-01
-3.353824e-01
-3.873970e-01
-4.422754e-01
-4.998811e-01
-5.600768e-01
-6.227243e-01
-6.876833e-01
-7.548100e-01
-8.239551e-01
-8.949613e-01
-9.676591e-01
-1.041862e+00
-1.117357e+00
-1.193902e+00
-1.271208e+00
-1.348930e+00
-1.426661e+00
-1.503924e+00
-1.580179e+00
-1.654839e+00
-1.727294e+00
-1.796914e+00
0.000000e+00
-8.403202e-03
-2.293109e-02
-4.262938e-02
-6.677003e-02
-9.492324e-02
-1.268572e-01
-1.624270e-01
-2.015090e-01
-2.439811e-01
-2.897179e-01
-3.385900e-01
-3.904654e-01
-4.452100e-01
-5.026883e-01
-5.627634e-01
-6.252965e-01
-6.901455e-01
-7.571635e-01
-8.261961e-01
-8.970779e-01
-9.696279e-01
-1.043644e+00
-1.118896e+00
-1.195117e+00
-1.272001e+00
-1.349193e+00
-1.426291e+00
-1.502856e+00
-1.578431e+00
-1.652567e+00
-1.724848e+00
-1.794887e+00
0.000000e+00
-9.932430e-03
-2.600969e-02
-4.680424e-02
-7.150856e-02
-9.984907e-02
-1.317738e-01
-1.672329e-01
-2.061551e-01
-2.484455e-01
-2.939926e-01
-3.426739e-01
-3.943608e-01
-4.489206e-01
-5.062183e-01
-5.661169e-01
-6.284766e-01
-6.931539e-01
-7.599994e-01
-8.288547e-01
-8.995484e-01
-9.718915e-01
-1.045671e+00
-1.120645e+00
-1.196534e+00
-1.273019e+00
-1.349742e+00
-1.426311e+00
-1.502318e+00
-1.577371e+00
-1.651138e+00
-1.723388e+00
-1.794004e+00
0.000000e+00
-1.240756e-02
-3.071956e-02
-5.268547e-02
-7.771169e-02
-1.060619e-01
-1.378522e-01
-1.731161e-01
-2.118164e-01
-2.538741e-01
-2.991849e-01
-3.476297e-01
-3.990812e-01
-4.534072e-01
-5.104725e-01
-5.701396e-01
-6.322678e-01
-6.967124e-01
-7.633220e-01
-8.319356e-01
-9.023781e-01
-9.744557e-01
-1.047950e+00
-1.122612e+00
-1.198157e+00
-1.274262e+00
-1.350569e+00
-1.426696e+00
-1.502258e+00
-1.576907e+00
-1.650398e+00
-1.722654e+00
-1.793850e+00
0.000000e+00
-1.689747e-02
-3.811117e-02
-6.038111e-02
-8.536418e-02
-1.135078e-01
-1.450502e-01
-1.800486e-01
-2.184765e-01
-2.602586e-01
-3.052922e-01
-3.534589e-01
-4.046313e-01
-4.586772e-01
-5.154609e-01
-5.748440e-01
-6.366852e-01
-7.008384e-01
-7.671507e-01
-8.354593e-01
-9.055872e-01
-9.773385e-01
-1.050493e+00
-1.124799e+00
-1.199974e+00
-1.275696e+00
-1.351614e+00
-1.427355e+00
-1.502552e+00
-1.576886e+00
-1.650156e+00
-1.722389e+00
-1.793981e+00
0.000000e+00
-2.719810e-02
-4.746519e-02
-6.958687e-02
-9.422763e-02
-1.220700e-01
-1.533102e-01
-1.880063e-01
-2.261284e-01
-2.676009e-01
-3.123212e-01
-3.601711e-01
-4.110235e-01
-4.647459e-01
-5.212021e-01
-5.802530e-01
-6.417561e-01
-7.055638e-01
-7.715218e-01
-8.394655e-01
-9.092162e-01
-9.805770e-01
-1.053327e+00