TITLE = "Solution"
VARIABLES = x, y, u, v, psiu, psiv, t, stress
ZONE T="structure" N=561 E=512 F=FEBLOCK ET=QUADRILATERAL VARLOCATION=([7,8]=cellcentered)
0.000000e+00
6.250000e+00
1.250000e+01
1.875000e+01
2.500000e+01
3.125000e+01
3.750000e+01
4.375000e+01
5.000000e+01
5.625000e+01
6.250000e+01
6.875000e+01
7.500000e+01
8.125000e+01
8.750000e+01
9.375000e+01
1.000000e+02
1.062500e+02
1.125000e+02
1.187500e+02
1.250000e+02
1.312500e+02
1.375000e+02
1.437500e+02
1.500000e+02
1.562500e+02
1.625000e+02
1.687500e+02
1.750000e+02
1.812500e+02
1.875000e+02
1.937500e+02
2.000000e+02
0.000000e+00
6.250000e+00
1.250000e+01
1.875000e+01
2.500000e+01
3.125000e+01
3.750000e+01
4.375000e+01
5.000000e+01
5.625000e+01
6.250000e+01
6.875000e+01
7.500000e+01
8.125000e+01
8.750000e+01
9.375000e+01
1.000000e+02
1.062500e+02
1.125000e+02
1.187500e+02
1.250000e+02
1.312500e+02
1.375000e+02
1.437500e+02
1.500000e+02
1.562500e+02
1.625000e+02
1.687500e+02
1.750000e+02
1.812500e+02
1.875000e+02
1.937500e+02
2.000000e+02
0.000000e+00
6.250000e+00
1.250000e+01
1.875000e+01
2.500000e+01
3.125000e+01
3.750000e+01
4.375000e+01
5.000000e+01
5.625000e+01
6.250000e+01
6.875000e+01
7.500000e+01
8.125000e+01
8.750000e+01
9.375000e+01
1.000000e+02
1.062500e+02
1.125000e+02
1.187500e+02
1.250000e+02
1.312500e+02
1.375000e+02
1.437500e+02
1.500000e+02
1.562500e+02
1.625000e+02
1.687500e+02
1.750000e+02
1.812500e+02
1.875000e+02
1.937500e+02
2.000000e+02
0.000000e+00
6.250000e+00
1.250000e+01
1.875000e+01
2.500000e+01
3.125000e+01
3.750000e+01
4.375000e+01
5.000000e+01
5.625000e+01
6.250000e+01
6.875000e+01
7.500000e+01
8.125000e+01
8.750000e+01
9.375000e+01
1.000000e+02
1.062500e+02
1.125000e+02
1.187500e+02
1.250000e+02
1.312500e+02
1.375000e+02
1.437500e+02
1.500000e+02
1.562500e+02
1.625000e+02
1.687500e+02
1.750000e+02
1.812500e+02
1.875000e+02
1.937500e+02
2.000000e+02
0.000000e+00
6.250000e+00
1.250000e+01
1.875000e+01
2.500000e+01
3.125000e+01
3.750000e+01
4.375000e+01
5.000000e+01
5.625000e+01
6.250000e+01
6.875000e+01
7.500000e+01
8.125000e+01
8.750000e+01
9.375000e+01
1.000000e+02
1.062500e+02
1.125000e+02
1.187500e+02
1.250000e+02
1.312500e+02
1.375000e+02
1.437500e+02
1.500000e+02
1.562500e+02
1.625000e+02
1.687500e+02
1.750000e+02
1.812500e+02
1.875000e+02
1.937500e+02
2.000000e+02
0.000000e+00
6.250000e+00
1.250000e+01
1.875000e+01
2.500000e+01
3.125000e+01
3.750000e+01
4.375000e+01
5.000000e+01
5.625000e+01
6.250000e+01
6.875000e+01
7.500000e+01
8.125000e+01
8.750000e+01
9.375000e+01
1.000000e+02
1.062500e+02
1.125000e+02
1.187500e+02
1.250000e+02
1.312500e+02
1.375000e+02
1.437500e+02
1.500000e+02
1.562500e+02
1.625000e+02
1.687500e+02
1.750000e+02
1.812500e+02
1.875000e+02
1.937500e+02
2.000000e+02
0.000000e+00
6.250000e+00
1.250000e+01
1.875000e+01
2.500000e+01
3.125000e+01
3.750000e+01
4.375000e+01
5.000000e+01
5.625000e+01
6.250000e+01
6.875000e+01
7.500000e+01
8.125000e+01
8.750000e+01
9.375000e+01
1.000000e+02
1.062500e+02
1.125000e+02
1.187500e+02
1.250000e+02
1.312500e+02
1.375000e+02
1.437500e+02
1.500000e+02
1.562500e+02
1.625000e+02
1.687500e+02
1.750000e+02
1.812500e+02
1.875000e+02
1.937500e+02
2.000000e+02
0.000000e+00
6.250000e+00
1.250000e+01
1.875000e+01
2.500000e+01
3.125000e+01
3.750000e+01
4.375000e+01
5.000000e+01
5.625000e+01
6.250000e+01
6.875000e+01
7.500000e+01
8.125000e+01
8.750000e+01
9.375000e+01
1.000000e+02
1.062500e+02
1.125000e+02
1.187500e+02
1.250000e+02
1.312500e+02
1.375000e+02
1.437500e+02
1.500000e+02
1.562500e+02
1.625000e+02
1.687500e+02
1.750000e+02
1.812500e+02
1.875000e+02
1.937500e+02
2.000000e+02
0.000000e+00
6.250000e+00
1.250000e+01
1.875000e+01
2.500000e+01
3.125000e+01
3.750000e+01
4.375000e+01
5.000000e+01
5.625000e+01
6.250000e+01
6.875000e+01
7.500000e+01
8.125000e+01
8.750000e+01
9.375000e+01
1.000000e+02
1.062500e+02
1.125000e+02
1.187500e+02
1.250000e+02
1.312500e+02
1.375000e+02
1.437500e+02
1.500000e+02
1.562500e+02
1.625000e+02
1.687500e+02
1.750000e+02
1.812500e+02
1.875000e+02
1.937500e+02
2.000000e+02
0.000000e+00
6.250000e+00
1.250000e+01
1.875000e+01
2.500000e+01
3.125000e+01
3.750000e+01
4.375000e+01
5.000000e+01
5.625000e+01
6.250000e+01
6.875000e+01
7.500000e+01
8.125000e+01
8.750000e+01
9.375000e+01
1.000000e+02
1.062500e+02
1.125000e+02
1.187500e+02
1.250000e+02
1.312500e+02
1.375000e+02
1.437500e+02
1.500000e+02
1.562500e+02
1.625000e+02
1.687500e+02
1.750000e+02
1.812500e+02
1.875000e+02
1.937500e+02
2.000000e+02
0.000000e+00
6.250000e+00
1.250000e+01
1.875000e+01
2.500000e+01
3.125000e+01
3.750000e+01
4.375000e+01
5.000000e+01
5.625000e+01
6.250000e+01
6.875000e+01
7.500000e+01
8.125000e+01
8.750000e+01
9.375000e+01
1.000000e+02
1.062500e+02
1.125000e+02
1.187500e+02
1.250000e+02
1.312500e+02
1.375000e+02
1.437500e+02
1.500000e+02
1.562500e+02
1.625000e+02
1.687500e+02
1.750000e+02
1.812500e+02
1.875000e+02
1.937500e+02
2.000000e+02
0.000000e+00
6.250000e+00
1.250000e+01
1.875000e+01
2.500000e+01
3.125000e+01
3.750000e+01
4.375000e+01
5.000000e+01
5.625000e+01
6.250000e+01
6.875000e+01
7.500000e+01
8.125000e+01
8.750000e+01
9.375000e+01
1.000000e+02
1.062500e+02
1.125000e+02
1.187500e+02
1.250000e+02
1.312500e+02
1.375000e+02
1.437500e+02
1.500000e+02
1.562500e+02
1.625000e+02
1.687500e+02
1.750000e+02
1.812500e+02
1.875000e+02
1.937500e+02
2.000000e+02
0.000000e+00
6.250000e+00
1.250000e+01
1.875000e+01
2.500000e+01
3.125000e+01
3.750000e+01
4.375000e+01
5.000000e+01
5.625000e+01
6.250000e+01
6.875000e+01
7.500000e+01
8.125000e+01
8.750000e+01
9.375000e+01
1.000000e+02
1.062500e+02
1.125000e+02
1.187500e+02
1.250000e+02
1.312500e+02
1.375000e+02
1.437500e+02
1.500000e+02
1.562500e+02
1.625000e+02
1.687500e+02
1.750000e+02
1.812500e+02
1.875000e+02
1.937500e+02
2.000000e+02
0.000000e+00
6.250000e+00
1.250000e+01
1.875000e+01
2.500000e+01
3.125000e+01
3.750000e+01
4.375000e+01
5.000000e+01
5.625000e+01
6.250000e+01
6.875000e+01
7.500000e+01
8.125000e+01
8.750000e+01
9.375000e+01
1.000000e+02
1.062500e+02
1.125000e+02
1.187500e+02
1.250000e+02
1.312500e+02
1.375000e+02
1.437500e+02
1.500000e+02
1.562500e+02
1.625000e+02
1.687500e+02
1.750000e+02
1.812500e+02
1.875000e+02
1.937500e+02
2.000000e+02
0.000000e+00
6.250000e+00
1.250000e+01
1.875000e+01
2.500000e+01
3.125000e+01
3.750000e+01
4.375000e+01
5.000000e+01
5.625000e+01
6.250000e+01
6.875000e+01
7.500000e+01
8.125000e+01
8.750000e+01
9.375000e+01
1.000000e+02
1.062500e+02
1.125000e+02
1.187500e+02
1.250000e+02
1.312500e+02
1.375000e+02
1.437500e+02
1.500000e+02
1.562500e+02
1.625000e+02
1.687500e+02
1.750000e+02
1.812500e+02
1.875000e+02
1.937500e+02
2.000000e+02
0.000000e+00
6.250000e+00
1.250000e+01
1.875000e+01
2.500000e+01
3.125000e+01
3.750000e+01
4.375000e+01
5.000000e+01
5.625000e+01
6.250000e+01
6.875000e+01
7.500000e+01
8.125000e+01
8.750000e+01
9.375000e+01
1.000000e+02
1.062500e+02
1.125000e+02
1.187500e+02
1.250000e+02
1.312500e+02
1.375000e+02
1.437500e+02
1.500000e+02
1.562500e+02
1.625000e+02
1.687500e+02
1.750000e+02
1.812500e+02
1.875000e+02
1.937500e+02
2.000000e+02
0.000000e+00
6.250000e+00
1.250000e+01
1.875000e+01
2.500000e+01
3.125000e+01
3.750000e+01
4.375000e+01
5.000000e+01
5.625000e+01
6.250000e+01
6.875000e+01
7.500000e+01
8.125000e+01
8.750000e+01
9.375000e+01
1.000000e+02
1.062500e+02
1.125000e+02
1.187500e+02
1.250000e+02
1.312500e+02
1.375000e+02
1.437500e+02
1.500000e+02
1.562500e+02
1.625000e+02
1.687500e+02
1.750000e+02
1.812500e+02
1.875000e+02
1.937500e+02
2.000000e+02
0.000000e+00
0.000000e+00
0.000000e+00
0.000000e+00
0.000000e+00
0.000000e+00
0.000000e+00
0.000000e+00
0.000000e+00
0.000000e+00
0.000000e+00
0.000000e+00
0.000000e+00
0.000000e+00
0.000000e+00
0.000000e+00
0.000000e+00
0.000000e+00
0.000000e+00
0.000000e+00
0.000000e+00
0.000000e+00
0.000000e+00
0.000000e+00
0.000000e+00
0.000000e+00
0.000000e+00
0.000000e+00
0.000000e+00
0.000000e+00
0.000000e+00
0.000000e+00
0.000000e+00
6.250000e+00
6.250000e+00
6.250000e+00
6.250000e+00
6.250000e+00
6.250000e+00
6.250000e+00
6.250000e+00
6.250000e+00
6.250000e+00
6.250000e+00
6.250000e+00
6.250000e+00
6.250000e+00
6.250000e+00
6.250000e+00
6.250000e+00
6.250000e+00
6.250000e+00
6.250000e+00
6.250000e+00
6.250000e+00
6.250000e+00
6.250000e+00
6.250000e+00
6.250000e+00
6.250000e+00
6.250000e+00
6.250000e+00
6.250000e+00
6.250000e+00
6.250000e+00
6.250000e+00
1.250000e+01
1.250000e+01
1.250000e+01
1.250000e+01
1.250000e+01
1.250000e+01
1.250000e+01
1.250000e+01
1.250000e+01
1.250000e+01
1.250000e+01
1.250000e+01
1.250000e+01
1.250000e+01
1.250000e+01
1.250000e+01
1.250000e+01
1.250000e+01
1.250000e+01
1.250000e+01
1.250000e+01
1.250000e+01
1.250000e+01
1.250000e+01
1.250000e+01
1.250000e+01
1.250000e+01
1.250000e+01
1.250000e+01
1.250000e+01
1.250000e+01
1.250000e+01
1.250000e+01
1.875000e+01
1.875000e+01
1.875000e+01
1.875000e+01
1.875000e+01
1.875000e+01
1.875000e+01
1.875000e+01
1.875000e+01
1.875000e+01
1.875000e+01
1.875000e+01
1.875000e+01
1.875000e+01
1.875000e+01
1.875000e+01
1.875000e+01
1.875000e+01
1.875000e+01
1.875000e+01
1.875000e+01
1.875000e+01
1.875000e+01
1.875000e+01
1.875000e+01
1.875000e+01
1.875000e+01
1.875000e+01
1.875000e+01
1.875000e+01
1.875000e+01
1.875000e+01
1.875000e+01
2.500000e+01
2.500000e+01
2.500000e+01
2.500000e+01
2.500000e+01
2.500000e+01
2.500000e+01
2.500000e+01
2.500000e+01
2.500000e+01
2.500000e+01
2.500000e+01
2.500000e+01
2.500000e+01
2.500000e+01
2.500000e+01
2.500000e+01
2.500000e+01
2.500000e+01
2.500000e+01
2.500000e+01
2.500000e+01
2.500000e+01
2.500000e+01
2.500000e+01
2.500000e+01
2.500000e+01
2.500000e+01
2.500000e+01
2.500000e+01
2.500000e+01
2.500000e+01
2.500000e+01
3.125000e+01
3.125000e+01
3.125000e+01
3.125000e+01
3.125000e+01
3.125000e+01
3.125000e+01
3.125000e+01
3.125000e+01
3.125000e+01
3.125000e+01
3.125000e+01
3.125000e+01
3.125000e+01
3.125000e+01
3.125000e+01
3.125000e+01
3.125000e+01
3.125000e+01
3.125000e+01
3.125000e+01
3.125000e+01
3.125000e+01
3.125000e+01
3.125000e+01
3.125000e+01
3.125000e+01
3.125000e+01
3.125000e+01
3.125000e+01
3.125000e+01
3.125000e+01
3.125000e+01
3.750000e+01
3.750000e+01
3.750000e+01
3.750000e+01
3.750000e+01
3.750000e+01
3.750000e+01
3.750000e+01
3.750000e+01
3.750000e+01
3.750000e+01
3.750000e+01
3.750000e+01
3.750000e+01
3.750000e+01
3.750000e+01
3.750000e+01
3.750000e+01
3.750000e+01
3.750000e+01
3.750000e+01
3.750000e+01
3.750000e+01
3.750000e+01
3.750000e+01
3.750000e+01
3.750000e+01
3.750000e+01
3.750000e+01
3.750000e+01
3.750000e+01
3.750000e+01
3.750000e+01
4.375000e+01
4.375000e+01
4.375000e+01
4.375000e+01
4.375000e+01
4.375000e+01
4.375000e+01
4.375000e+01
4.375000e+01
4.375000e+01
4.375000e+01
4.375000e+01
4.375000e+01
4.375000e+01
4.375000e+01
4.375000e+01
4.375000e+01
4.375000e+01
4.375000e+01
4.375000e+01
4.375000e+01
4.375000e+01
4.375000e+01
4.375000e+01
4.375000e+01
4.375000e+01
4.375000e+01
4.375000e+01
4.375000e+01
4.375000e+01
4.375000e+01
4.375000e+01
4.375000e+01
5.000000e+01
5.000000e+01
5.000000e+01
5.000000e+01
5.000000e+01
5.000000e+01
5.000000e+01
5.000000e+01
5.000000e+01
5.000000e+01
5.000000e+01
5.000000e+01
5.000000e+01
5.000000e+01
5.000000e+01
5.000000e+01
5.000000e+01
5.000000e+01
5.000000e+01
5.000000e+01
5.000000e+01
5.000000e+01
5.000000e+01
5.000000e+01
5.000000e+01
5.000000e+01
5.000000e+01
5.000000e+01
5.000000e+01
5.000000e+01
5.000000e+01
5.000000e+01
5.000000e+01
5.625000e+01
5.625000e+01
5.625000e+01
5.625000e+01
5.625000e+01
5.625000e+01
5.625000e+01
5.625000e+01
5.625000e+01
5.625000e+01
5.625000e+01
5.625000e+01
5.625000e+01
5.625000e+01
5.625000e+01
5.625000e+01
5.625000e+01
5.625000e+01
5.625000e+01
5.625000e+01
5.625000e+01
5.625000e+01
5.625000e+01
5.625000e+01
5.625000e+01
5.625000e+01
5.625000e+01
5.625000e+01
5.625000e+01
5.625000e+01
5.625000e+01
5.625000e+01
5.625000e+01
6.250000e+01
6.250000e+01
6.250000e+01
6.250000e+01
6.250000e+01
6.250000e+01
6.250000e+01
6.250000e+01
6.250000e+01
6.250000e+01
6.250000e+01
6.250000e+01
6.250000e+01
6.250000e+01
6.250000e+01
6.250000e+01
6.250000e+01
6.250000e+01
6.250000e+01
6.250000e+01
6.250000e+01
6.250000e+01
6.250000e+01
6.250000e+01
6.250000e+01
6.250000e+01
6.250000e+01
6.250000e+01
6.250000e+01
6.250000e+01
6.250000e+01
6.250000e+01
6.250000e+01
6.875000e+01
6.875000e+01
6.875000e+01
6.875000e+01
6.875000e+01
6.875000e+01
6.875000e+01
6.875000e+01
6.875000e+01
6.875000e+01
6.875000e+01
6.875000e+01
6.875000e+01
6.875000e+01
6.875000e+01
6.875000e+01
6.875000e+01
6.875000e+01
6.875000e+01
6.875000e+01
6.875000e+01
6.875000e+01
6.875000e+01
6.875000e+01
6.875000e+01
6.875000e+01
6.875000e+01
6.875000e+01
6.875000e+01
6.875000e+01
6.875000e+01
6.875000e+01
6.875000e+01
7.500000e+01
7.500000e+01
7.500000e+01
7.500000e+01
7.500000e+01
7.500000e+01
7.500000e+01
7.500000e+01
7.500000e+01
7.500000e+01
7.500000e+01
7.500000e+01
7.500000e+01
7.500000e+01
7.500000e+01
7.500000e+01
7.500000e+01
7.500000e+01
7.500000e+01
7.500000e+01
7.500000e+01
7.500000e+01
7.500000e+01
7.500000e+01
7.500000e+01
7.500000e+01
7.500000e+01
7.500000e+01
7.500000e+01
7.500000e+01
7.500000e+01
7.500000e+01
7.500000e+01
8.125000e+01
8.125000e+01
8.125000e+01
8.125000e+01
8.125000e+01
8.125000e+01
8.125000e+01
8.125000e+01
8.125000e+01
8.125000e+01
8.125000e+01
8.125000e+01
8.125000e+01
8.125000e+01
8.125000e+01
8.125000e+01
8.125000e+01
8.125000e+01
8.125000e+01
8.125000e+01
8.125000e+01
8.125000e+01
8.125000e+01
8.125000e+01
8.125000e+01
8.125000e+01
8.125000e+01
8.125000e+01
8.125000e+01
8.125000e+01
8.125000e+01
8.125000e+01
8.125000e+01
8.750000e+01
8.750000e+01
8.750000e+01
8.750000e+01
8.750000e+01
8.750000e+01
8.750000e+01
8.750000e+01
8.750000e+01
8.750000e+01
8.750000e+01
8.750000e+01
8.750000e+01
8.750000e+01
8.750000e+01
8.750000e+01
8.750000e+01
8.750000e+01
8.750000e+01
8.750000e+01
8.750000e+01
8.750000e+01
8.750000e+01
8.750000e+01
8.750000e+01
8.750000e+01
8.750000e+01
8.750000e+01
8.750000e+01
8.750000e+01
8.750000e+01
8.750000e+01
8.750000e+01
9.375000e+01
9.375000e+01
9.375000e+01
9.375000e+01
9.375000e+01
9.375000e+01
9.375000e+01
9.375000e+01
9.375000e+01
9.375000e+01
9.375000e+01
9.375000e+01
9.375000e+01
9.375000e+01
9.375000e+01
9.375000e+01
9.375000e+01
9.375000e+01
9.375000e+01
9.375000e+01
9.375000e+01
9.375000e+01
9.375000e+01
9.375000e+01
9.375000e+01
9.375000e+01
9.375000e+01
9.375000e+01
9.375000e+01
9.375000e+01
9.375000e+01
9.375000e+01
9.375000e+01
1.000000e+02
1.000000e+02
1.000000e+02
1.000000e+02
1.000000e+02
1.000000e+02
1.000000e+02
1.000000e+02
1.000000e+02
1.000000e+02
1.000000e+02
1.000000e+02
1.000000e+02
1.000000e+02
1.000000e+02
1.000000e+02
1.000000e+02
1.000000e+02
1.000000e+02
1.000000e+02
1.000000e+02
1.000000e+02
1.000000e+02
1.000000e+02
1.000000e+02
1.000000e+02
1.000000e+02
1.000000e+02
1.000000e+02
1.000000e+02
1.000000e+02
1.000000e+02
1.000000e+02
0.000000e+00
-4.517986e-02
-8.197285e-02
-1.160564e-01
-1.487669e-01
-1.803540e-01
-2.108808e-01
-2.403449e-01
-2.687276e-01
-2.960082e-01
-3.221697e-01
-3.472003e-01
-3.710938e-01
-3.938498e-01
-4.154736e-01
-4.359765e-01
-4.553771e-01
-4.737018e-01
-4.909876e-01
-5.072842e-01
-5.226579e-01
-5.371962e-01
-5.510151e-01
-5.642681e-01
-5.771611e-01
-5.899739e-01
-6.030951e-01
-6.170786e-01
-6.327374e-01
-6.512677e-01
-6.742212e-01
-7.015755e-01
-7.182695e-01
0.000000e+00
-3.029188e-02
-6.302551e-02
-9.388901e-02
-1.232236e-01
-1.513085e-01
-1.782922e-01
-2.042397e-01
-2.291767e-01
-2.531117e-01
-2.760463e-01
-2.979804e-01
-3.189152e-01
-3.388540e-01
-3.578034e-01
-3.757740e-01
-3.927811e-01
-4.088456e-01
-4.239955e-01
-4.382668e-01
-4.517057e-01
-4.643703e-01
-4.763327e-01
-4.876813e-01
-4.985215e-01
-5.089745e-01
-5.191687e-01
-5.292093e-01
-5.390957e-01
-5.485061e-01
-5.563477e-01
-5.609322e-01
-5.673146e-01
0.000000e+00
-2.402759e-02
-4.946658e-02
-7.536751e-02
-1.005352e-01
-1.247754e-01
-1.480727e-01
-1.704490e-01
-1.919243e-01
-2.125120e-01
-2.322208e-01
-2.510570e-01
-2.690258e-01
-2.861323e-01
-3.023830e-01
-3.177858e-01
-3.323507e-01
-3.460902e-01
-3.590198e-01
-3.711578e-01
-3.825256e-01
-3.931462e-01
-4.030421e-01
-4.122309e-01
-4.207163e-01
-4.284710e-01
-4.354063e-01
-4.413181e-01
-4.458066e-01
-4.482235e-01
-4.480116e-01
-4.466544e-01
-4.541074e-01
0.000000e+00
-1.906376e-02
-3.918038e-02
-5.984769e-02
-8.046658e-02
-1.005860e-01
-1.200337e-01
-1.387479e-01
-1.567119e-01
-1.739248e-01
-1.903912e-01
-2.061165e-01
-2.211061e-01
-2.353646e-01
-2.488963e-01
-2.617050e-01
-2.737943e-01
-2.851671e-01
-2.958259e-01
-3.057712e-01
-3.150005e-01
-3.235054e-01
-3.312670e-01
-3.382491e-01
-3.443874e-01
-3.495734e-01
-3.536355e-01
-3.563255e-01
-3.573526e-01
-3.565901e-01
-3.547383e-01
-3.546277e-01
-3.617285e-01
0.000000e+00
-1.479614e-02
-3.029746e-02
-4.629395e-02
-6.242040e-02
-7.834907e-02
-9.386016e-02
-1.088424e-01
-1.232452e-01
-1.370492e-01
-1.502491e-01
-1.628457e-01
-1.748415e-01
-1.862383e-01
-1.970370e-01
-2.072365e-01
-2.168337e-01
-2.258229e-01
-2.341947e-01
-2.419350e-01
-2.490232e-01
-2.554289e-01
-2.611082e-01
-2.659989e-01
-2.700144e-01
-2.730412e-01
-2.749459e-01
-2.756140e-01
-2.750658e-01
-2.737247e-01
-2.728545e-01
-2.748639e-01
-2.809212e-01
0.000000e+00
-1.087430e-02
-2.221451e-02
-3.391903e-02
-4.578565e-02
-5.759283e-02
-6.916474e-02
-8.038706e-02
-9.119706e-02
-1.015642e-01
-1.114757e-01
-1.209269e-01
-1.299162e-01
-1.384421e-01
-1.465014e-01
-1.540881e-01
-1.611935e-01
-1.678044e-01
-1.739031e-01
-1.794656e-01
-1.844606e-01
-1.888476e-01
-1.925754e-01
-1.955813e-01
-1.977942e-01
-1.991444e-01
-1.995924e-01
-1.991904e-01
-1.981996e-01
-1.972569e-01
-1.974864e-01
-2.000479e-01
-2.050599e-01
0.000000e+00
-7.156600e-03
-1.459628e-02
-2.227196e-02
-3.007420e-02
-3.787165e-02
-4.554674e-02
-5.301375e-02
-6.021902e-02
-6.713297e-02
-7.374063e-02
-8.003450e-02
-8.600974e-02
-9.166138e-02
-9.698261e-02
-1.019637e-01
-1.065912e-01
-1.108473e-01
-1.147092e-01
-1.181484e-01
-1.211305e-01
-1.236149e-01
-1.255565e-01
-1.269095e-01
-1.276365e-01
-1.277267e-01
-1.272296e-01
-1.263098e-01
-1.253173e-01
-1.248362e-01
-1.255868e-01
-1.280808e-01
-1.321266e-01
0.000000e+00
-3.554681e-03
-7.243749e-03
-1.104825e-02
-1.492012e-02
-1.879820e-02
-2.262442e-02
-2.635330e-02
-2.995415e-02
-3.340820e-02
-3.670435e-02
-3.983523e-02
-4.279444e-02
-4.557464e-02
-4.816636e-02
-5.055715e-02
-5.273097e-02
-5.466776e-02
-5.634316e-02
-5.772864e-02
-5.879219e-02
-5.950011e-02
-5.982080e-02
-5.973161e-02
-5.923077e-02
-5.835652e-02
-5.721464e-02
-5.601149e-02
-5.507749e-02
-5.484352e-02
-5.572420e-02
-5.789981e-02
-6.111004e-02
0.000000e+00
-5.735141e-06
-1.243542e-05
-1.972965e-05
-2.723416e-05
-3.443162e-05
-4.054238e-05
-4.438170e-05
-4.419276e-05
-3.744586e-05
-2.059582e-05
1.120641e-05
6.444768e-05
1.476246e-04
2.716359e-04
4.501608e-04
6.999653e-04
1.041042e-03
1.496429e-03
2.091492e-03
2.852308e-03
3.802679e-03
4.959091e-03
6.322798e-03
7.868254e-03
9.527761e-03
1.117426e-02
1.260875e-02
1.356633e-02
1.376052e-02
1.297861e-02
1.120784e-02
8.727783e-03
0.000000e+00
3.543879e-03
7.220280e-03
1.101093e-02
1.486849e-02
1.873275e-02
2.254706e-02
2.626817e-02
2.986866e-02
3.333450e-02
3.666121e-02
3.985055e-02
4.290830e-02
4.584313e-02
4.866613e-02
5.139070e-02
5.403259e-02
5.660973e-02
5.914178e-02
6.164896e-02
6.415001e-02
6.665871e-02
6.917863e-02
7.169578e-02
7.416924e-02
7.652096e-02
7.862784e-02
8.032240e-02
8.141121e-02
8.171946e-02
8.116118e-02
7.981602e-02
7.797532e-02
0.000000e+00
7.147775e-03
1.457697e-02
2.224105e-02
3.003109e-02
3.781650e-02
4.548079e-02
5.294001e-02
6.014311e-02
6.706431e-02
7.369399e-02
8.003202e-02
8.608354e-02
9.185667e-02
9.736157e-02
1.026100e-01
1.076150e-01
1.123909e-01
1.169525e-01
1.213140e-01
1.254866e-01
1.294757e-01
1.332758e-01
1.368650e-01
1.401982e-01
1.432014e-01
1.457703e-01
1.477766e-01
1.490898e-01
1.496149e-01
1.493449e-01
1.484141e-01
1.471294e-01
0.000000e+00
1.086868e-02
2.220196e-02
3.389861e-02
4.575665e-02
5.755498e-02
6.911843e-02
8.033375e-02
9.113984e-02
1.015086e-01
1.114305e-01
1.209058e-01
1.299393e-01
1.385381e-01
1.467102e-01
1.544644e-01
1.618098e-01
1.687557e-01
1.753109e-01
1.814832e-01
1.872767e-01
1.926901e-01
1.977130e-01
2.023217e-01
2.064754e-01
2.101138e-01
2.131585e-01
2.155215e-01
2.171239e-01
2.179269e-01
2.179720e-01
2.174260e-01
2.166141e-01
0.000000e+00
1.479474e-02
3.029396e-02
4.628769e-02
6.241073e-02
7.833543e-02
9.384221e-02
1.088201e-01
1.232190e-01
1.370202e-01
1.502196e-01
1.628196e-01
1.748246e-01
1.862396e-01
1.970696e-01
2.073189e-01
2.169913e-01
2.260901e-01
2.346173e-01
2.425735e-01
2.499563e-01
2.567588e-01
2.629679e-01
2.685622e-01
2.735103e-01
2.777707e-01
2.812944e-01
2.840331e-01
2.859524e-01
2.870551e-01
2.874128e-01
2.872078e-01
2.867801e-01
0.000000e+00
1.906731e-02
3.918758e-02
5.985841e-02
8.048050e-02
1.006028e-01
1.200527e-01
1.387682e-01
1.567318e-01
1.739421e-01
1.904020e-01
2.061154e-01
2.210852e-01
2.353131e-01
2.487994e-01
2.615429e-01
2.735412e-01
2.847905e-01
2.952851e-01
3.050177e-01
3.139783e-01
3.221546e-01
3.295310e-01
3.360888e-01
3.418072e-01
3.466647e-01
3.506431e-01
3.537335e-01
3.559453e-01
3.573198e-01
3.579521e-01
3.580274e-01
3.578855e-01
0.000000e+00
2.403624e-02
4.948503e-02
7.539642e-02
1.005751e-01
1.248268e-01
1.481356e-01
1.705228e-01
1.920068e-01
2.125990e-01
2.323049e-01
2.511261e-01
2.690612e-01
2.861070e-01
3.022581e-01
3.175072e-01
3.318448e-01
3.452593e-01
3.577365e-01
3.692597e-01
3.798101e-01
3.893671e-01
3.979100e-01
4.054196e-01
4.118817e-01
4.172913e-01
4.216583e-01
4.250133e-01
4.274146e-01
4.289525e-01
4.297575e-01
4.300196e-01
4.300509e-01
0.000000e+00
3.030486e-02
6.305387e-02
9.393462e-02
1.232887e-01
1.513953e-01
1.784026e-01
2.043748e-01
2.293360e-01
2.532919e-01
2.762400e-01
2.981738e-01
3.190852e-01
3.389645e-01
3.578005e-01
3.755797e-01
3.922860e-01
4.078996e-01
4.223972e-01
4.357513e-01
4.479312e-01
4.589041e-01
4.686376e-01
4.771037e-01
4.842849e-01
4.901817e-01
4.948218e-01
4.982705e-01
5.006396e-01
5.020913e-01
5.028329e-01
5.031018e-01
5.031677e-01
0.000000e+00
4.519407e-02
8.200600e-02
1.161132e-01
1.488519e-01
1.804718e-01
2.110364e-01
2.405427e-01
2.689711e-01
2.962991e-01
3.225054e-01
3.475719e-01
3.714825e-01
3.942218e-01
4.157741e-01
4.361213e-01
4.552418e-01
4.731090e-01
4.896902e-01
5.049461e-01
5.188308e-01
5.312931e-01
5.422797e-01
5.517400e-01
5.596352e-01
5.659492e-01
5.707045e-01
5.739804e-01
5.759330e-01
5.768128e-01
5.769727e-01
5.768402e-01
5.767657e-01
0.000000e+00
-2.792029e-02
-4.872694e-02
-7.143200e-02
-9.671545e-02
-1.252756e-01
-1.573110e-01
-1.928773e-01
-2.319390e-01
-2.744124e-01
-3.201851e-01
-3.691273e-01
-4.210996e-01
-4.759564e-01
-5.335494e-01
-5.937293e-01
-6.563474e-01
-7.212580e-01
-7.883199e-01
-8.574005e-01
-9.283794e-01
-1.001156e+00
-1.075657e+00
-1.151854e+00
-1.229786e+00
-1.309596e+00
-1.391602e+00
-1.476423e+00
-1.565242e+00
-1.660406e+00
-1.766971e+00
-1.896874e+00
-2.076339e+00
0.000000e+00
-1.735140e-02
-3.913047e-02
-6.198870e-02
-8.762455e-02
-1.164950e-01
-1.488417e-01
-1.847192e-01
-2.240953e-01
-2.668863e-01
-3.129788e-01
-3.622424e-01
-4.145362e-01
-4.697135e-01
-5.276247e-01
-5.881188e-01
-6.510455e-01
-7.162566e-01
-7.836086e-01
-8.529653e-01
-9.242022e-01
-9.972130e-01
-1.071919e+00
-1.148283e+00
-1.226332e+00
-1.306198e+00
-1.388182e+00
-1.472883e+00
-1.561460e+00
-1.656220e+00
-1.761962e+00
-1.888974e+00
-2.056640e+00
0.000000e+00
-1.274560e-02
-3.154680e-02
-5.409321e-02
-7.977384e-02
-1.088570e-01
-1.414590e-01
-1.776100e-01
-2.172666e-01
-2.603410e-01
-3.067181e-01
-3.562664e-01
-4.088444e-01
-4.643048e-01
-5.224975e-01
-5.832709e-01
-6.464739e-01
-7.119577e-01
-7.795775e-01
-8.491962e-01
-9.206882e-01
-9.939464e-01
-1.068892e+00
-1.145488e+00
-1.223766e+00
-1.303865e+00
-1.386098e+00
-1.471081e+00
-1.559959e+00
-1.654808e+00
-1.759175e+00
-1.877251e+00
-2.008232e+00
0.000000e+00
-1.020614e-02
-2.671378e-02
-4.805790e-02
-7.340850e-02
-1.024827e-01
-1.352241e-01
-1.715776e-01
-2.114649e-01
-2.547823e-01
-3.014072e-01
-3.512049e-01
-4.040325e-01
-4.597428e-01
-5.181855e-01
-5.792096e-01
-6.426644e-01
-7.084017e-01
-7.762775e-01
-8.461558e-01
-9.179126e-01
-9.914434e-01
-1.066673e+00
-1.143571e+00
-1.222177e+00
-1.302634e+00
-1.385255e+00
-1.470606e+00
-1.559624e+00
-1.653677e+00
-1.754075e+00
-1.859963e+00
-1.958534e+00
0.000000e+00
-8.636073e-03
-2.355315e-02
-4.377211e-02
-6.854482e-02
-9.742836e-02
-1.301821e-01
-1.666537e-01
-2.067115e-01
-2.502245e-01
-2.970566e-01
-3.470668e-01
-4.001098e-01
-4.560376e-01
-5.147008e-01
-5.759493e-01
-6.396340e-01
-7.056083e-01
-7.737302e-01
-8.438659e-01
-9.158943e-01
-9.897141e-01
-1.065253e+00
-1.142483e+00
-1.221440e+00
-1.302251e+00
-1.385170e+00
-1.470604e+00
-1.559093e+00
-1.651071e+00
-1.746099e+00
-1.840688e+00
-1.926532e+00
0.000000e+00
-7.637026e-03
-2.147939e-02
-4.082282e-02
-6.503789e-02
-9.365087e-02
-1.263334e-01
-1.628517e-01
-2.030217e-01
-2.466813e-01
-2.936776e-01
-3.438611e-01
-3.970833e-01
-4.531953e-01
-5.120483e-01
-5.734940e-01
-6.373850e-01
-7.035770e-01
-7.719302e-01
-8.423131e-01
-9.146062e-01
-9.887086e-01
-1.064546e+00
-1.142083e+00
-1.221331e+00
-1.302368e+00
-1.385337e+00
-1.470416e+00
-1.557705e+00
-1.646908e+00
-1.736667e+00
-1.823775e+00
-1.903391e+00
0.000000e+00
-7.016129e-03
-2.016825e-02
-3.890572e-02
-6.268850e-02
-9.105491e-02
-1.236404e-01
-1.601633e-01
-2.003995e-01
-2.441606e-01
-2.912780e-01
-3.415940e-01
-3.949567e-01
-4.512166e-01
-5.102259e-01
-5.718377e-01
-6.359069e-01
-7.022908e-01
-7.708516e-01
-8.414583e-01
-9.139907e-01
-9.883437e-01
-1.064433e+00
-1.142202e+00
-1.221623e+00
-1.302698e+00
-1.385434e+00
-1.469784e+00
-1.555504e+00
-1.641897e+00
-1.727467e+00
-1.809749e+00
-1.885718e+00
0.000000e+00
-6.674938e-03
-1.944073e-02
-3.782539e-02
-6.134133e-02
-8.954279e-02
-1.220535e-01
-1.585684e-01
-1.988404e-01
-2.426643e-01
-2.898609e-01
-3.402673e-01
-3.937293e-01
-4.500975e-01
-5.092251e-01
-5.709668e-01
-6.351792e-01
-7.017212e-01
-7.704550e-01
-8.412486e-01
-9.139772e-01
-9.885267e-01
-1.064796e+00
-1.142696e+00
-1.222150e+00
-1.303075e+00
-1.385353e+00
-1.468759e+00
-1.552848e+00
-1.636793e+00
-1.719245e+00
-1.798350e+00
-1.872043e+00
0.000000e+00
-6.565007e-03
-1.920602e-02
-3.747524e-02
-6.090227e-02
-8.904790e-02
-1.215337e-01
-1.580480e-01
-1.983370e-01
-2.421902e-01
-2.894255e-01
-3.398788e-01
-3.933962e-01
-4.498292e-01
-5.090324e-01
-5.708621e-01
-6.351761e-01
-7.018335e-01
-7.706957e-01
-8.416270e-01
-9.144953e-01
-9.891732e-01
-1.065537e+00
-1.143462e+00
-1.222818e+00
-1.303447e+00
-1.385130e+00
-1.467530e+00
-1.550115e+00
-1.632071e+00
-1.712257e+00
-1.789259e+00
-1.861563e+00
0.000000e+00
-6.671758e-03
-1.943632e-02
-3.782159e-02
-6.134018e-02
-8.954682e-02
-1.220660e-01
-1.585938e-01
-1.988847e-01
-2.427350e-01
-2.899679e-01
-3.404231e-01
-3.939491e-01
-4.503999e-01
-5.096316e-01
-5.715019e-01
-6.358691e-01
-7.025920e-01
-7.715295e-01
-8.425408e-01
-9.154842e-01
-9.902165e-01
-1.066589e+00
-1.144444e+00
-1.223601e+00
-1.303839e+00
-1.384872e+00
-1.466305e+00
-1.547589e+00
-1.627984e+00
-1.706550e+00
-1.782191e+00
-1.853753e+00
0.000000e+00
-7.010027e-03
-2.015978e-02
-3.889839e-02
-6.268620e-02
-9.106249e-02
-1.236642e-01
-1.602118e-01
-2.004841e-01
-2.442959e-01
-2.914828e-01
-3.418924e-01
-3.953780e-01
-4.517964e-01
-5.110058e-01
-5.728647e-01
-6.372316e-01
-7.039640e-01
-7.729178e-01
-8.439458e-01
-9.168964e-01
-9.916099e-01
-1.067915e+00
-1.145621e+00
-1.224507e+00
-1.304309e+00
-1.384697e+00
-1.465254e+00
-1.545453e+00
-1.624646e+00
-1.702073e+00
-1.776889e+00
-1.848209e+00
0.000000e+00
-7.628544e-03
-2.146762e-02
-4.081259e-02
-6.503458e-02
-9.366124e-02
-1.263664e-01
-1.629192e-01
-2.031394e-01
-2.468698e-01
-2.939635e-01
-3.442779e-01
-3.976721e-01
-4.540061e-01
-5.131396e-01
-5.749319e-01
-6.392410e-01
-7.059230e-01
-7.748300e-01
-8.458092e-01
-9.186987e-01
-9.933246e-01
-1.069495e+00
-1.146994e+00
-1.225569e+00
-1.304925e+00
-1.384708e+00
-1.464501e+00
-1.543813e+00
-1.622090e+00
-1.698731e+00
-1.773108e+00
-1.844574e+00
0.000000e+00
-8.626082e-03
-2.353930e-02
-4.376005e-02
-6.854099e-02
-9.744092e-02
-1.302219e-01
-1.667351e-01
-2.068536e-01
-2.504523e-01
-2.974022e-01
-3.475706e-01
-4.008219e-01
-4.570184e-01
-5.160213e-01
-5.776898e-01
-6.418815e-01
-7.084505e-01
-7.772460e-01
-8.481096e-01
-9.208715e-01
-9.953457e-01
-1.071325e+00
-1.148572e+00
-1.226816e+00
-1.305739e+00
-1.384978e+00
-1.464121e+00
-1.542717e+00
-1.620297e+00
-1.696399e+00
-1.770597e+00
-1.842494e+00
0.000000e+00
-1.019587e-02
-2.669955e-02
-4.804564e-02
-7.340520e-02
-1.024974e-01
-1.352689e-01
-1.716684e-01
-2.116230e-01
-2.550351e-01
-3.017902e-01
-3.517628e-01
-4.048205e-01
-4.608274e-01
-5.196449e-01
-5.811322e-01
-6.451459e-01
-7.115387e-01
-7.801571e-01
-8.508387e-01
-9.234075e-01
-9.976694e-01
-1.073406e+00
-1.150368e+00
-1.228270e+00
-1.306784e+00
-1.385542e+00
-1.464142e+00
-1.542165e+00
-1.619209e+00
-1.694932e+00
-1.769098e+00
-1.841587e+00
0.000000e+00
-1.273665e-02
-3.153434e-02
-5.408286e-02
-7.977286e-02
-1.088750e-01
-1.415085e-01
-1.777077e-01
-2.174345e-01
-2.606077e-01
-3.071202e-01
-3.568500e-01
-4.096662e-01
-4.654331e-01
-5.240120e-01
-5.852616e-01
-6.490377e-01
-7.151916e-01
-7.835679e-01
-8.540013e-01
-9.263122e-01
-1.000302e+00
-1.075745e+00
-1.152387e+00
-1.229936e+00
-1.308059e+00
-1.386391e+00
-1.464537e+00
-1.542102e+00
-1.618732e+00
-1.694172e+00
-1.768344e+00
-1.841429e+00
0.000000e+00
-1.734565e-02
-3.912200e-02
-6.198261e-02
-8.762831e-02
-1.165184e-01
-1.488974e-01
-1.848241e-01
-2.242712e-01
-2.671615e-01
-3.133896e-01
-3.628338e-01
-4.153635e-01
-4.708429e-01
-5.291326e-01
-5.900908e-01
-6.535722e-01
-7.194270e-01
-7.874981e-01
-8.576185e-01
-9.296064e-01
-1.003261e+00
-1.078355e+00
-1.154633e+00
-1.231801e+00
-1.309532e+00
-1.387463e+00
-1.465213e+00
-1.542404e+00
-1.618710e+00
-1.693924e+00
-1.768072e+00
-1.841563e+00
0.000000e+00
-2.791948e-02
-4.872412e-02
-7.143254e-02
-9.672685e-02
-1.253077e-01
-1.573765e-01
-1.929928e-01
-2.321261e-01
-2.746986e-01
-3.206050e-01
-3.697241e-01
-4.219252e-01
-4.770725e-01
-5.350261e-01
-5.956432e-01
-6.587776e-01
-7.242777e-01
-7.919852e-01
-8.617309e-01
-9.333317e-01
-1.006585e+00
-1.081265e+00