TITLE = "Solution"
VARIABLES = x, y, u, v, psiu, psiv, t, stress
ZONE T="structure" N=561 E=512 F=FEBLOCK ET=QUADRILATERAL VARLOCATION=([7,8]=cellcentered)
0.000000e+00
6.250000e+00
1.250000e+01
1.875000e+01
2.500000e+01
3.125000e+01
3.750000e+01
4.375000e+01
5.000000e+01
5.625000e+01
6.250000e+01
6.875000e+01
7.500000e+01
8.125000e+01
8.750000e+01
9.375000e+01
1.000000e+02
1.062500e+02
1.125000e+02
1.187500e+02
1.250000e+02
1.312500e+02
1.375000e+02
1.437500e+02
1.500000e+02
1.562500e+02
1.625000e+02
1.687500e+02
1.750000e+02
1.812500e+02
1.875000e+02
1.937500e+02
2.000000e+02
0.000000e+00
6.250000e+00
1.250000e+01
1.875000e+01
2.500000e+01
3.125000e+01
3.750000e+01
4.375000e+01
5.000000e+01
5.625000e+01
6.250000e+01
6.875000e+01
7.500000e+01
8.125000e+01
8.750000e+01
9.375000e+01
1.000000e+02
1.062500e+02
1.125000e+02
1.187500e+02
1.250000e+02
1.312500e+02
1.375000e+02
1.437500e+02
1.500000e+02
1.562500e+02
1.625000e+02
1.687500e+02
1.750000e+02
1.812500e+02
1.875000e+02
1.937500e+02
2.000000e+02
0.000000e+00
6.250000e+00
1.250000e+01
1.875000e+01
2.500000e+01
3.125000e+01
3.750000e+01
4.375000e+01
5.000000e+01
5.625000e+01
6.250000e+01
6.875000e+01
7.500000e+01
8.125000e+01
8.750000e+01
9.375000e+01
1.000000e+02
1.062500e+02
1.125000e+02
1.187500e+02
1.250000e+02
1.312500e+02
1.375000e+02
1.437500e+02
1.500000e+02
1.562500e+02
1.625000e+02
1.687500e+02
1.750000e+02
1.812500e+02
1.875000e+02
1.937500e+02
2.000000e+02
0.000000e+00
6.250000e+00
1.250000e+01
1.875000e+01
2.500000e+01
3.125000e+01
3.750000e+01
4.375000e+01
5.000000e+01
5.625000e+01
6.250000e+01
6.875000e+01
7.500000e+01
8.125000e+01
8.750000e+01
9.375000e+01
1.000000e+02
1.062500e+02
1.125000e+02
1.187500e+02
1.250000e+02
1.312500e+02
1.375000e+02
1.437500e+02
1.500000e+02
1.562500e+02
1.625000e+02
1.687500e+02
1.750000e+02
1.812500e+02
1.875000e+02
1.937500e+02
2.000000e+02
0.000000e+00
6.250000e+00
1.250000e+01
1.875000e+01
2.500000e+01
3.125000e+01
3.750000e+01
4.375000e+01
5.000000e+01
5.625000e+01
6.250000e+01
6.875000e+01
7.500000e+01
8.125000e+01
8.750000e+01
9.375000e+01
1.000000e+02
1.062500e+02
1.125000e+02
1.187500e+02
1.250000e+02
1.312500e+02
1.375000e+02
1.437500e+02
1.500000e+02
1.562500e+02
1.625000e+02
1.687500e+02
1.750000e+02
1.812500e+02
1.875000e+02
1.937500e+02
2.000000e+02
0.000000e+00
6.250000e+00
1.250000e+01
1.875000e+01
2.500000e+01
3.125000e+01
3.750000e+01
4.375000e+01
5.000000e+01
5.625000e+01
6.250000e+01
6.875000e+01
7.500000e+01
8.125000e+01
8.750000e+01
9.375000e+01
1.000000e+02
1.062500e+02
1.125000e+02
1.187500e+02
1.250000e+02
1.312500e+02
1.375000e+02
1.437500e+02
1.500000e+02
1.562500e+02
1.625000e+02
1.687500e+02
1.750000e+02
1.812500e+02
1.875000e+02
1.937500e+02
2.000000e+02
0.000000e+00
6.250000e+00
1.250000e+01
1.875000e+01
2.500000e+01
3.125000e+01
3.750000e+01
4.375000e+01
5.000000e+01
5.625000e+01
6.250000e+01
6.875000e+01
7.500000e+01
8.125000e+01
8.750000e+01
9.375000e+01
1.000000e+02
1.062500e+02
1.125000e+02
1.187500e+02
1.250000e+02
1.312500e+02
1.375000e+02
1.437500e+02
1.500000e+02
1.562500e+02
1.625000e+02
1.687500e+02
1.750000e+02
1.812500e+02
1.875000e+02
1.937500e+02
2.000000e+02
0.000000e+00
6.250000e+00
1.250000e+01
1.875000e+01
2.500000e+01
3.125000e+01
3.750000e+01
4.375000e+01
5.000000e+01
5.625000e+01
6.250000e+01
6.875000e+01
7.500000e+01
8.125000e+01
8.750000e+01
9.375000e+01
1.000000e+02
1.062500e+02
1.125000e+02
1.187500e+02
1.250000e+02
1.312500e+02
1.375000e+02
1.437500e+02
1.500000e+02
1.562500e+02
1.625000e+02
1.687500e+02
1.750000e+02
1.812500e+02
1.875000e+02
1.937500e+02
2.000000e+02
0.000000e+00
6.250000e+00
1.250000e+01
1.875000e+01
2.500000e+01
3.125000e+01
3.750000e+01
4.375000e+01
5.000000e+01
5.625000e+01
6.250000e+01
6.875000e+01
7.500000e+01
8.125000e+01
8.750000e+01
9.375000e+01
1.000000e+02
1.062500e+02
1.125000e+02
1.187500e+02
1.250000e+02
1.312500e+02
1.375000e+02
1.437500e+02
1.500000e+02
1.562500e+02
1.625000e+02
1.687500e+02
1.750000e+02
1.812500e+02
1.875000e+02
1.937500e+02
2.000000e+02
0.000000e+00
6.250000e+00
1.250000e+01
1.875000e+01
2.500000e+01
3.125000e+01
3.750000e+01
4.375000e+01
5.000000e+01
5.625000e+01
6.250000e+01
6.875000e+01
7.500000e+01
8.125000e+01
8.750000e+01
9.375000e+01
1.000000e+02
1.062500e+02
1.125000e+02
1.187500e+02
1.250000e+02
1.312500e+02
1.375000e+02
1.437500e+02
1.500000e+02
1.562500e+02
1.625000e+02
1.687500e+02
1.750000e+02
1.812500e+02
1.875000e+02
1.937500e+02
2.000000e+02
0.000000e+00
6.250000e+00
1.250000e+01
1.875000e+01
2.500000e+01
3.125000e+01
3.750000e+01
4.375000e+01
5.000000e+01
5.625000e+01
6.250000e+01
6.875000e+01
7.500000e+01
8.125000e+01
8.750000e+01
9.375000e+01
1.000000e+02
1.062500e+02
1.125000e+02
1.187500e+02
1.250000e+02
1.312500e+02
1.375000e+02
1.437500e+02
1.500000e+02
1.562500e+02
1.625000e+02
1.687500e+02
1.750000e+02
1.812500e+02
1.875000e+02
1.937500e+02
2.000000e+02
0.000000e+00
6.250000e+00
1.250000e+01
1.875000e+01
2.500000e+01
3.125000e+01
3.750000e+01
4.375000e+01
5.000000e+01
5.625000e+01
6.250000e+01
6.875000e+01
7.500000e+01
8.125000e+01
8.750000e+01
9.375000e+01
1.000000e+02
1.062500e+02
1.125000e+02
1.187500e+02
1.250000e+02
1.312500e+02
1.375000e+02
1.437500e+02
1.500000e+02
1.562500e+02
1.625000e+02
1.687500e+02
1.750000e+02
1.812500e+02
1.875000e+02
1.937500e+02
2.000000e+02
0.000000e+00
6.250000e+00
1.250000e+01
1.875000e+01
2.500000e+01
3.125000e+01
3.750000e+01
4.375000e+01
5.000000e+01
5.625000e+01
6.250000e+01
6.875000e+01
7.500000e+01
8.125000e+01
8.750000e+01
9.375000e+01
1.000000e+02
1.062500e+02
1.125000e+02
1.187500e+02
1.250000e+02
1.312500e+02
1.375000e+02
1.437500e+02
1.500000e+02
1.562500e+02
1.625000e+02
1.687500e+02
1.750000e+02
1.812500e+02
1.875000e+02
1.937500e+02
2.000000e+02
0.000000e+00
6.250000e+00
1.250000e+01
1.875000e+01
2.500000e+01
3.125000e+01
3.750000e+01
4.375000e+01
5.000000e+01
5.625000e+01
6.250000e+01
6.875000e+01
7.500000e+01
8.125000e+01
8.750000e+01
9.375000e+01
1.000000e+02
1.062500e+02
1.125000e+02
1.187500e+02
1.250000e+02
1.312500e+02
1.375000e+02
1.437500e+02
1.500000e+02
1.562500e+02
1.625000e+02
1.687500e+02
1.750000e+02
1.812500e+02
1.875000e+02
1.937500e+02
2.000000e+02
0.000000e+00
6.250000e+00
1.250000e+01
1.875000e+01
2.500000e+01
3.125000e+01
3.750000e+01
4.375000e+01
5.000000e+01
5.625000e+01
6.250000e+01
6.875000e+01
7.500000e+01
8.125000e+01
8.750000e+01
9.375000e+01
1.000000e+02
1.062500e+02
1.125000e+02
1.187500e+02
1.250000e+02
1.312500e+02
1.375000e+02
1.437500e+02
1.500000e+02
1.562500e+02
1.625000e+02
1.687500e+02
1.750000e+02
1.812500e+02
1.875000e+02
1.937500e+02
2.000000e+02
0.000000e+00
6.250000e+00
1.250000e+01
1.875000e+01
2.500000e+01
3.125000e+01
3.750000e+01
4.375000e+01
5.000000e+01
5.625000e+01
6.250000e+01
6.875000e+01
7.500000e+01
8.125000e+01
8.750000e+01
9.375000e+01
1.000000e+02
1.062500e+02
1.125000e+02
1.187500e+02
1.250000e+02
1.312500e+02
1.375000e+02
1.437500e+02
1.500000e+02
1.562500e+02
1.625000e+02
1.687500e+02
1.750000e+02
1.812500e+02
1.875000e+02
1.937500e+02
2.000000e+02
0.000000e+00
6.250000e+00
1.250000e+01
1.875000e+01
2.500000e+01
3.125000e+01
3.750000e+01
4.375000e+01
5.000000e+01
5.625000e+01
6.250000e+01
6.875000e+01
7.500000e+01
8.125000e+01
8.750000e+01
9.375000e+01
1.000000e+02
1.062500e+02
1.125000e+02
1.187500e+02
1.250000e+02
1.312500e+02
1.375000e+02
1.437500e+02
1.500000e+02
1.562500e+02
1.625000e+02
1.687500e+02
1.750000e+02
1.812500e+02
1.875000e+02
1.937500e+02
2.000000e+02
0.000000e+00
0.000000e+00
0.000000e+00
0.000000e+00
0.000000e+00
0.000000e+00
0.000000e+00
0.000000e+00
0.000000e+00
0.000000e+00
0.000000e+00
0.000000e+00
0.000000e+00
0.000000e+00
0.000000e+00
0.000000e+00
0.000000e+00
0.000000e+00
0.000000e+00
0.000000e+00
0.000000e+00
0.000000e+00
0.000000e+00
0.000000e+00
0.000000e+00
0.000000e+00
0.000000e+00
0.000000e+00
0.000000e+00
0.000000e+00
0.000000e+00
0.000000e+00
0.000000e+00
6.250000e+00
6.250000e+00
6.250000e+00
6.250000e+00
6.250000e+00
6.250000e+00
6.250000e+00
6.250000e+00
6.250000e+00
6.250000e+00
6.250000e+00
6.250000e+00
6.250000e+00
6.250000e+00
6.250000e+00
6.250000e+00
6.250000e+00
6.250000e+00
6.250000e+00
6.250000e+00
6.250000e+00
6.250000e+00
6.250000e+00
6.250000e+00
6.250000e+00
6.250000e+00
6.250000e+00
6.250000e+00
6.250000e+00
6.250000e+00
6.250000e+00
6.250000e+00
6.250000e+00
1.250000e+01
1.250000e+01
1.250000e+01
1.250000e+01
1.250000e+01
1.250000e+01
1.250000e+01
1.250000e+01
1.250000e+01
1.250000e+01
1.250000e+01
1.250000e+01
1.250000e+01
1.250000e+01
1.250000e+01
1.250000e+01
1.250000e+01
1.250000e+01
1.250000e+01
1.250000e+01
1.250000e+01
1.250000e+01
1.250000e+01
1.250000e+01
1.250000e+01
1.250000e+01
1.250000e+01
1.250000e+01
1.250000e+01
1.250000e+01
1.250000e+01
1.250000e+01
1.250000e+01
1.875000e+01
1.875000e+01
1.875000e+01
1.875000e+01
1.875000e+01
1.875000e+01
1.875000e+01
1.875000e+01
1.875000e+01
1.875000e+01
1.875000e+01
1.875000e+01
1.875000e+01
1.875000e+01
1.875000e+01
1.875000e+01
1.875000e+01
1.875000e+01
1.875000e+01
1.875000e+01
1.875000e+01
1.875000e+01
1.875000e+01
1.875000e+01
1.875000e+01
1.875000e+01
1.875000e+01
1.875000e+01
1.875000e+01
1.875000e+01
1.875000e+01
1.875000e+01
1.875000e+01
2.500000e+01
2.500000e+01
2.500000e+01
2.500000e+01
2.500000e+01
2.500000e+01
2.500000e+01
2.500000e+01
2.500000e+01
2.500000e+01
2.500000e+01
2.500000e+01
2.500000e+01
2.500000e+01
2.500000e+01
2.500000e+01
2.500000e+01
2.500000e+01
2.500000e+01
2.500000e+01
2.500000e+01
2.500000e+01
2.500000e+01
2.500000e+01
2.500000e+01
2.500000e+01
2.500000e+01
2.500000e+01
2.500000e+01
2.500000e+01
2.500000e+01
2.500000e+01
2.500000e+01
3.125000e+01
3.125000e+01
3.125000e+01
3.125000e+01
3.125000e+01
3.125000e+01
3.125000e+01
3.125000e+01
3.125000e+01
3.125000e+01
3.125000e+01
3.125000e+01
3.125000e+01
3.125000e+01
3.125000e+01
3.125000e+01
3.125000e+01
3.125000e+01
3.125000e+01
3.125000e+01
3.125000e+01
3.125000e+01
3.125000e+01
3.125000e+01
3.125000e+01
3.125000e+01
3.125000e+01
3.125000e+01
3.125000e+01
3.125000e+01
3.125000e+01
3.125000e+01
3.125000e+01
3.750000e+01
3.750000e+01
3.750000e+01
3.750000e+01
3.750000e+01
3.750000e+01
3.750000e+01
3.750000e+01
3.750000e+01
3.750000e+01
3.750000e+01
3.750000e+01
3.750000e+01
3.750000e+01
3.750000e+01
3.750000e+01
3.750000e+01
3.750000e+01
3.750000e+01
3.750000e+01
3.750000e+01
3.750000e+01
3.750000e+01
3.750000e+01
3.750000e+01
3.750000e+01
3.750000e+01
3.750000e+01
3.750000e+01
3.750000e+01
3.750000e+01
3.750000e+01
3.750000e+01
4.375000e+01
4.375000e+01
4.375000e+01
4.375000e+01
4.375000e+01
4.375000e+01
4.375000e+01
4.375000e+01
4.375000e+01
4.375000e+01
4.375000e+01
4.375000e+01
4.375000e+01
4.375000e+01
4.375000e+01
4.375000e+01
4.375000e+01
4.375000e+01
4.375000e+01
4.375000e+01
4.375000e+01
4.375000e+01
4.375000e+01
4.375000e+01
4.375000e+01
4.375000e+01
4.375000e+01
4.375000e+01
4.375000e+01
4.375000e+01
4.375000e+01
4.375000e+01
4.375000e+01
5.000000e+01
5.000000e+01
5.000000e+01
5.000000e+01
5.000000e+01
5.000000e+01
5.000000e+01
5.000000e+01
5.000000e+01
5.000000e+01
5.000000e+01
5.000000e+01
5.000000e+01
5.000000e+01
5.000000e+01
5.000000e+01
5.000000e+01
5.000000e+01
5.000000e+01
5.000000e+01
5.000000e+01
5.000000e+01
5.000000e+01
5.000000e+01
5.000000e+01
5.000000e+01
5.000000e+01
5.000000e+01
5.000000e+01
5.000000e+01
5.000000e+01
5.000000e+01
5.000000e+01
5.625000e+01
5.625000e+01
5.625000e+01
5.625000e+01
5.625000e+01
5.625000e+01
5.625000e+01
5.625000e+01
5.625000e+01
5.625000e+01
5.625000e+01
5.625000e+01
5.625000e+01
5.625000e+01
5.625000e+01
5.625000e+01
5.625000e+01
5.625000e+01
5.625000e+01
5.625000e+01
5.625000e+01
5.625000e+01
5.625000e+01
5.625000e+01
5.625000e+01
5.625000e+01
5.625000e+01
5.625000e+01
5.625000e+01
5.625000e+01
5.625000e+01
5.625000e+01
5.625000e+01
6.250000e+01
6.250000e+01
6.250000e+01
6.250000e+01
6.250000e+01
6.250000e+01
6.250000e+01
6.250000e+01
6.250000e+01
6.250000e+01
6.250000e+01
6.250000e+01
6.250000e+01
6.250000e+01
6.250000e+01
6.250000e+01
6.250000e+01
6.250000e+01
6.250000e+01
6.250000e+01
6.250000e+01
6.250000e+01
6.250000e+01
6.250000e+01
6.250000e+01
6.250000e+01
6.250000e+01
6.250000e+01
6.250000e+01
6.250000e+01
6.250000e+01
6.250000e+01
6.250000e+01
6.875000e+01
6.875000e+01
6.875000e+01
6.875000e+01
6.875000e+01
6.875000e+01
6.875000e+01
6.875000e+01
6.875000e+01
6.875000e+01
6.875000e+01
6.875000e+01
6.875000e+01
6.875000e+01
6.875000e+01
6.875000e+01
6.875000e+01
6.875000e+01
6.875000e+01
6.875000e+01
6.875000e+01
6.875000e+01
6.875000e+01
6.875000e+01
6.875000e+01
6.875000e+01
6.875000e+01
6.875000e+01
6.875000e+01
6.875000e+01
6.875000e+01
6.875000e+01
6.875000e+01
7.500000e+01
7.500000e+01
7.500000e+01
7.500000e+01
7.500000e+01
7.500000e+01
7.500000e+01
7.500000e+01
7.500000e+01
7.500000e+01
7.500000e+01
7.500000e+01
7.500000e+01
7.500000e+01
7.500000e+01
7.500000e+01
7.500000e+01
7.500000e+01
7.500000e+01
7.500000e+01
7.500000e+01
7.500000e+01
7.500000e+01
7.500000e+01
7.500000e+01
7.500000e+01
7.500000e+01
7.500000e+01
7.500000e+01
7.500000e+01
7.500000e+01
7.500000e+01
7.500000e+01
8.125000e+01
8.125000e+01
8.125000e+01
8.125000e+01
8.125000e+01
8.125000e+01
8.125000e+01
8.125000e+01
8.125000e+01
8.125000e+01
8.125000e+01
8.125000e+01
8.125000e+01
8.125000e+01
8.125000e+01
8.125000e+01
8.125000e+01
8.125000e+01
8.125000e+01
8.125000e+01
8.125000e+01
8.125000e+01
8.125000e+01
8.125000e+01
8.125000e+01
8.125000e+01
8.125000e+01
8.125000e+01
8.125000e+01
8.125000e+01
8.125000e+01
8.125000e+01
8.125000e+01
8.750000e+01
8.750000e+01
8.750000e+01
8.750000e+01
8.750000e+01
8.750000e+01
8.750000e+01
8.750000e+01
8.750000e+01
8.750000e+01
8.750000e+01
8.750000e+01
8.750000e+01
8.750000e+01
8.750000e+01
8.750000e+01
8.750000e+01
8.750000e+01
8.750000e+01
8.750000e+01
8.750000e+01
8.750000e+01
8.750000e+01
8.750000e+01
8.750000e+01
8.750000e+01
8.750000e+01
8.750000e+01
8.750000e+01
8.750000e+01
8.750000e+01
8.750000e+01
8.750000e+01
9.375000e+01
9.375000e+01
9.375000e+01
9.375000e+01
9.375000e+01
9.375000e+01
9.375000e+01
9.375000e+01
9.375000e+01
9.375000e+01
9.375000e+01
9.375000e+01
9.375000e+01
9.375000e+01
9.375000e+01
9.375000e+01
9.375000e+01
9.375000e+01
9.375000e+01
9.375000e+01
9.375000e+01
9.375000e+01
9.375000e+01
9.375000e+01
9.375000e+01
9.375000e+01
9.375000e+01
9.375000e+01
9.375000e+01
9.375000e+01
9.375000e+01
9.375000e+01
9.375000e+01
1.000000e+02
1.000000e+02
1.000000e+02
1.000000e+02
1.000000e+02
1.000000e+02
1.000000e+02
1.000000e+02
1.000000e+02
1.000000e+02
1.000000e+02
1.000000e+02
1.000000e+02
1.000000e+02
1.000000e+02
1.000000e+02
1.000000e+02
1.000000e+02
1.000000e+02
1.000000e+02
1.000000e+02
1.000000e+02
1.000000e+02
1.000000e+02
1.000000e+02
1.000000e+02
1.000000e+02
1.000000e+02
1.000000e+02
1.000000e+02
1.000000e+02
1.000000e+02
1.000000e+02
0.000000e+00
-4.216058e-02
-7.649477e-02
-1.083005e-01
-1.388251e-01
-1.683013e-01
-1.967881e-01
-2.242831e-01
-2.507690e-01
-2.762265e-01
-3.006397e-01
-3.239975e-01
-3.462942e-01
-3.675295e-01
-3.877082e-01
-4.068409e-01
-4.249450e-01
-4.420451e-01
-4.581757e-01
-4.733832e-01
-4.877295e-01
-5.012962e-01
-5.141916e-01
-5.265589e-01
-5.385903e-01
-5.505469e-01
-5.627911e-01
-5.758402e-01
-5.904525e-01
-6.077445e-01
-6.291640e-01
-6.546903e-01
-6.702686e-01
0.000000e+00
-2.826754e-02
-5.881365e-02
-8.761460e-02
-1.149888e-01
-1.411969e-01
-1.663773e-01
-1.905907e-01
-2.138612e-01
-2.361967e-01
-2.575986e-01
-2.780669e-01
-2.976026e-01
-3.162090e-01
-3.338920e-01
-3.506617e-01
-3.665322e-01
-3.815231e-01
-3.956605e-01
-4.089781e-01
-4.215189e-01
-4.333371e-01
-4.445002e-01
-4.550903e-01
-4.652060e-01
-4.749606e-01
-4.844734e-01
-4.938430e-01
-5.030687e-01
-5.118503e-01
-5.191678e-01
-5.234459e-01
-5.294018e-01
0.000000e+00
-2.242188e-02
-4.616083e-02
-7.033086e-02
-9.381664e-02
-1.164369e-01
-1.381773e-01
-1.590582e-01
-1.790984e-01
-1.983102e-01
-2.167019e-01
-2.342793e-01
-2.510472e-01
-2.670106e-01
-2.821753e-01
-2.965487e-01
-3.101402e-01
-3.229616e-01
-3.350271e-01
-3.463540e-01
-3.569621e-01
-3.668729e-01
-3.761074e-01
-3.846822e-01
-3.926004e-01
-3.998369e-01
-4.063087e-01
-4.118255e-01
-4.160140e-01
-4.182694e-01
-4.180716e-01
-4.168052e-01
-4.237600e-01
0.000000e+00
-1.778977e-02
-3.656204e-02
-5.584820e-02
-7.508916e-02
-9.386406e-02
-1.120121e-01
-1.294757e-01
-1.462391e-01
-1.623017e-01
-1.776677e-01
-1.923421e-01
-2.063299e-01
-2.196356e-01
-2.322630e-01
-2.442157e-01
-2.554970e-01
-2.661099e-01
-2.760563e-01
-2.853370e-01
-2.939495e-01
-3.018860e-01
-3.091289e-01
-3.156445e-01
-3.213725e-01
-3.262119e-01
-3.300025e-01
-3.325128e-01
-3.334713e-01
-3.327597e-01
-3.310317e-01
-3.309285e-01
-3.375548e-01
0.000000e+00
-1.380735e-02
-2.827274e-02
-4.320022e-02
-5.824897e-02
-7.311315e-02
-8.758767e-02
-1.015687e-01
-1.150090e-01
-1.278904e-01
-1.402082e-01
-1.519630e-01
-1.631571e-01
-1.737923e-01
-1.838693e-01
-1.933872e-01
-2.023431e-01
-2.107315e-01
-2.185438e-01
-2.257669e-01
-2.323814e-01
-2.383590e-01
-2.436588e-01
-2.482226e-01
-2.519698e-01
-2.547943e-01
-2.565716e-01
-2.571951e-01
-2.566836e-01
-2.554321e-01
-2.546201e-01
-2.564952e-01
-2.621477e-01
0.000000e+00
-1.014760e-02
-2.072996e-02
-3.165229e-02
-4.272588e-02
-5.374402e-02
-6.454260e-02
-7.501495e-02
-8.510253e-02
-9.477687e-02
-1.040260e-01
-1.128456e-01
-1.212342e-01
-1.291903e-01
-1.367109e-01
-1.437907e-01
-1.504212e-01
-1.565903e-01
-1.622814e-01
-1.674722e-01
-1.721334e-01
-1.762272e-01
-1.797059e-01
-1.825109e-01
-1.845759e-01
-1.858359e-01
-1.862539e-01
-1.858788e-01
-1.849542e-01
-1.840745e-01
-1.842887e-01
-1.866790e-01
-1.913561e-01
0.000000e+00
-6.678339e-03
-1.362084e-02
-2.078357e-02
-2.806440e-02
-3.534077e-02
-4.250294e-02
-4.947094e-02
-5.619469e-02
-6.264659e-02
-6.881268e-02
-7.468593e-02
-8.026186e-02
-8.553581e-02
-9.050143e-02
-9.514962e-02
-9.946786e-02
-1.034395e-01
-1.070434e-01
-1.102528e-01
-1.130355e-01
-1.153539e-01
-1.171657e-01
-1.184283e-01
-1.191067e-01
-1.191909e-01
-1.187271e-01
-1.178687e-01
-1.169426e-01
-1.164936e-01
-1.171941e-01
-1.195213e-01
-1.232967e-01
0.000000e+00
-3.317129e-03
-6.759664e-03
-1.030991e-02
-1.392304e-02
-1.754196e-02
-2.111247e-02
-2.459216e-02
-2.795237e-02
-3.117559e-02
-3.425146e-02
-3.717311e-02
-3.993456e-02
-4.252897e-02
-4.494749e-02
-4.717850e-02
-4.920705e-02
-5.101440e-02
-5.257784e-02
-5.387073e-02
-5.486320e-02
-5.552382e-02
-5.582307e-02
-5.573984e-02
-5.527247e-02
-5.445664e-02
-5.339108e-02
-5.226833e-02
-5.139675e-02
-5.117842e-02
-5.200024e-02
-5.403046e-02
-5.702616e-02
0.000000e+00
-5.351860e-06
-1.160436e-05
-1.841112e-05
-2.541410e-05
-3.213056e-05
-3.783294e-05
-4.141567e-05
-4.123936e-05
-3.494334e-05
-1.921937e-05
1.045756e-05
6.014078e-05
1.377591e-04
2.534829e-04
4.200771e-04
6.531875e-04
9.714700e-04
1.396425e-03
1.951720e-03
2.661692e-03
3.548551e-03
4.627681e-03
5.900253e-03
7.342428e-03
8.891032e-03
1.042750e-02
1.176612e-02
1.265971e-02
1.284092e-02
1.211127e-02
1.045884e-02
8.144515e-03
0.000000e+00
3.307049e-03
6.737763e-03
1.027509e-02
1.387486e-02
1.748088e-02
2.104028e-02
2.451272e-02
2.787260e-02
3.110682e-02
3.421121e-02
3.718741e-02
4.004082e-02
4.277951e-02
4.541385e-02
4.795635e-02
5.042168e-02
5.282660e-02
5.518943e-02
5.752906e-02
5.986297e-02
6.220402e-02
6.455553e-02
6.690446e-02
6.921262e-02
7.140718e-02
7.337326e-02
7.495457e-02
7.597062e-02
7.625827e-02
7.573730e-02
7.448203e-02
7.276435e-02
0.000000e+00
6.670104e-03
1.360282e-02
2.075472e-02
2.802417e-02
3.528929e-02
4.244140e-02
4.940213e-02
5.612386e-02
6.258252e-02
6.876915e-02
7.468363e-02
8.033072e-02
8.571805e-02
9.085506e-02
9.575270e-02
1.004232e-01
1.048800e-01
1.091368e-01
1.132068e-01
1.171005e-01
1.208230e-01
1.243692e-01
1.277185e-01
1.308289e-01
1.336315e-01
1.360287e-01
1.379009e-01
1.391264e-01
1.396164e-01
1.393644e-01
1.384958e-01
1.372970e-01
0.000000e+00
1.014234e-02
2.071825e-02
3.163323e-02
4.269882e-02
5.370870e-02
6.449938e-02
7.496520e-02
8.504914e-02
9.472494e-02
1.039838e-01
1.128258e-01
1.212557e-01
1.292798e-01
1.369058e-01
1.441418e-01
1.509963e-01
1.574780e-01
1.635952e-01
1.693549e-01
1.747613e-01
1.798130e-01
1.845002e-01
1.888009e-01
1.926770e-01
1.960722e-01
1.989134e-01
2.011185e-01
2.026139e-01
2.033631e-01
2.034053e-01
2.028958e-01
2.021381e-01
0.000000e+00
1.380604e-02
2.826948e-02
4.319438e-02
5.823995e-02
7.310042e-02
8.757091e-02
1.015479e-01
1.149845e-01
1.278634e-01
1.401807e-01
1.519386e-01
1.631413e-01
1.737936e-01
1.838998e-01
1.934641e-01
2.024901e-01
2.109808e-01
2.189382e-01
2.263627e-01
2.332521e-01
2.396000e-01
2.453942e-01
2.506146e-01
2.552320e-01
2.592077e-01
2.624960e-01
2.650516e-01
2.668427e-01
2.678717e-01
2.682054e-01
2.680141e-01
2.676150e-01
0.000000e+00
1.779308e-02
3.656876e-02
5.585819e-02
7.510215e-02
9.387967e-02
1.120298e-01
1.294946e-01
1.462577e-01
1.623178e-01
1.776778e-01
1.923411e-01
2.063105e-01
2.195875e-01
2.321725e-01
2.440644e-01
2.552609e-01
2.657584e-01
2.755517e-01
2.846338e-01
2.929957e-01
3.006255e-01
3.075089e-01
3.136285e-01
3.189647e-01
3.234976e-01
3.272102e-01
3.300941e-01
3.321580e-01
3.334407e-01
3.340307e-01
3.341010e-01
3.339686e-01
0.000000e+00
2.242995e-02
4.617805e-02
7.035783e-02
9.385387e-02
1.164849e-01
1.382360e-01
1.591271e-01
1.791753e-01
1.983914e-01
2.167804e-01
2.343437e-01
2.510803e-01
2.669870e-01
2.820587e-01
2.962887e-01
3.096681e-01
3.221862e-01
3.338295e-01
3.445827e-01
3.544280e-01
3.633463e-01
3.713183e-01
3.783260e-01
3.843563e-01
3.894044e-01
3.934795e-01
3.966104e-01
3.988511e-01
4.002862e-01
4.010374e-01
4.012821e-01
4.013113e-01
0.000000e+00
2.827965e-02
5.884011e-02
8.765716e-02
1.150495e-01
1.412779e-01
1.664803e-01
1.907168e-01
2.140099e-01
2.363649e-01
2.577793e-01
2.782474e-01
2.977613e-01
3.163121e-01
3.338893e-01
3.504804e-01
3.660702e-01
3.806404e-01
3.941691e-01
4.066308e-01
4.179967e-01
4.282363e-01
4.373193e-01
4.452196e-01
4.519209e-01
4.574236e-01
4.617536e-01
4.649719e-01
4.671826e-01
4.685373e-01
4.692294e-01
4.694803e-01
4.695418e-01
0.000000e+00
4.217384e-02
7.652571e-02
1.083536e-01
1.389045e-01
1.684112e-01
1.969332e-01
2.244676e-01
2.509963e-01
2.764979e-01
3.009529e-01
3.243443e-01
3.466569e-01
3.678766e-01
3.879886e-01
4.069761e-01
4.248188e-01
4.414919e-01
4.569650e-01
4.712013e-01
4.841581e-01
4.957876e-01
5.060399e-01
5.148681e-01
5.222356e-01
5.281277e-01
5.325652e-01
5.356222e-01
5.374442e-01
5.382652e-01
5.384145e-01
5.382909e-01
5.382213e-01
0.000000e+00
-2.605444e-02
-4.547061e-02
-6.665834e-02
-9.025213e-02
-1.169037e-01
-1.467982e-01
-1.799876e-01
-2.164389e-01
-2.560739e-01
-2.987877e-01
-3.444592e-01
-3.929582e-01
-4.441491e-01
-4.978932e-01
-5.540514e-01
-6.124848e-01
-6.730575e-01
-7.356378e-01
-8.001018e-01
-8.663373e-01
-9.342500e-01
-1.003772e+00
-1.074877e+00
-1.147601e+00
-1.222078e+00
-1.298603e+00
-1.377756e+00
-1.460640e+00
-1.549443e+00
-1.648887e+00
-1.770109e+00
-1.937581e+00
0.000000e+00
-1.619184e-02
-3.651546e-02
-5.784611e-02
-8.176876e-02
-1.087099e-01
-1.388948e-01
-1.723748e-01
-2.091194e-01
-2.490507e-01
-2.920630e-01
-3.380344e-01
-3.868334e-01
-4.383234e-01
-4.923644e-01
-5.488158e-01
-6.075372e-01
-6.683904e-01
-7.312414e-01
-7.959630e-01
-8.624393e-01
-9.305709e-01
-1.000284e+00
-1.071545e+00
-1.144378e+00
-1.218907e+00
-1.295412e+00
-1.374452e+00
-1.457110e+00
-1.545537e+00
-1.644213e+00
-1.762736e+00
-1.919198e+00
0.000000e+00
-1.189384e-02
-2.943859e-02
-5.047826e-02
-7.444270e-02
-1.015823e-01
-1.320056e-01
-1.657406e-01
-2.027470e-01
-2.429428e-01
-2.862207e-01
-3.324577e-01
-3.815220e-01
-4.332761e-01
-4.875798e-01
-5.442918e-01
-6.032712e-01
-6.643788e-01
-7.274797e-01
-7.924458e-01
-8.591601e-01
-9.275226e-01
-9.974593e-01
-1.068937e+00
-1.141984e+00
-1.216730e+00
-1.293468e+00
-1.372771e+00
-1.455710e+00
-1.544220e+00
-1.641612e+00
-1.751797e+00
-1.874025e+00
0.000000e+00
-9.524082e-03
-2.492855e-02
-4.484628e-02
-6.850274e-02
-9.563393e-02
-1.261873e-01
-1.601114e-01
-1.973331e-01
-2.377556e-01
-2.812647e-01
-3.277344e-01
-3.770317e-01
-4.290190e-01
-4.835560e-01
-5.405020e-01
-5.997162e-01
-6.610604e-01
-7.244002e-01
-7.896086e-01
-8.565700e-01
-9.251869e-01
-9.953890e-01
-1.067148e+00
-1.140501e+00
-1.215581e+00
-1.292681e+00
-1.372328e+00
-1.455397e+00
-1.543165e+00
-1.636853e+00
-1.735665e+00
-1.827648e+00
0.000000e+00
-8.058940e-03
-2.197914e-02
-4.084690e-02
-6.396410e-02
-9.091740e-02
-1.214823e-01
-1.555166e-01
-1.928974e-01
-2.335024e-01
-2.772049e-01
-3.238729e-01
-3.733711e-01
-4.255614e-01
-4.803042e-01
-5.374596e-01
-5.968884e-01
-6.584537e-01
-7.220231e-01
-7.874717e-01
-8.546866e-01
-9.235731e-01
-9.940640e-01
-1.066133e+00
-1.139813e+00
-1.215224e+00
-1.292601e+00
-1.372326e+00
-1.454902e+00
-1.540733e+00
-1.629410e+00
-1.717677e+00
-1.797785e+00
0.000000e+00
-7.126656e-03
-2.004396e-02
-3.809470e-02
-6.069153e-02
-8.739235e-02
-1.178908e-01
-1.519686e-01
-1.894541e-01
-2.301960e-01
-2.740516e-01
-3.208815e-01
-3.705469e-01
-4.229090e-01
-4.778290e-01
-5.351684e-01
-5.947897e-01
-6.565581e-01
-7.203434e-01
-7.860227e-01
-8.534845e-01
-9.226348e-01
-9.934044e-01
-1.065759e+00
-1.139712e+00
-1.215333e+00
-1.292757e+00
-1.372151e+00
-1.453606e+00
-1.536848e+00
-1.620608e+00
-1.701895e+00
-1.776190e+00
0.000000e+00
-6.547253e-03
-1.882044e-02
-3.630572e-02
-5.849914e-02
-8.496988e-02
-1.153777e-01
-1.494599e-01
-1.870072e-01
-2.278438e-01
-2.718124e-01
-3.187659e-01
-3.685624e-01
-4.210626e-01
-4.761284e-01
-5.336228e-01
-5.934103e-01
-6.553579e-01
-7.193369e-01
-7.852251e-01
-8.529102e-01
-9.222943e-01
-9.932990e-01
-1.065871e+00
-1.139984e+00
-1.215641e+00
-1.292848e+00
-1.371561e+00
-1.451552e+00
-1.532171e+00
-1.612023e+00
-1.688806e+00
-1.759698e+00
0.000000e+00
-6.228863e-03
-1.814154e-02
-3.529759e-02
-5.724200e-02
-8.355881e-02
-1.138969e-01
-1.479715e-01
-1.855523e-01
-2.264475e-01
-2.704900e-01
-3.175279e-01
-3.674171e-01
-4.200183e-01
-4.751944e-01
-5.328101e-01
-5.927313e-01
-6.548263e-01
-7.189668e-01
-7.850293e-01
-8.528976e-01
-9.224650e-01
-9.936370e-01
-1.066331e+00
-1.140475e+00
-1.215993e+00
-1.292772e+00
-1.370604e+00
-1.449073e+00
-1.527408e+00
-1.604351e+00
-1.678169e+00
-1.746938e+00
0.000000e+00
-6.126278e-03
-1.792251e-02
-3.497084e-02
-5.683228e-02
-8.309699e-02
-1.134118e-01
-1.474859e-01
-1.850825e-01
-2.260050e-01
-2.700837e-01
-3.171653e-01
-3.671062e-01
-4.197679e-01
-4.750146e-01
-5.327124e-01
-5.927283e-01
-6.549311e-01
-7.191914e-01
-7.853824e-01
-8.533811e-01
-9.230683e-01
-9.943285e-01
-1.067046e+00
-1.141099e+00
-1.216340e+00
-1.292564e+00
-1.369457e+00
-1.446523e+00
-1.523002e+00
-1.597830e+00
-1.669685e+00
-1.737158e+00
0.000000e+00
-6.225895e-03
-1.813742e-02
-3.529404e-02
-5.724093e-02
-8.356257e-02
-1.139086e-01
-1.479953e-01
-1.855936e-01
-2.265134e-01
-2.705899e-01
-3.176732e-01
-3.676222e-01
-4.203004e-01
-4.755738e-01
-5.333094e-01
-5.933751e-01
-6.556390e-01
-7.199695e-01
-7.862352e-01
-8.543039e-01
-9.240420e-01
-9.953110e-01
-1.067963e+00
-1.141829e+00
-1.216705e+00
-1.292323e+00
-1.368314e+00
-1.444166e+00
-1.519188e+00
-1.592504e+00
-1.663090e+00
-1.729869e+00
0.000000e+00
-6.541559e-03
-1.881254e-02
-3.629888e-02
-5.849700e-02
-8.497695e-02
-1.154000e-01
-1.495052e-01
-1.870861e-01
-2.279700e-01
-2.720036e-01
-3.190443e-01
-3.689556e-01
-4.216036e-01
-4.768561e-01
-5.345811e-01
-5.946465e-01
-6.569193e-01
-7.212650e-01
-7.875463e-01
-8.556217e-01
-9.253423e-01
-9.965480e-01
-1.069061e+00
-1.142675e+00
-1.217144e+00
-1.292160e+00
-1.367333e+00
-1.442173e+00
-1.516074e+00
-1.588326e+00
-1.658143e+00
-1.724696e+00
0.000000e+00
-7.118742e-03
-2.003297e-02
-3.808516e-02
-6.068844e-02
-8.740203e-02
-1.179215e-01
-1.520316e-01
-1.895640e-01
-2.303720e-01
-2.743185e-01
-3.212704e-01
-3.710964e-01
-4.236656e-01
-4.788473e-01
-5.365101e-01
-5.965216e-01
-6.587473e-01
-7.230494e-01
-7.892851e-01
-8.573036e-01
-9.269424e-01
-9.980226e-01
-1.070342e+00
-1.143666e+00
-1.217719e+00
-1.292170e+00
-1.366631e+00
-1.440642e+00
-1.513689e+00
-1.585208e+00
-1.654614e+00
-1.721304e+00
0.000000e+00
-8.049617e-03
-2.196621e-02
-4.083565e-02
-6.396052e-02
-9.092912e-02
-1.215194e-01
-1.555925e-01
-1.930300e-01
-2.337150e-01
-2.775273e-01
-3.243430e-01
-3.740356e-01
-4.264767e-01
-4.815364e-01
-5.390838e-01
-5.989856e-01
-6.611059e-01
-7.253040e-01
-7.914319e-01
-8.593311e-01
-9.288284e-01
-9.997299e-01
-1.071815e+00
-1.144830e+00
-1.218479e+00
-1.292422e+00
-1.366276e+00
-1.439620e+00
-1.512015e+00
-1.583031e+00
-1.652271e+00
-1.719363e+00
0.000000e+00
-9.514500e-03
-2.491527e-02
-4.483484e-02
-6.849967e-02
-9.564768e-02
-1.262291e-01
-1.601962e-01
-1.974806e-01
-2.379916e-01
-2.816221e-01
-3.282551e-01
-3.777671e-01
-4.300311e-01
-4.849179e-01
-5.422961e-01
-6.020319e-01
-6.639877e-01
-7.280205e-01
-7.939785e-01
-8.616977e-01
-9.309968e-01
-1.001672e+00
-1.073491e+00
-1.146187e+00
-1.219454e+00
-1.292949e+00
-1.366295e+00
-1.439104e+00
-1.511000e+00
-1.581662e+00
-1.650872e+00
-1.718517e+00
0.000000e+00
-1.188549e-02
-2.942696e-02
-5.046861e-02
-7.444179e-02
-1.015991e-01
-1.320517e-01
-1.658318e-01
-2.029037e-01
-2.431917e-01
-2.865959e-01
-3.330023e-01
-3.822889e-01
-4.343290e-01
-4.889931e-01
-5.461495e-01
-6.056636e-01
-6.673965e-01
-7.312034e-01
-7.969298e-01
-8.644082e-01
-9.334530e-01
-1.003855e+00
-1.075375e+00
-1.147741e+00
-1.220644e+00
-1.293741e+00
-1.366664e+00
-1.439046e+00
-1.510555e+00
-1.580953e+00
-1.650169e+00
-1.718369e+00
0.000000e+00
-1.618647e-02
-3.650755e-02
-5.784043e-02
-8.177228e-02
-1.087317e-01
-1.389469e-01
-1.724726e-01
-2.092836e-01
-2.493076e-01
-2.924463e-01
-3.385862e-01
-3.876055e-01
-4.393772e-01
-4.937716e-01
-5.506561e-01
-6.098951e-01
-6.713488e-01
-7.348709e-01
-8.003052e-01
-8.674823e-01
-9.362145e-01
-1.006291e+00
-1.077471e+00
-1.149482e+00
-1.222018e+00
-1.294741e+00
-1.367295e+00
-1.439328e+00
-1.510534e+00
-1.580722e+00
-1.649915e+00
-1.718495e+00
0.000000e+00
-2.605367e-02
-4.546798e-02
-6.665884e-02
-9.026277e-02
-1.169336e-01
-1.468593e-01
-1.800955e-01
-2.166135e-01
-2.563409e-01
-2.991795e-01
-3.450160e-01
-3.937287e-01
-4.451905e-01
-4.992712e-01
-5.558374e-01
-6.147526e-01
-6.758755e-01
-7.390581e-01
-8.041429e-01
-8.709587e-01
-9.393167e-01
-1.009006e+00