TITLE = "Solution"
VARIABLES = x, y, u, v, psiu, psiv, t, stress
ZONE T="structure" N=561 E=512 F=FEBLOCK ET=QUADRILATERAL VARLOCATION=([7,8]=cellcentered)
0.000000e+00
6.250000e+00
1.250000e+01
1.875000e+01
2.500000e+01
3.125000e+01
3.750000e+01
4.375000e+01
5.000000e+01
5.625000e+01
6.250000e+01
6.875000e+01
7.500000e+01
8.125000e+01
8.750000e+01
9.375000e+01
1.000000e+02
1.062500e+02
1.125000e+02
1.187500e+02
1.250000e+02
1.312500e+02
1.375000e+02
1.437500e+02
1.500000e+02
1.562500e+02
1.625000e+02
1.687500e+02
1.750000e+02
1.812500e+02
1.875000e+02
1.937500e+02
2.000000e+02
0.000000e+00
6.250000e+00
1.250000e+01
1.875000e+01
2.500000e+01
3.125000e+01
3.750000e+01
4.375000e+01
5.000000e+01
5.625000e+01
6.250000e+01
6.875000e+01
7.500000e+01
8.125000e+01
8.750000e+01
9.375000e+01
1.000000e+02
1.062500e+02
1.125000e+02
1.187500e+02
1.250000e+02
1.312500e+02
1.375000e+02
1.437500e+02
1.500000e+02
1.562500e+02
1.625000e+02
1.687500e+02
1.750000e+02
1.812500e+02
1.875000e+02
1.937500e+02
2.000000e+02
0.000000e+00
6.250000e+00
1.250000e+01
1.875000e+01
2.500000e+01
3.125000e+01
3.750000e+01
4.375000e+01
5.000000e+01
5.625000e+01
6.250000e+01
6.875000e+01
7.500000e+01
8.125000e+01
8.750000e+01
9.375000e+01
1.000000e+02
1.062500e+02
1.125000e+02
1.187500e+02
1.250000e+02
1.312500e+02
1.375000e+02
1.437500e+02
1.500000e+02
1.562500e+02
1.625000e+02
1.687500e+02
1.750000e+02
1.812500e+02
1.875000e+02
1.937500e+02
2.000000e+02
0.000000e+00
6.250000e+00
1.250000e+01
1.875000e+01
2.500000e+01
3.125000e+01
3.750000e+01
4.375000e+01
5.000000e+01
5.625000e+01
6.250000e+01
6.875000e+01
7.500000e+01
8.125000e+01
8.750000e+01
9.375000e+01
1.000000e+02
1.062500e+02
1.125000e+02
1.187500e+02
1.250000e+02
1.312500e+02
1.375000e+02
1.437500e+02
1.500000e+02
1.562500e+02
1.625000e+02
1.687500e+02
1.750000e+02
1.812500e+02
1.875000e+02
1.937500e+02
2.000000e+02
0.000000e+00
6.250000e+00
1.250000e+01
1.875000e+01
2.500000e+01
3.125000e+01
3.750000e+01
4.375000e+01
5.000000e+01
5.625000e+01
6.250000e+01
6.875000e+01
7.500000e+01
8.125000e+01
8.750000e+01
9.375000e+01
1.000000e+02
1.062500e+02
1.125000e+02
1.187500e+02
1.250000e+02
1.312500e+02
1.375000e+02
1.437500e+02
1.500000e+02
1.562500e+02
1.625000e+02
1.687500e+02
1.750000e+02
1.812500e+02
1.875000e+02
1.937500e+02
2.000000e+02
0.000000e+00
6.250000e+00
1.250000e+01
1.875000e+01
2.500000e+01
3.125000e+01
3.750000e+01
4.375000e+01
5.000000e+01
5.625000e+01
6.250000e+01
6.875000e+01
7.500000e+01
8.125000e+01
8.750000e+01
9.375000e+01
1.000000e+02
1.062500e+02
1.125000e+02
1.187500e+02
1.250000e+02
1.312500e+02
1.375000e+02
1.437500e+02
1.500000e+02
1.562500e+02
1.625000e+02
1.687500e+02
1.750000e+02
1.812500e+02
1.875000e+02
1.937500e+02
2.000000e+02
0.000000e+00
6.250000e+00
1.250000e+01
1.875000e+01
2.500000e+01
3.125000e+01
3.750000e+01
4.375000e+01
5.000000e+01
5.625000e+01
6.250000e+01
6.875000e+01
7.500000e+01
8.125000e+01
8.750000e+01
9.375000e+01
1.000000e+02
1.062500e+02
1.125000e+02
1.187500e+02
1.250000e+02
1.312500e+02
1.375000e+02
1.437500e+02
1.500000e+02
1.562500e+02
1.625000e+02
1.687500e+02
1.750000e+02
1.812500e+02
1.875000e+02
1.937500e+02
2.000000e+02
0.000000e+00
6.250000e+00
1.250000e+01
1.875000e+01
2.500000e+01
3.125000e+01
3.750000e+01
4.375000e+01
5.000000e+01
5.625000e+01
6.250000e+01
6.875000e+01
7.500000e+01
8.125000e+01
8.750000e+01
9.375000e+01
1.000000e+02
1.062500e+02
1.125000e+02
1.187500e+02
1.250000e+02
1.312500e+02
1.375000e+02
1.437500e+02
1.500000e+02
1.562500e+02
1.625000e+02
1.687500e+02
1.750000e+02
1.812500e+02
1.875000e+02
1.937500e+02
2.000000e+02
0.000000e+00
6.250000e+00
1.250000e+01
1.875000e+01
2.500000e+01
3.125000e+01
3.750000e+01
4.375000e+01
5.000000e+01
5.625000e+01
6.250000e+01
6.875000e+01
7.500000e+01
8.125000e+01
8.750000e+01
9.375000e+01
1.000000e+02
1.062500e+02
1.125000e+02
1.187500e+02
1.250000e+02
1.312500e+02
1.375000e+02
1.437500e+02
1.500000e+02
1.562500e+02
1.625000e+02
1.687500e+02
1.750000e+02
1.812500e+02
1.875000e+02
1.937500e+02
2.000000e+02
0.000000e+00
6.250000e+00
1.250000e+01
1.875000e+01
2.500000e+01
3.125000e+01
3.750000e+01
4.375000e+01
5.000000e+01
5.625000e+01
6.250000e+01
6.875000e+01
7.500000e+01
8.125000e+01
8.750000e+01
9.375000e+01
1.000000e+02
1.062500e+02
1.125000e+02
1.187500e+02
1.250000e+02
1.312500e+02
1.375000e+02
1.437500e+02
1.500000e+02
1.562500e+02
1.625000e+02
1.687500e+02
1.750000e+02
1.812500e+02
1.875000e+02
1.937500e+02
2.000000e+02
0.000000e+00
6.250000e+00
1.250000e+01
1.875000e+01
2.500000e+01
3.125000e+01
3.750000e+01
4.375000e+01
5.000000e+01
5.625000e+01
6.250000e+01
6.875000e+01
7.500000e+01
8.125000e+01
8.750000e+01
9.375000e+01
1.000000e+02
1.062500e+02
1.125000e+02
1.187500e+02
1.250000e+02
1.312500e+02
1.375000e+02
1.437500e+02
1.500000e+02
1.562500e+02
1.625000e+02
1.687500e+02
1.750000e+02
1.812500e+02
1.875000e+02
1.937500e+02
2.000000e+02
0.000000e+00
6.250000e+00
1.250000e+01
1.875000e+01
2.500000e+01
3.125000e+01
3.750000e+01
4.375000e+01
5.000000e+01
5.625000e+01
6.250000e+01
6.875000e+01
7.500000e+01
8.125000e+01
8.750000e+01
9.375000e+01
1.000000e+02
1.062500e+02
1.125000e+02
1.187500e+02
1.250000e+02
1.312500e+02
1.375000e+02
1.437500e+02
1.500000e+02
1.562500e+02
1.625000e+02
1.687500e+02
1.750000e+02
1.812500e+02
1.875000e+02
1.937500e+02
2.000000e+02
0.000000e+00
6.250000e+00
1.250000e+01
1.875000e+01
2.500000e+01
3.125000e+01
3.750000e+01
4.375000e+01
5.000000e+01
5.625000e+01
6.250000e+01
6.875000e+01
7.500000e+01
8.125000e+01
8.750000e+01
9.375000e+01
1.000000e+02
1.062500e+02
1.125000e+02
1.187500e+02
1.250000e+02
1.312500e+02
1.375000e+02
1.437500e+02
1.500000e+02
1.562500e+02
1.625000e+02
1.687500e+02
1.750000e+02
1.812500e+02
1.875000e+02
1.937500e+02
2.000000e+02
0.000000e+00
6.250000e+00
1.250000e+01
1.875000e+01
2.500000e+01
3.125000e+01
3.750000e+01
4.375000e+01
5.000000e+01
5.625000e+01
6.250000e+01
6.875000e+01
7.500000e+01
8.125000e+01
8.750000e+01
9.375000e+01
1.000000e+02
1.062500e+02
1.125000e+02
1.187500e+02
1.250000e+02
1.312500e+02
1.375000e+02
1.437500e+02
1.500000e+02
1.562500e+02
1.625000e+02
1.687500e+02
1.750000e+02
1.812500e+02
1.875000e+02
1.937500e+02
2.000000e+02
0.000000e+00
6.250000e+00
1.250000e+01
1.875000e+01
2.500000e+01
3.125000e+01
3.750000e+01
4.375000e+01
5.000000e+01
5.625000e+01
6.250000e+01
6.875000e+01
7.500000e+01
8.125000e+01
8.750000e+01
9.375000e+01
1.000000e+02
1.062500e+02
1.125000e+02
1.187500e+02
1.250000e+02
1.312500e+02
1.375000e+02
1.437500e+02
1.500000e+02
1.562500e+02
1.625000e+02
1.687500e+02
1.750000e+02
1.812500e+02
1.875000e+02
1.937500e+02
2.000000e+02
0.000000e+00
6.250000e+00
1.250000e+01
1.875000e+01
2.500000e+01
3.125000e+01
3.750000e+01
4.375000e+01
5.000000e+01
5.625000e+01
6.250000e+01
6.875000e+01
7.500000e+01
8.125000e+01
8.750000e+01
9.375000e+01
1.000000e+02
1.062500e+02
1.125000e+02
1.187500e+02
1.250000e+02
1.312500e+02
1.375000e+02
1.437500e+02
1.500000e+02
1.562500e+02
1.625000e+02
1.687500e+02
1.750000e+02
1.812500e+02
1.875000e+02
1.937500e+02
2.000000e+02
0.000000e+00
6.250000e+00
1.250000e+01
1.875000e+01
2.500000e+01
3.125000e+01
3.750000e+01
4.375000e+01
5.000000e+01
5.625000e+01
6.250000e+01
6.875000e+01
7.500000e+01
8.125000e+01
8.750000e+01
9.375000e+01
1.000000e+02
1.062500e+02
1.125000e+02
1.187500e+02
1.250000e+02
1.312500e+02
1.375000e+02
1.437500e+02
1.500000e+02
1.562500e+02
1.625000e+02
1.687500e+02
1.750000e+02
1.812500e+02
1.875000e+02
1.937500e+02
2.000000e+02
0.000000e+00
0.000000e+00
0.000000e+00
0.000000e+00
0.000000e+00
0.000000e+00
0.000000e+00
0.000000e+00
0.000000e+00
0.000000e+00
0.000000e+00
0.000000e+00
0.000000e+00
0.000000e+00
0.000000e+00
0.000000e+00
0.000000e+00
0.000000e+00
0.000000e+00
0.000000e+00
0.000000e+00
0.000000e+00
0.000000e+00
0.000000e+00
0.000000e+00
0.000000e+00
0.000000e+00
0.000000e+00
0.000000e+00
0.000000e+00
0.000000e+00
0.000000e+00
0.000000e+00
6.250000e+00
6.250000e+00
6.250000e+00
6.250000e+00
6.250000e+00
6.250000e+00
6.250000e+00
6.250000e+00
6.250000e+00
6.250000e+00
6.250000e+00
6.250000e+00
6.250000e+00
6.250000e+00
6.250000e+00
6.250000e+00
6.250000e+00
6.250000e+00
6.250000e+00
6.250000e+00
6.250000e+00
6.250000e+00
6.250000e+00
6.250000e+00
6.250000e+00
6.250000e+00
6.250000e+00
6.250000e+00
6.250000e+00
6.250000e+00
6.250000e+00
6.250000e+00
6.250000e+00
1.250000e+01
1.250000e+01
1.250000e+01
1.250000e+01
1.250000e+01
1.250000e+01
1.250000e+01
1.250000e+01
1.250000e+01
1.250000e+01
1.250000e+01
1.250000e+01
1.250000e+01
1.250000e+01
1.250000e+01
1.250000e+01
1.250000e+01
1.250000e+01
1.250000e+01
1.250000e+01
1.250000e+01
1.250000e+01
1.250000e+01
1.250000e+01
1.250000e+01
1.250000e+01
1.250000e+01
1.250000e+01
1.250000e+01
1.250000e+01
1.250000e+01
1.250000e+01
1.250000e+01
1.875000e+01
1.875000e+01
1.875000e+01
1.875000e+01
1.875000e+01
1.875000e+01
1.875000e+01
1.875000e+01
1.875000e+01
1.875000e+01
1.875000e+01
1.875000e+01
1.875000e+01
1.875000e+01
1.875000e+01
1.875000e+01
1.875000e+01
1.875000e+01
1.875000e+01
1.875000e+01
1.875000e+01
1.875000e+01
1.875000e+01
1.875000e+01
1.875000e+01
1.875000e+01
1.875000e+01
1.875000e+01
1.875000e+01
1.875000e+01
1.875000e+01
1.875000e+01
1.875000e+01
2.500000e+01
2.500000e+01
2.500000e+01
2.500000e+01
2.500000e+01
2.500000e+01
2.500000e+01
2.500000e+01
2.500000e+01
2.500000e+01
2.500000e+01
2.500000e+01
2.500000e+01
2.500000e+01
2.500000e+01
2.500000e+01
2.500000e+01
2.500000e+01
2.500000e+01
2.500000e+01
2.500000e+01
2.500000e+01
2.500000e+01
2.500000e+01
2.500000e+01
2.500000e+01
2.500000e+01
2.500000e+01
2.500000e+01
2.500000e+01
2.500000e+01
2.500000e+01
2.500000e+01
3.125000e+01
3.125000e+01
3.125000e+01
3.125000e+01
3.125000e+01
3.125000e+01
3.125000e+01
3.125000e+01
3.125000e+01
3.125000e+01
3.125000e+01
3.125000e+01
3.125000e+01
3.125000e+01
3.125000e+01
3.125000e+01
3.125000e+01
3.125000e+01
3.125000e+01
3.125000e+01
3.125000e+01
3.125000e+01
3.125000e+01
3.125000e+01
3.125000e+01
3.125000e+01
3.125000e+01
3.125000e+01
3.125000e+01
3.125000e+01
3.125000e+01
3.125000e+01
3.125000e+01
3.750000e+01
3.750000e+01
3.750000e+01
3.750000e+01
3.750000e+01
3.750000e+01
3.750000e+01
3.750000e+01
3.750000e+01
3.750000e+01
3.750000e+01
3.750000e+01
3.750000e+01
3.750000e+01
3.750000e+01
3.750000e+01
3.750000e+01
3.750000e+01
3.750000e+01
3.750000e+01
3.750000e+01
3.750000e+01
3.750000e+01
3.750000e+01
3.750000e+01
3.750000e+01
3.750000e+01
3.750000e+01
3.750000e+01
3.750000e+01
3.750000e+01
3.750000e+01
3.750000e+01
4.375000e+01
4.375000e+01
4.375000e+01
4.375000e+01
4.375000e+01
4.375000e+01
4.375000e+01
4.375000e+01
4.375000e+01
4.375000e+01
4.375000e+01
4.375000e+01
4.375000e+01
4.375000e+01
4.375000e+01
4.375000e+01
4.375000e+01
4.375000e+01
4.375000e+01
4.375000e+01
4.375000e+01
4.375000e+01
4.375000e+01
4.375000e+01
4.375000e+01
4.375000e+01
4.375000e+01
4.375000e+01
4.375000e+01
4.375000e+01
4.375000e+01
4.375000e+01
4.375000e+01
5.000000e+01
5.000000e+01
5.000000e+01
5.000000e+01
5.000000e+01
5.000000e+01
5.000000e+01
5.000000e+01
5.000000e+01
5.000000e+01
5.000000e+01
5.000000e+01
5.000000e+01
5.000000e+01
5.000000e+01
5.000000e+01
5.000000e+01
5.000000e+01
5.000000e+01
5.000000e+01
5.000000e+01
5.000000e+01
5.000000e+01
5.000000e+01
5.000000e+01
5.000000e+01
5.000000e+01
5.000000e+01
5.000000e+01
5.000000e+01
5.000000e+01
5.000000e+01
5.000000e+01
5.625000e+01
5.625000e+01
5.625000e+01
5.625000e+01
5.625000e+01
5.625000e+01
5.625000e+01
5.625000e+01
5.625000e+01
5.625000e+01
5.625000e+01
5.625000e+01
5.625000e+01
5.625000e+01
5.625000e+01
5.625000e+01
5.625000e+01
5.625000e+01
5.625000e+01
5.625000e+01
5.625000e+01
5.625000e+01
5.625000e+01
5.625000e+01
5.625000e+01
5.625000e+01
5.625000e+01
5.625000e+01
5.625000e+01
5.625000e+01
5.625000e+01
5.625000e+01
5.625000e+01
6.250000e+01
6.250000e+01
6.250000e+01
6.250000e+01
6.250000e+01
6.250000e+01
6.250000e+01
6.250000e+01
6.250000e+01
6.250000e+01
6.250000e+01
6.250000e+01
6.250000e+01
6.250000e+01
6.250000e+01
6.250000e+01
6.250000e+01
6.250000e+01
6.250000e+01
6.250000e+01
6.250000e+01
6.250000e+01
6.250000e+01
6.250000e+01
6.250000e+01
6.250000e+01
6.250000e+01
6.250000e+01
6.250000e+01
6.250000e+01
6.250000e+01
6.250000e+01
6.250000e+01
6.875000e+01
6.875000e+01
6.875000e+01
6.875000e+01
6.875000e+01
6.875000e+01
6.875000e+01
6.875000e+01
6.875000e+01
6.875000e+01
6.875000e+01
6.875000e+01
6.875000e+01
6.875000e+01
6.875000e+01
6.875000e+01
6.875000e+01
6.875000e+01
6.875000e+01
6.875000e+01
6.875000e+01
6.875000e+01
6.875000e+01
6.875000e+01
6.875000e+01
6.875000e+01
6.875000e+01
6.875000e+01
6.875000e+01
6.875000e+01
6.875000e+01
6.875000e+01
6.875000e+01
7.500000e+01
7.500000e+01
7.500000e+01
7.500000e+01
7.500000e+01
7.500000e+01
7.500000e+01
7.500000e+01
7.500000e+01
7.500000e+01
7.500000e+01
7.500000e+01
7.500000e+01
7.500000e+01
7.500000e+01
7.500000e+01
7.500000e+01
7.500000e+01
7.500000e+01
7.500000e+01
7.500000e+01
7.500000e+01
7.500000e+01
7.500000e+01
7.500000e+01
7.500000e+01
7.500000e+01
7.500000e+01
7.500000e+01
7.500000e+01
7.500000e+01
7.500000e+01
7.500000e+01
8.125000e+01
8.125000e+01
8.125000e+01
8.125000e+01
8.125000e+01
8.125000e+01
8.125000e+01
8.125000e+01
8.125000e+01
8.125000e+01
8.125000e+01
8.125000e+01
8.125000e+01
8.125000e+01
8.125000e+01
8.125000e+01
8.125000e+01
8.125000e+01
8.125000e+01
8.125000e+01
8.125000e+01
8.125000e+01
8.125000e+01
8.125000e+01
8.125000e+01
8.125000e+01
8.125000e+01
8.125000e+01
8.125000e+01
8.125000e+01
8.125000e+01
8.125000e+01
8.125000e+01
8.750000e+01
8.750000e+01
8.750000e+01
8.750000e+01
8.750000e+01
8.750000e+01
8.750000e+01
8.750000e+01
8.750000e+01
8.750000e+01
8.750000e+01
8.750000e+01
8.750000e+01
8.750000e+01
8.750000e+01
8.750000e+01
8.750000e+01
8.750000e+01
8.750000e+01
8.750000e+01
8.750000e+01
8.750000e+01
8.750000e+01
8.750000e+01
8.750000e+01
8.750000e+01
8.750000e+01
8.750000e+01
8.750000e+01
8.750000e+01
8.750000e+01
8.750000e+01
8.750000e+01
9.375000e+01
9.375000e+01
9.375000e+01
9.375000e+01
9.375000e+01
9.375000e+01
9.375000e+01
9.375000e+01
9.375000e+01
9.375000e+01
9.375000e+01
9.375000e+01
9.375000e+01
9.375000e+01
9.375000e+01
9.375000e+01
9.375000e+01
9.375000e+01
9.375000e+01
9.375000e+01
9.375000e+01
9.375000e+01
9.375000e+01
9.375000e+01
9.375000e+01
9.375000e+01
9.375000e+01
9.375000e+01
9.375000e+01
9.375000e+01
9.375000e+01
9.375000e+01
9.375000e+01
1.000000e+02
1.000000e+02
1.000000e+02
1.000000e+02
1.000000e+02
1.000000e+02
1.000000e+02
1.000000e+02
1.000000e+02
1.000000e+02
1.000000e+02
1.000000e+02
1.000000e+02
1.000000e+02
1.000000e+02
1.000000e+02
1.000000e+02
1.000000e+02
1.000000e+02
1.000000e+02
1.000000e+02
1.000000e+02
1.000000e+02
1.000000e+02
1.000000e+02
1.000000e+02
1.000000e+02
1.000000e+02
1.000000e+02
1.000000e+02
1.000000e+02
1.000000e+02
1.000000e+02
0.000000e+00
-5.215384e-02
-9.462619e-02
-1.339708e-01
-1.717307e-01
-2.081935e-01
-2.434326e-01
-2.774448e-01
-3.102087e-01
-3.417004e-01
-3.719003e-01
-4.007947e-01
-4.283765e-01
-4.546452e-01
-4.796069e-01
-5.032748e-01
-5.256701e-01
-5.468235e-01
-5.667776e-01
-5.855899e-01
-6.033367e-01
-6.201192e-01
-6.360712e-01
-6.513701e-01
-6.662533e-01
-6.810440e-01
-6.961905e-01
-7.123327e-01
-7.304086e-01
-7.517994e-01
-7.782961e-01
-8.098728e-01
-8.291437e-01
0.000000e+00
-3.496774e-02
-7.275413e-02
-1.083817e-01
-1.422444e-01
-1.746646e-01
-2.058135e-01
-2.357663e-01
-2.645527e-01
-2.921823e-01
-3.186572e-01
-3.439772e-01
-3.681435e-01
-3.911601e-01
-4.130347e-01
-4.337793e-01
-4.534116e-01
-4.719560e-01
-4.894444e-01
-5.059187e-01
-5.214321e-01
-5.360517e-01
-5.498607e-01
-5.629611e-01
-5.754746e-01
-5.875413e-01
-5.993090e-01
-6.108995e-01
-6.223120e-01
-6.331752e-01
-6.422272e-01
-6.475193e-01
-6.548870e-01
0.000000e+00
-2.773649e-02
-5.710223e-02
-8.700123e-02
-1.160538e-01
-1.440358e-01
-1.709293e-01
-1.967597e-01
-2.215499e-01
-2.453156e-01
-2.680668e-01
-2.898106e-01
-3.105530e-01
-3.303002e-01
-3.490595e-01
-3.668399e-01
-3.836531e-01
-3.995135e-01
-4.144389e-01
-4.284507e-01
-4.415733e-01
-4.538333e-01
-4.652567e-01
-4.758640e-01
-4.856592e-01
-4.946109e-01
-5.026168e-01
-5.094412e-01
-5.146225e-01
-5.174125e-01
-5.171679e-01
-5.156013e-01
-5.242047e-01
0.000000e+00
-2.200644e-02
-4.522826e-02
-6.908578e-02
-9.288741e-02
-1.161125e-01
-1.385622e-01
-1.601652e-01
-1.809021e-01
-2.007720e-01
-2.197802e-01
-2.379329e-01
-2.552364e-01
-2.716959e-01
-2.873164e-01
-3.021024e-01
-3.160577e-01
-3.291861e-01
-3.414902e-01
-3.529708e-01
-3.636248e-01
-3.734425e-01
-3.824022e-01
-3.904622e-01
-3.975479e-01
-4.035345e-01
-4.082236e-01
-4.113289e-01
-4.125145e-01
-4.116344e-01
-4.094967e-01
-4.093690e-01
-4.175659e-01
0.000000e+00
-1.708007e-02
-3.497417e-02
-5.343989e-02
-7.205563e-02
-9.044306e-02
-1.083485e-01
-1.256434e-01
-1.422695e-01
-1.582042e-01
-1.734417e-01
-1.879829e-01
-2.018303e-01
-2.149864e-01
-2.274520e-01
-2.392259e-01
-2.503046e-01
-2.606814e-01
-2.703455e-01
-2.792807e-01
-2.874630e-01
-2.948575e-01
-3.014136e-01
-3.070592e-01
-3.116946e-01
-3.151886e-01
-3.173872e-01
-3.181585e-01
-3.175258e-01
-3.159775e-01
-3.149731e-01
-3.172926e-01
-3.242849e-01
0.000000e+00
-1.255286e-02
-2.564354e-02
-3.915478e-02
-5.285313e-02
-6.648289e-02
-7.984105e-02
-9.279567e-02
-1.052743e-01
-1.172418e-01
-1.286832e-01
-1.395934e-01
-1.499703e-01
-1.598123e-01
-1.691156e-01
-1.778735e-01
-1.860757e-01
-1.937071e-01
-2.007472e-01
-2.071683e-01
-2.129344e-01
-2.179986e-01
-2.223018e-01
-2.257718e-01
-2.283262e-01
-2.298849e-01
-2.304020e-01
-2.299379e-01
-2.287942e-01
-2.277059e-01
-2.279709e-01
-2.309279e-01
-2.367135e-01
0.000000e+00
-8.261293e-03
-1.684936e-02
-2.570986e-02
-3.471646e-02
-4.371754e-02
-5.257737e-02
-6.119699e-02
-6.951449e-02
-7.749569e-02
-8.512334e-02
-9.238874e-02
-9.928634e-02
-1.058104e-01
-1.119530e-01
-1.177030e-01
-1.230448e-01
-1.279579e-01
-1.324160e-01
-1.363861e-01
-1.398285e-01
-1.426964e-01
-1.449377e-01
-1.464996e-01
-1.473388e-01
-1.474429e-01
-1.468691e-01
-1.458073e-01
-1.446616e-01
-1.441062e-01
-1.449727e-01
-1.478516e-01
-1.525219e-01
0.000000e+00
-4.103382e-03
-8.361896e-03
-1.275366e-02
-1.722319e-02
-2.169990e-02
-2.611674e-02
-3.042122e-02
-3.457790e-02
-3.856513e-02
-4.237008e-02
-4.598426e-02
-4.940026e-02
-5.260962e-02
-5.560141e-02
-5.836125e-02
-6.087063e-02
-6.310639e-02
-6.504041e-02
-6.663977e-02
-6.786749e-02
-6.868469e-02
-6.905488e-02
-6.895192e-02
-6.837377e-02
-6.736456e-02
-6.604643e-02
-6.465755e-02
-6.357937e-02
-6.330928e-02
-6.432590e-02
-6.683735e-02
-7.054313e-02
0.000000e+00
-6.620483e-06
-1.435508e-05
-2.277532e-05
-3.143830e-05
-3.974682e-05
-4.680090e-05
-5.123289e-05
-5.101480e-05
-4.322644e-05
-2.377537e-05
1.293599e-05
7.439582e-05
1.704123e-04
3.135666e-04
5.196493e-04
8.080149e-04
1.201741e-03
1.727425e-03
2.414344e-03
3.292604e-03
4.389678e-03
5.724599e-03
7.298815e-03
9.082835e-03
1.099851e-02
1.289918e-02
1.455510e-02
1.566050e-02
1.588467e-02
1.498206e-02
1.293794e-02
1.007505e-02
0.000000e+00
4.090912e-03
8.334803e-03
1.271058e-02
1.716360e-02
2.162434e-02
2.602744e-02
3.032295e-02
3.447922e-02
3.848005e-02
4.232029e-02
4.600194e-02
4.953170e-02
5.291956e-02
5.617832e-02
5.932347e-02
6.237318e-02
6.534814e-02
6.827104e-02
7.116524e-02
7.405237e-02
7.694833e-02
7.985723e-02
8.276294e-02
8.561821e-02
8.833296e-02
9.076506e-02
9.272121e-02
9.397809e-02
9.433392e-02
9.368947e-02
9.213666e-02
9.001183e-02
0.000000e+00
8.251106e-03
1.682707e-02
2.567418e-02
3.466670e-02
4.365387e-02
5.250123e-02
6.111187e-02
6.942686e-02
7.741643e-02
8.506949e-02
9.238589e-02
9.937153e-02
1.060358e-01
1.123905e-01
1.184490e-01
1.242266e-01
1.297398e-01
1.350056e-01
1.400403e-01
1.448570e-01
1.494619e-01
1.538486e-01
1.579918e-01
1.618395e-01
1.653064e-01
1.682718e-01
1.705879e-01
1.721038e-01
1.727099e-01
1.723982e-01
1.713238e-01
1.698408e-01
0.000000e+00
1.254636e-02
2.562906e-02
3.913120e-02
5.281966e-02
6.643919e-02
7.978759e-02
9.273414e-02
1.052083e-01
1.171776e-01
1.286310e-01
1.395689e-01
1.499969e-01
1.599231e-01
1.693567e-01
1.783079e-01
1.867871e-01
1.948052e-01
2.023723e-01
2.094973e-01
2.161852e-01
2.224343e-01
2.282325e-01
2.335527e-01
2.383475e-01
2.425476e-01
2.460622e-01
2.487899e-01
2.506398e-01
2.515667e-01
2.516188e-01
2.509885e-01
2.500513e-01
0.000000e+00
1.707846e-02
3.497013e-02
5.343266e-02
7.204446e-02
9.042731e-02
1.083277e-01
1.256177e-01
1.422392e-01
1.581708e-01
1.734077e-01
1.879526e-01
2.018108e-01
2.149879e-01
2.274897e-01
2.393211e-01
2.504865e-01
2.609898e-01
2.708334e-01
2.800178e-01
2.885401e-01
2.963927e-01
3.035603e-01
3.100182e-01
3.157301e-01
3.206481e-01
3.247158e-01
3.278772e-01
3.300928e-01
3.313657e-01
3.317786e-01
3.315420e-01
3.310482e-01
0.000000e+00
2.201053e-02
4.523657e-02
6.909814e-02
9.290347e-02
1.161318e-01
1.385841e-01
1.601885e-01
1.809251e-01
2.007920e-01
2.197927e-01
2.379317e-01
2.552123e-01
2.716365e-01
2.872045e-01
3.019152e-01
3.157656e-01
3.287514e-01
3.408660e-01
3.521009e-01
3.624448e-01
3.718832e-01
3.803982e-01
3.879684e-01
3.945695e-01
4.001768e-01
4.047694e-01
4.083368e-01
4.108900e-01
4.124767e-01
4.132065e-01
4.132935e-01
4.131297e-01
0.000000e+00
2.774647e-02
5.712353e-02
8.703460e-02
1.160999e-01
1.440951e-01
1.710019e-01
1.968448e-01
2.216452e-01
2.454160e-01
2.681638e-01
2.898903e-01
3.105940e-01
3.302711e-01
3.489153e-01
3.665182e-01
3.830691e-01
3.985543e-01
4.129575e-01
4.262595e-01
4.384385e-01
4.494708e-01
4.593324e-01
4.680012e-01
4.754608e-01
4.817055e-01
4.867466e-01
4.906196e-01
4.933914e-01
4.951668e-01
4.960960e-01
4.963987e-01
4.964348e-01
0.000000e+00
3.498271e-02
7.278686e-02
1.084344e-01
1.423195e-01
1.747648e-01
2.059410e-01
2.359222e-01
2.647365e-01
2.923904e-01
3.188808e-01
3.442004e-01
3.683398e-01
3.912877e-01
4.130313e-01
4.335550e-01
4.528401e-01
4.708640e-01
4.875994e-01
5.030150e-01
5.170750e-01
5.297417e-01
5.409777e-01
5.507507e-01
5.590405e-01
5.658475e-01
5.712038e-01
5.751849e-01
5.779197e-01
5.795955e-01
5.804516e-01
5.807620e-01
5.808380e-01
0.000000e+00
5.217024e-02
9.466446e-02
1.340364e-01
1.718288e-01
2.083296e-01
2.436121e-01
2.776731e-01
3.104899e-01
3.420362e-01
3.722878e-01
4.012237e-01
4.288252e-01
4.550747e-01
4.799539e-01
5.034420e-01
5.255140e-01
5.461392e-01
5.652800e-01
5.828908e-01
5.989188e-01
6.133049e-01
6.259874e-01
6.369081e-01
6.460220e-01
6.533106e-01
6.588000e-01
6.625816e-01
6.648356e-01
6.658512e-01
6.660358e-01
6.658829e-01
6.657968e-01
0.000000e+00
-3.223008e-02
-5.624846e-02
-8.245831e-02
-1.116445e-01
-1.446133e-01
-1.815937e-01
-2.226501e-01
-2.677414e-01
-3.167712e-01
-3.696094e-01
-4.261065e-01
-4.861013e-01
-5.494259e-01
-6.159091e-01
-6.853785e-01
-7.576625e-01
-8.325928e-01
-9.100066e-01
-9.897506e-01
-1.071686e+00
-1.155696e+00
-1.241698e+00
-1.329657e+00
-1.419618e+00
-1.511748e+00
-1.606413e+00
-1.704327e+00
-1.806857e+00
-1.916710e+00
-2.039726e+00
-2.189681e+00
-2.396849e+00
0.000000e+00
-2.002977e-02
-4.517068e-02
-7.155733e-02
-1.011504e-01
-1.344773e-01
-1.718170e-01
-2.132327e-01
-2.586870e-01
-3.080832e-01
-3.612907e-01
-4.181587e-01
-4.785247e-01
-5.422194e-01
-6.090698e-01
-6.789019e-01
-7.515421e-01
-8.268195e-01
-9.045681e-01
-9.846308e-01
-1.066864e+00
-1.151145e+00
-1.237383e+00
-1.325534e+00
-1.415632e+00
-1.507826e+00
-1.602465e+00
-1.700241e+00
-1.802491e+00
-1.911878e+00
-2.033943e+00
-2.180561e+00
-2.374108e+00
0.000000e+00
-1.471302e-02
-3.641639e-02
-6.244309e-02
-9.208782e-02
-1.256603e-01
-1.632948e-01
-2.050261e-01
-2.508041e-01
-3.005276e-01
-3.540636e-01
-4.112603e-01
-4.719543e-01
-5.359757e-01
-6.031511e-01
-6.733056e-01
-7.462649e-01
-8.218569e-01
-8.999148e-01
-9.802800e-01
-1.062808e+00
-1.147374e+00
-1.233888e+00
-1.322308e+00
-1.412670e+00
-1.505133e+00
-1.600060e+00
-1.698161e+00
-1.800758e+00
-1.910248e+00
-2.030725e+00
-2.167028e+00
-2.318228e+00
0.000000e+00
-1.178157e-02
-3.083734e-02
-5.547616e-02
-8.473991e-02
-1.183020e-01
-1.560974e-01
-1.980625e-01
-2.441070e-01
-2.941109e-01
-3.479329e-01
-4.054174e-01
-4.663997e-01
-5.307095e-01
-5.981735e-01
-6.686174e-01
-7.418673e-01
-8.177520e-01
-8.961053e-01
-9.767702e-01
-1.059604e+00
-1.144485e+00
-1.231327e+00
-1.320096e+00
-1.410835e+00
-1.503712e+00
-1.599087e+00
-1.697612e+00
-1.800372e+00
-1.908943e+00
-2.024839e+00
-2.147072e+00
-2.260859e+00
0.000000e+00
-9.969148e-03
-2.718884e-02
-5.052882e-02
-7.912548e-02
-1.124675e-01
-1.502772e-01
-1.923786e-01
-2.386198e-01
-2.888495e-01
-3.429107e-01
-4.006406e-01
-4.618714e-01
-5.264324e-01
-5.941509e-01
-6.648539e-01
-7.383692e-01
-8.145274e-01
-8.931648e-01
-9.741268e-01
-1.057274e+00
-1.142489e+00
-1.229688e+00
-1.318840e+00
-1.409985e+00
-1.503270e+00
-1.598988e+00
-1.697611e+00
-1.799759e+00
-1.905935e+00
-2.015631e+00
-2.124821e+00
-2.223917e+00
0.000000e+00
-8.815890e-03
-2.479497e-02
-4.712428e-02
-7.507722e-02
-1.081069e-01
-1.458344e-01
-1.879897e-01
-2.343604e-01
-2.847593e-01
-3.390101e-01
-3.969401e-01
-4.583777e-01
-5.231513e-01
-5.910890e-01
-6.620196e-01
-7.357730e-01
-8.121826e-01
-8.910870e-01
-9.723343e-01
-1.055787e+00
-1.141328e+00
-1.228872e+00
-1.318377e+00
-1.409859e+00
-1.503405e+00
-1.599181e+00
-1.697394e+00
-1.798156e+00
-1.901129e+00
-2.004744e+00
-2.105297e+00
-2.197203e+00
0.000000e+00
-8.099153e-03
-2.328145e-02
-4.491125e-02
-7.236518e-02
-1.051103e-01
-1.427257e-01
-1.848863e-01
-2.313335e-01
-2.818496e-01
-3.362401e-01
-3.943230e-01
-4.559229e-01
-5.208672e-01
-5.889853e-01
-6.601076e-01
-7.340667e-01
-8.106978e-01
-8.898419e-01
-9.713476e-01
-1.055076e+00
-1.140907e+00
-1.228742e+00
-1.318515e+00
-1.410196e+00
-1.503786e+00
-1.599293e+00
-1.696663e+00
-1.795616e+00
-1.895344e+00
-1.994123e+00
-2.089106e+00
-2.176802e+00
0.000000e+00
-7.705296e-03
-2.244163e-02
-4.366417e-02
-7.081006e-02
-1.033647e-01
-1.408938e-01
-1.830452e-01
-2.295337e-01
-2.801223e-01
-3.346043e-01
-3.927915e-01
-4.545060e-01
-5.195753e-01
-5.878299e-01
-6.591023e-01
-7.332267e-01
-8.100403e-01
-8.893841e-01
-9.711055e-01
-1.055061e+00
-1.141118e+00
-1.229160e+00
-1.319085e+00
-1.410804e+00
-1.504221e+00
-1.599199e+00
-1.695480e+00
-1.792549e+00
-1.889452e+00
-1.984632e+00
-2.075948e+00
-2.161017e+00
0.000000e+00
-7.578397e-03
-2.217069e-02
-4.325998e-02
-7.030322e-02
-1.027934e-01
-1.402938e-01
-1.824445e-01
-2.289526e-01
-2.795750e-01
-3.341016e-01
-3.923431e-01
-4.541215e-01
-5.192656e-01
-5.876075e-01
-6.589814e-01
-7.332231e-01
-8.101699e-01
-8.896619e-01
-9.715423e-01
-1.055659e+00
-1.141864e+00
-1.230015e+00
-1.319970e+00
-1.411576e+00
-1.504651e+00
-1.598942e+00
-1.694062e+00
-1.789394e+00
-1.884001e+00
-1.976566e+00
-2.065453e+00
-2.148919e+00
0.000000e+00
-7.701625e-03
-2.243654e-02
-4.365978e-02
-7.080873e-02
-1.033694e-01
-1.409083e-01
-1.830746e-01
-2.295848e-01
-2.802039e-01
-3.347278e-01
-3.929713e-01
-4.547598e-01
-5.199244e-01
-5.882992e-01
-6.597200e-01
-7.340231e-01
-8.110455e-01
-8.906244e-01
-9.725971e-01
-1.056800e+00
-1.143069e+00
-1.231231e+00
-1.321103e+00
-1.412478e+00
-1.505103e+00
-1.598644e+00
-1.692647e+00
-1.786478e+00
-1.879283e+00
-1.969977e+00
-2.057294e+00
-2.139903e+00
0.000000e+00
-8.092110e-03
-2.327168e-02
-4.490280e-02
-7.236252e-02
-1.051190e-01
-1.427532e-01
-1.849423e-01
-2.314311e-01
-2.820057e-01
-3.364766e-01
-3.946674e-01
-4.564092e-01
-5.215365e-01
-5.898855e-01
-6.612932e-01
-7.355959e-01
-8.126293e-01
-8.922270e-01
-9.742191e-01
-1.058430e+00
-1.144677e+00
-1.232761e+00
-1.322462e+00
-1.413525e+00
-1.505646e+00
-1.598442e+00
-1.691434e+00
-1.784013e+00
-1.875431e+00
-1.964810e+00
-2.051174e+00
-2.133503e+00
0.000000e+00
-8.806100e-03
-2.478139e-02
-4.711247e-02
-7.507339e-02
-1.081189e-01
-1.458724e-01
-1.880676e-01
-2.344963e-01
-2.849770e-01
-3.393402e-01
-3.974211e-01
-4.590574e-01
-5.240872e-01
-5.923487e-01
-6.636794e-01
-7.379155e-01
-8.148906e-01
-8.944344e-01
-9.763700e-01
-1.060511e+00
-1.146656e+00
-1.234585e+00
-1.324046e+00
-1.414750e+00
-1.506356e+00
-1.598455e+00
-1.690565e+00
-1.782120e+00
-1.872480e+00
-1.960952e+00
-2.046809e+00
-2.129307e+00
0.000000e+00
-9.957615e-03
-2.717285e-02
-5.051491e-02
-7.912105e-02
-1.124820e-01
-1.503231e-01
-1.924726e-01
-2.387839e-01
-2.891124e-01
-3.433096e-01
-4.012221e-01
-4.626934e-01
-5.275646e-01
-5.956752e-01
-6.668631e-01
-7.409635e-01
-8.178083e-01
-8.972233e-01
-9.790256e-01
-1.063019e+00
-1.148990e+00
-1.236697e+00
-1.325869e+00
-1.416190e+00
-1.507296e+00
-1.598767e+00
-1.690126e+00
-1.780855e+00
-1.870410e+00
-1.958259e+00
-2.043911e+00
-2.126906e+00
0.000000e+00
-1.176971e-02
-3.082092e-02
-5.546201e-02
-8.473611e-02
-1.183190e-01
-1.561492e-01
-1.981674e-01
-2.442894e-01
-2.944027e-01
-3.483750e-01
-4.060614e-01
-4.673093e-01
-5.319616e-01
-5.998582e-01
-6.708368e-01
-7.447318e-01
-8.213732e-01
-9.005838e-01
-9.821759e-01
-1.065947e+00
-1.151672e+00
-1.239099e+00
-1.327942e+00
-1.417869e+00
-1.508502e+00
-1.599418e+00
-1.690150e+00
-1.780217e+00
-1.869154e+00
-1.956566e+00
-2.042180e+00
-2.125859e+00
0.000000e+00
-1.470269e-02
-3.640201e-02
-6.243114e-02
-9.208668e-02
-1.256810e-01
-1.633519e-01
-2.051389e-01
-2.509980e-01
-3.008355e-01
-3.545278e-01
-4.119339e-01
-4.729029e-01
-5.372781e-01
-6.048994e-01
-6.756037e-01
-7.492244e-01
-8.255900e-01
-9.045211e-01
-9.858268e-01
-1.069300e+00
-1.154710e+00
-1.241800e+00
-1.330272e+00
-1.419791e+00
-1.509975e+00
-1.600397e+00
-1.690606e+00
-1.780145e+00
-1.868604e+00
-1.955688e+00
-2.041310e+00
-2.125676e+00
0.000000e+00
-2.002313e-02
-4.516089e-02
-7.155030e-02
-1.011547e-01
-1.345043e-01
-1.718814e-01
-2.133538e-01
-2.588901e-01
-3.084010e-01
-3.617649e-01
-4.188414e-01
-4.794797e-01
-5.435230e-01
-6.108105e-01
-6.811784e-01
-7.544589e-01
-8.304792e-01
-9.090579e-01
-9.900023e-01
-1.073102e+00
-1.158126e+00
-1.244813e+00
-1.332865e+00
-1.421945e+00
-1.511674e+00
-1.601635e+00
-1.691387e+00
-1.780494e+00
-1.868578e+00
-1.955403e+00
-2.040996e+00
-2.125832e+00
0.000000e+00
-3.222913e-02
-5.624520e-02
-8.245893e-02
-1.116577e-01
-1.446504e-01
-1.816694e-01
-2.227835e-01
-2.679574e-01
-3.171015e-01
-3.700941e-01
-4.267953e-01
-4.870544e-01
-5.507143e-01
-6.176137e-01
-6.875879e-01
-7.604678e-01
-8.360788e-01
-9.142377e-01
-9.947496e-01
-1.077403e+00
-1.161964e+00
-1.248171e+00