TITLE = "Solution"
VARIABLES = x, y, u, v, psiu, psiv, t, stress
ZONE T="structure" N=561 E=512 F=FEBLOCK ET=QUADRILATERAL VARLOCATION=([7,8]=cellcentered)
0.000000e+00
6.250000e+00
1.250000e+01
1.875000e+01
2.500000e+01
3.125000e+01
3.750000e+01
4.375000e+01
5.000000e+01
5.625000e+01
6.250000e+01
6.875000e+01
7.500000e+01
8.125000e+01
8.750000e+01
9.375000e+01
1.000000e+02
1.062500e+02
1.125000e+02
1.187500e+02
1.250000e+02
1.312500e+02
1.375000e+02
1.437500e+02
1.500000e+02
1.562500e+02
1.625000e+02
1.687500e+02
1.750000e+02
1.812500e+02
1.875000e+02
1.937500e+02
2.000000e+02
0.000000e+00
6.250000e+00
1.250000e+01
1.875000e+01
2.500000e+01
3.125000e+01
3.750000e+01
4.375000e+01
5.000000e+01
5.625000e+01
6.250000e+01
6.875000e+01
7.500000e+01
8.125000e+01
8.750000e+01
9.375000e+01
1.000000e+02
1.062500e+02
1.125000e+02
1.187500e+02
1.250000e+02
1.312500e+02
1.375000e+02
1.437500e+02
1.500000e+02
1.562500e+02
1.625000e+02
1.687500e+02
1.750000e+02
1.812500e+02
1.875000e+02
1.937500e+02
2.000000e+02
0.000000e+00
6.250000e+00
1.250000e+01
1.875000e+01
2.500000e+01
3.125000e+01
3.750000e+01
4.375000e+01
5.000000e+01
5.625000e+01
6.250000e+01
6.875000e+01
7.500000e+01
8.125000e+01
8.750000e+01
9.375000e+01
1.000000e+02
1.062500e+02
1.125000e+02
1.187500e+02
1.250000e+02
1.312500e+02
1.375000e+02
1.437500e+02
1.500000e+02
1.562500e+02
1.625000e+02
1.687500e+02
1.750000e+02
1.812500e+02
1.875000e+02
1.937500e+02
2.000000e+02
0.000000e+00
6.250000e+00
1.250000e+01
1.875000e+01
2.500000e+01
3.125000e+01
3.750000e+01
4.375000e+01
5.000000e+01
5.625000e+01
6.250000e+01
6.875000e+01
7.500000e+01
8.125000e+01
8.750000e+01
9.375000e+01
1.000000e+02
1.062500e+02
1.125000e+02
1.187500e+02
1.250000e+02
1.312500e+02
1.375000e+02
1.437500e+02
1.500000e+02
1.562500e+02
1.625000e+02
1.687500e+02
1.750000e+02
1.812500e+02
1.875000e+02
1.937500e+02
2.000000e+02
0.000000e+00
6.250000e+00
1.250000e+01
1.875000e+01
2.500000e+01
3.125000e+01
3.750000e+01
4.375000e+01
5.000000e+01
5.625000e+01
6.250000e+01
6.875000e+01
7.500000e+01
8.125000e+01
8.750000e+01
9.375000e+01
1.000000e+02
1.062500e+02
1.125000e+02
1.187500e+02
1.250000e+02
1.312500e+02
1.375000e+02
1.437500e+02
1.500000e+02
1.562500e+02
1.625000e+02
1.687500e+02
1.750000e+02
1.812500e+02
1.875000e+02
1.937500e+02
2.000000e+02
0.000000e+00
6.250000e+00
1.250000e+01
1.875000e+01
2.500000e+01
3.125000e+01
3.750000e+01
4.375000e+01
5.000000e+01
5.625000e+01
6.250000e+01
6.875000e+01
7.500000e+01
8.125000e+01
8.750000e+01
9.375000e+01
1.000000e+02
1.062500e+02
1.125000e+02
1.187500e+02
1.250000e+02
1.312500e+02
1.375000e+02
1.437500e+02
1.500000e+02
1.562500e+02
1.625000e+02
1.687500e+02
1.750000e+02
1.812500e+02
1.875000e+02
1.937500e+02
2.000000e+02
0.000000e+00
6.250000e+00
1.250000e+01
1.875000e+01
2.500000e+01
3.125000e+01
3.750000e+01
4.375000e+01
5.000000e+01
5.625000e+01
6.250000e+01
6.875000e+01
7.500000e+01
8.125000e+01
8.750000e+01
9.375000e+01
1.000000e+02
1.062500e+02
1.125000e+02
1.187500e+02
1.250000e+02
1.312500e+02
1.375000e+02
1.437500e+02
1.500000e+02
1.562500e+02
1.625000e+02
1.687500e+02
1.750000e+02
1.812500e+02
1.875000e+02
1.937500e+02
2.000000e+02
0.000000e+00
6.250000e+00
1.250000e+01
1.875000e+01
2.500000e+01
3.125000e+01
3.750000e+01
4.375000e+01
5.000000e+01
5.625000e+01
6.250000e+01
6.875000e+01
7.500000e+01
8.125000e+01
8.750000e+01
9.375000e+01
1.000000e+02
1.062500e+02
1.125000e+02
1.187500e+02
1.250000e+02
1.312500e+02
1.375000e+02
1.437500e+02
1.500000e+02
1.562500e+02
1.625000e+02
1.687500e+02
1.750000e+02
1.812500e+02
1.875000e+02
1.937500e+02
2.000000e+02
0.000000e+00
6.250000e+00
1.250000e+01
1.875000e+01
2.500000e+01
3.125000e+01
3.750000e+01
4.375000e+01
5.000000e+01
5.625000e+01
6.250000e+01
6.875000e+01
7.500000e+01
8.125000e+01
8.750000e+01
9.375000e+01
1.000000e+02
1.062500e+02
1.125000e+02
1.187500e+02
1.250000e+02
1.312500e+02
1.375000e+02
1.437500e+02
1.500000e+02
1.562500e+02
1.625000e+02
1.687500e+02
1.750000e+02
1.812500e+02
1.875000e+02
1.937500e+02
2.000000e+02
0.000000e+00
6.250000e+00
1.250000e+01
1.875000e+01
2.500000e+01
3.125000e+01
3.750000e+01
4.375000e+01
5.000000e+01
5.625000e+01
6.250000e+01
6.875000e+01
7.500000e+01
8.125000e+01
8.750000e+01
9.375000e+01
1.000000e+02
1.062500e+02
1.125000e+02
1.187500e+02
1.250000e+02
1.312500e+02
1.375000e+02
1.437500e+02
1.500000e+02
1.562500e+02
1.625000e+02
1.687500e+02
1.750000e+02
1.812500e+02
1.875000e+02
1.937500e+02
2.000000e+02
0.000000e+00
6.250000e+00
1.250000e+01
1.875000e+01
2.500000e+01
3.125000e+01
3.750000e+01
4.375000e+01
5.000000e+01
5.625000e+01
6.250000e+01
6.875000e+01
7.500000e+01
8.125000e+01
8.750000e+01
9.375000e+01
1.000000e+02
1.062500e+02
1.125000e+02
1.187500e+02
1.250000e+02
1.312500e+02
1.375000e+02
1.437500e+02
1.500000e+02
1.562500e+02
1.625000e+02
1.687500e+02
1.750000e+02
1.812500e+02
1.875000e+02
1.937500e+02
2.000000e+02
0.000000e+00
6.250000e+00
1.250000e+01
1.875000e+01
2.500000e+01
3.125000e+01
3.750000e+01
4.375000e+01
5.000000e+01
5.625000e+01
6.250000e+01
6.875000e+01
7.500000e+01
8.125000e+01
8.750000e+01
9.375000e+01
1.000000e+02
1.062500e+02
1.125000e+02
1.187500e+02
1.250000e+02
1.312500e+02
1.375000e+02
1.437500e+02
1.500000e+02
1.562500e+02
1.625000e+02
1.687500e+02
1.750000e+02
1.812500e+02
1.875000e+02
1.937500e+02
2.000000e+02
0.000000e+00
6.250000e+00
1.250000e+01
1.875000e+01
2.500000e+01
3.125000e+01
3.750000e+01
4.375000e+01
5.000000e+01
5.625000e+01
6.250000e+01
6.875000e+01
7.500000e+01
8.125000e+01
8.750000e+01
9.375000e+01
1.000000e+02
1.062500e+02
1.125000e+02
1.187500e+02
1.250000e+02
1.312500e+02
1.375000e+02
1.437500e+02
1.500000e+02
1.562500e+02
1.625000e+02
1.687500e+02
1.750000e+02
1.812500e+02
1.875000e+02
1.937500e+02
2.000000e+02
0.000000e+00
6.250000e+00
1.250000e+01
1.875000e+01
2.500000e+01
3.125000e+01
3.750000e+01
4.375000e+01
5.000000e+01
5.625000e+01
6.250000e+01
6.875000e+01
7.500000e+01
8.125000e+01
8.750000e+01
9.375000e+01
1.000000e+02
1.062500e+02
1.125000e+02
1.187500e+02
1.250000e+02
1.312500e+02
1.375000e+02
1.437500e+02
1.500000e+02
1.562500e+02
1.625000e+02
1.687500e+02
1.750000e+02
1.812500e+02
1.875000e+02
1.937500e+02
2.000000e+02
0.000000e+00
6.250000e+00
1.250000e+01
1.875000e+01
2.500000e+01
3.125000e+01
3.750000e+01
4.375000e+01
5.000000e+01
5.625000e+01
6.250000e+01
6.875000e+01
7.500000e+01
8.125000e+01
8.750000e+01
9.375000e+01
1.000000e+02
1.062500e+02
1.125000e+02
1.187500e+02
1.250000e+02
1.312500e+02
1.375000e+02
1.437500e+02
1.500000e+02
1.562500e+02
1.625000e+02
1.687500e+02
1.750000e+02
1.812500e+02
1.875000e+02
1.937500e+02
2.000000e+02
0.000000e+00
6.250000e+00
1.250000e+01
1.875000e+01
2.500000e+01
3.125000e+01
3.750000e+01
4.375000e+01
5.000000e+01
5.625000e+01
6.250000e+01
6.875000e+01
7.500000e+01
8.125000e+01
8.750000e+01
9.375000e+01
1.000000e+02
1.062500e+02
1.125000e+02
1.187500e+02
1.250000e+02
1.312500e+02
1.375000e+02
1.437500e+02
1.500000e+02
1.562500e+02
1.625000e+02
1.687500e+02
1.750000e+02
1.812500e+02
1.875000e+02
1.937500e+02
2.000000e+02
0.000000e+00
6.250000e+00
1.250000e+01
1.875000e+01
2.500000e+01
3.125000e+01
3.750000e+01
4.375000e+01
5.000000e+01
5.625000e+01
6.250000e+01
6.875000e+01
7.500000e+01
8.125000e+01
8.750000e+01
9.375000e+01
1.000000e+02
1.062500e+02
1.125000e+02
1.187500e+02
1.250000e+02
1.312500e+02
1.375000e+02
1.437500e+02
1.500000e+02
1.562500e+02
1.625000e+02
1.687500e+02
1.750000e+02
1.812500e+02
1.875000e+02
1.937500e+02
2.000000e+02
0.000000e+00
0.000000e+00
0.000000e+00
0.000000e+00
0.000000e+00
0.000000e+00
0.000000e+00
0.000000e+00
0.000000e+00
0.000000e+00
0.000000e+00
0.000000e+00
0.000000e+00
0.000000e+00
0.000000e+00
0.000000e+00
0.000000e+00
0.000000e+00
0.000000e+00
0.000000e+00
0.000000e+00
0.000000e+00
0.000000e+00
0.000000e+00
0.000000e+00
0.000000e+00
0.000000e+00
0.000000e+00
0.000000e+00
0.000000e+00
0.000000e+00
0.000000e+00
0.000000e+00
6.250000e+00
6.250000e+00
6.250000e+00
6.250000e+00
6.250000e+00
6.250000e+00
6.250000e+00
6.250000e+00
6.250000e+00
6.250000e+00
6.250000e+00
6.250000e+00
6.250000e+00
6.250000e+00
6.250000e+00
6.250000e+00
6.250000e+00
6.250000e+00
6.250000e+00
6.250000e+00
6.250000e+00
6.250000e+00
6.250000e+00
6.250000e+00
6.250000e+00
6.250000e+00
6.250000e+00
6.250000e+00
6.250000e+00
6.250000e+00
6.250000e+00
6.250000e+00
6.250000e+00
1.250000e+01
1.250000e+01
1.250000e+01
1.250000e+01
1.250000e+01
1.250000e+01
1.250000e+01
1.250000e+01
1.250000e+01
1.250000e+01
1.250000e+01
1.250000e+01
1.250000e+01
1.250000e+01
1.250000e+01
1.250000e+01
1.250000e+01
1.250000e+01
1.250000e+01
1.250000e+01
1.250000e+01
1.250000e+01
1.250000e+01
1.250000e+01
1.250000e+01
1.250000e+01
1.250000e+01
1.250000e+01
1.250000e+01
1.250000e+01
1.250000e+01
1.250000e+01
1.250000e+01
1.875000e+01
1.875000e+01
1.875000e+01
1.875000e+01
1.875000e+01
1.875000e+01
1.875000e+01
1.875000e+01
1.875000e+01
1.875000e+01
1.875000e+01
1.875000e+01
1.875000e+01
1.875000e+01
1.875000e+01
1.875000e+01
1.875000e+01
1.875000e+01
1.875000e+01
1.875000e+01
1.875000e+01
1.875000e+01
1.875000e+01
1.875000e+01
1.875000e+01
1.875000e+01
1.875000e+01
1.875000e+01
1.875000e+01
1.875000e+01
1.875000e+01
1.875000e+01
1.875000e+01
2.500000e+01
2.500000e+01
2.500000e+01
2.500000e+01
2.500000e+01
2.500000e+01
2.500000e+01
2.500000e+01
2.500000e+01
2.500000e+01
2.500000e+01
2.500000e+01
2.500000e+01
2.500000e+01
2.500000e+01
2.500000e+01
2.500000e+01
2.500000e+01
2.500000e+01
2.500000e+01
2.500000e+01
2.500000e+01
2.500000e+01
2.500000e+01
2.500000e+01
2.500000e+01
2.500000e+01
2.500000e+01
2.500000e+01
2.500000e+01
2.500000e+01
2.500000e+01
2.500000e+01
3.125000e+01
3.125000e+01
3.125000e+01
3.125000e+01
3.125000e+01
3.125000e+01
3.125000e+01
3.125000e+01
3.125000e+01
3.125000e+01
3.125000e+01
3.125000e+01
3.125000e+01
3.125000e+01
3.125000e+01
3.125000e+01
3.125000e+01
3.125000e+01
3.125000e+01
3.125000e+01
3.125000e+01
3.125000e+01
3.125000e+01
3.125000e+01
3.125000e+01
3.125000e+01
3.125000e+01
3.125000e+01
3.125000e+01
3.125000e+01
3.125000e+01
3.125000e+01
3.125000e+01
3.750000e+01
3.750000e+01
3.750000e+01
3.750000e+01
3.750000e+01
3.750000e+01
3.750000e+01
3.750000e+01
3.750000e+01
3.750000e+01
3.750000e+01
3.750000e+01
3.750000e+01
3.750000e+01
3.750000e+01
3.750000e+01
3.750000e+01
3.750000e+01
3.750000e+01
3.750000e+01
3.750000e+01
3.750000e+01
3.750000e+01
3.750000e+01
3.750000e+01
3.750000e+01
3.750000e+01
3.750000e+01
3.750000e+01
3.750000e+01
3.750000e+01
3.750000e+01
3.750000e+01
4.375000e+01
4.375000e+01
4.375000e+01
4.375000e+01
4.375000e+01
4.375000e+01
4.375000e+01
4.375000e+01
4.375000e+01
4.375000e+01
4.375000e+01
4.375000e+01
4.375000e+01
4.375000e+01
4.375000e+01
4.375000e+01
4.375000e+01
4.375000e+01
4.375000e+01
4.375000e+01
4.375000e+01
4.375000e+01
4.375000e+01
4.375000e+01
4.375000e+01
4.375000e+01
4.375000e+01
4.375000e+01
4.375000e+01
4.375000e+01
4.375000e+01
4.375000e+01
4.375000e+01
5.000000e+01
5.000000e+01
5.000000e+01
5.000000e+01
5.000000e+01
5.000000e+01
5.000000e+01
5.000000e+01
5.000000e+01
5.000000e+01
5.000000e+01
5.000000e+01
5.000000e+01
5.000000e+01
5.000000e+01
5.000000e+01
5.000000e+01
5.000000e+01
5.000000e+01
5.000000e+01
5.000000e+01
5.000000e+01
5.000000e+01
5.000000e+01
5.000000e+01
5.000000e+01
5.000000e+01
5.000000e+01
5.000000e+01
5.000000e+01
5.000000e+01
5.000000e+01
5.000000e+01
5.625000e+01
5.625000e+01
5.625000e+01
5.625000e+01
5.625000e+01
5.625000e+01
5.625000e+01
5.625000e+01
5.625000e+01
5.625000e+01
5.625000e+01
5.625000e+01
5.625000e+01
5.625000e+01
5.625000e+01
5.625000e+01
5.625000e+01
5.625000e+01
5.625000e+01
5.625000e+01
5.625000e+01
5.625000e+01
5.625000e+01
5.625000e+01
5.625000e+01
5.625000e+01
5.625000e+01
5.625000e+01
5.625000e+01
5.625000e+01
5.625000e+01
5.625000e+01
5.625000e+01
6.250000e+01
6.250000e+01
6.250000e+01
6.250000e+01
6.250000e+01
6.250000e+01
6.250000e+01
6.250000e+01
6.250000e+01
6.250000e+01
6.250000e+01
6.250000e+01
6.250000e+01
6.250000e+01
6.250000e+01
6.250000e+01
6.250000e+01
6.250000e+01
6.250000e+01
6.250000e+01
6.250000e+01
6.250000e+01
6.250000e+01
6.250000e+01
6.250000e+01
6.250000e+01
6.250000e+01
6.250000e+01
6.250000e+01
6.250000e+01
6.250000e+01
6.250000e+01
6.250000e+01
6.875000e+01
6.875000e+01
6.875000e+01
6.875000e+01
6.875000e+01
6.875000e+01
6.875000e+01
6.875000e+01
6.875000e+01
6.875000e+01
6.875000e+01
6.875000e+01
6.875000e+01
6.875000e+01
6.875000e+01
6.875000e+01
6.875000e+01
6.875000e+01
6.875000e+01
6.875000e+01
6.875000e+01
6.875000e+01
6.875000e+01
6.875000e+01
6.875000e+01
6.875000e+01
6.875000e+01
6.875000e+01
6.875000e+01
6.875000e+01
6.875000e+01
6.875000e+01
6.875000e+01
7.500000e+01
7.500000e+01
7.500000e+01
7.500000e+01
7.500000e+01
7.500000e+01
7.500000e+01
7.500000e+01
7.500000e+01
7.500000e+01
7.500000e+01
7.500000e+01
7.500000e+01
7.500000e+01
7.500000e+01
7.500000e+01
7.500000e+01
7.500000e+01
7.500000e+01
7.500000e+01
7.500000e+01
7.500000e+01
7.500000e+01
7.500000e+01
7.500000e+01
7.500000e+01
7.500000e+01
7.500000e+01
7.500000e+01
7.500000e+01
7.500000e+01
7.500000e+01
7.500000e+01
8.125000e+01
8.125000e+01
8.125000e+01
8.125000e+01
8.125000e+01
8.125000e+01
8.125000e+01
8.125000e+01
8.125000e+01
8.125000e+01
8.125000e+01
8.125000e+01
8.125000e+01
8.125000e+01
8.125000e+01
8.125000e+01
8.125000e+01
8.125000e+01
8.125000e+01
8.125000e+01
8.125000e+01
8.125000e+01
8.125000e+01
8.125000e+01
8.125000e+01
8.125000e+01
8.125000e+01
8.125000e+01
8.125000e+01
8.125000e+01
8.125000e+01
8.125000e+01
8.125000e+01
8.750000e+01
8.750000e+01
8.750000e+01
8.750000e+01
8.750000e+01
8.750000e+01
8.750000e+01
8.750000e+01
8.750000e+01
8.750000e+01
8.750000e+01
8.750000e+01
8.750000e+01
8.750000e+01
8.750000e+01
8.750000e+01
8.750000e+01
8.750000e+01
8.750000e+01
8.750000e+01
8.750000e+01
8.750000e+01
8.750000e+01
8.750000e+01
8.750000e+01
8.750000e+01
8.750000e+01
8.750000e+01
8.750000e+01
8.750000e+01
8.750000e+01
8.750000e+01
8.750000e+01
9.375000e+01
9.375000e+01
9.375000e+01
9.375000e+01
9.375000e+01
9.375000e+01
9.375000e+01
9.375000e+01
9.375000e+01
9.375000e+01
9.375000e+01
9.375000e+01
9.375000e+01
9.375000e+01
9.375000e+01
9.375000e+01
9.375000e+01
9.375000e+01
9.375000e+01
9.375000e+01
9.375000e+01
9.375000e+01
9.375000e+01
9.375000e+01
9.375000e+01
9.375000e+01
9.375000e+01
9.375000e+01
9.375000e+01
9.375000e+01
9.375000e+01
9.375000e+01
9.375000e+01
1.000000e+02
1.000000e+02
1.000000e+02
1.000000e+02
1.000000e+02
1.000000e+02
1.000000e+02
1.000000e+02
1.000000e+02
1.000000e+02
1.000000e+02
1.000000e+02
1.000000e+02
1.000000e+02
1.000000e+02
1.000000e+02
1.000000e+02
1.000000e+02
1.000000e+02
1.000000e+02
1.000000e+02
1.000000e+02
1.000000e+02
1.000000e+02
1.000000e+02
1.000000e+02
1.000000e+02
1.000000e+02
1.000000e+02
1.000000e+02
1.000000e+02
1.000000e+02
1.000000e+02
0.000000e+00
-3.987826e-02
-7.235381e-02
-1.024378e-01
-1.313100e-01
-1.591904e-01
-1.861352e-01
-2.121418e-01
-2.371939e-01
-2.612732e-01
-2.843648e-01
-3.064582e-01
-3.275479e-01
-3.476336e-01
-3.667199e-01
-3.848170e-01
-4.019409e-01
-4.181153e-01
-4.333727e-01
-4.477570e-01
-4.613266e-01
-4.741590e-01
-4.863562e-01
-4.980541e-01
-5.094342e-01
-5.207435e-01
-5.323249e-01
-5.446675e-01
-5.584889e-01
-5.748447e-01
-5.951047e-01
-6.192491e-01
-6.339841e-01
0.000000e+00
-2.673730e-02
-5.562984e-02
-8.287168e-02
-1.087640e-01
-1.335533e-01
-1.573706e-01
-1.802733e-01
-2.022841e-01
-2.234104e-01
-2.436537e-01
-2.630140e-01
-2.814922e-01
-2.990913e-01
-3.158171e-01
-3.316789e-01
-3.466903e-01
-3.608697e-01
-3.742418e-01
-3.868384e-01
-3.987003e-01
-4.098788e-01
-4.204375e-01
-4.304544e-01
-4.400225e-01
-4.492489e-01
-4.582468e-01
-4.671092e-01
-4.758355e-01
-4.841417e-01
-4.910631e-01
-4.951096e-01
-5.007431e-01
0.000000e+00
-2.120810e-02
-4.366197e-02
-6.652357e-02
-8.873798e-02
-1.101337e-01
-1.306972e-01
-1.504478e-01
-1.694030e-01
-1.875749e-01
-2.049710e-01
-2.215968e-01
-2.374570e-01
-2.525562e-01
-2.669000e-01
-2.804953e-01
-2.933511e-01
-3.054783e-01
-3.168906e-01
-3.276044e-01
-3.376382e-01
-3.470125e-01
-3.557471e-01
-3.638577e-01
-3.713473e-01
-3.781921e-01
-3.843135e-01
-3.895316e-01
-3.934934e-01
-3.956267e-01
-3.954397e-01
-3.942417e-01
-4.008201e-01
0.000000e+00
-1.682674e-02
-3.458279e-02
-5.282492e-02
-7.102429e-02
-8.878283e-02
-1.059485e-01
-1.224666e-01
-1.383226e-01
-1.535157e-01
-1.680498e-01
-1.819298e-01
-1.951604e-01
-2.077458e-01
-2.196896e-01
-2.309953e-01
-2.416659e-01
-2.517042e-01
-2.611122e-01
-2.698905e-01
-2.780368e-01
-2.855437e-01
-2.923945e-01
-2.985573e-01
-3.039753e-01
-3.085527e-01
-3.121381e-01
-3.145125e-01
-3.154191e-01
-3.147461e-01
-3.131115e-01
-3.130139e-01
-3.192815e-01
0.000000e+00
-1.305990e-02
-2.674223e-02
-4.086162e-02
-5.509573e-02
-6.915525e-02
-8.284620e-02
-9.607036e-02
-1.087831e-01
-1.209672e-01
-1.326182e-01
-1.437367e-01
-1.543248e-01
-1.643842e-01
-1.739157e-01
-1.829184e-01
-1.913894e-01
-1.993237e-01
-2.067131e-01
-2.135452e-01
-2.198016e-01
-2.254556e-01
-2.304685e-01
-2.347853e-01
-2.383296e-01
-2.410012e-01
-2.426823e-01
-2.432721e-01
-2.427883e-01
-2.416045e-01
-2.408364e-01
-2.426100e-01
-2.479565e-01
0.000000e+00
-9.598267e-03
-1.960776e-02
-2.993883e-02
-4.041296e-02
-5.083464e-02
-6.104865e-02
-7.095409e-02
-8.049559e-02
-8.964622e-02
-9.839462e-02
-1.067368e-01
-1.146713e-01
-1.221967e-01
-1.293102e-01
-1.360067e-01
-1.422783e-01
-1.481134e-01
-1.534965e-01
-1.584062e-01
-1.628151e-01
-1.666873e-01
-1.699776e-01
-1.726309e-01
-1.745841e-01
-1.757758e-01
-1.761712e-01
-1.758164e-01
-1.749418e-01
-1.741098e-01
-1.743124e-01
-1.765733e-01
-1.809972e-01
0.000000e+00
-6.316814e-03
-1.288349e-02
-1.965847e-02
-2.654516e-02
-3.342763e-02
-4.020209e-02
-4.679288e-02
-5.315265e-02
-5.925528e-02
-6.508757e-02
-7.064288e-02
-7.591696e-02
-8.090541e-02
-8.560221e-02
-8.999878e-02
-9.408326e-02
-9.783993e-02
-1.012487e-01
-1.042843e-01
-1.069165e-01
-1.091093e-01
-1.108231e-01
-1.120173e-01
-1.126590e-01
-1.127386e-01
-1.122999e-01
-1.114880e-01
-1.106120e-01
-1.101873e-01
-1.108499e-01
-1.130511e-01
-1.166222e-01
0.000000e+00
-3.137559e-03
-6.393737e-03
-9.751797e-03
-1.316933e-02
-1.659234e-02
-1.996957e-02
-2.326089e-02
-2.643920e-02
-2.948793e-02
-3.239729e-02
-3.516078e-02
-3.777274e-02
-4.022670e-02
-4.251429e-02
-4.462453e-02
-4.654327e-02
-4.825278e-02
-4.973158e-02
-5.095448e-02
-5.189323e-02
-5.251808e-02
-5.280114e-02
-5.272241e-02
-5.228034e-02
-5.150868e-02
-5.050080e-02
-4.943883e-02
-4.861443e-02
-4.840792e-02
-4.918525e-02
-5.110557e-02
-5.393909e-02
0.000000e+00
-5.062138e-06
-1.097616e-05
-1.741444e-05
-2.403831e-05
-3.039118e-05
-3.578487e-05
-3.917364e-05
-3.900687e-05
-3.305168e-05
-1.817892e-05
9.891467e-06
5.688512e-05
1.303016e-04
2.397607e-04
3.973365e-04
6.178277e-04
9.188801e-04
1.320830e-03
1.846065e-03
2.517603e-03
3.356452e-03
4.377164e-03
5.580846e-03
6.944950e-03
8.409721e-03
9.863013e-03
1.112917e-02
1.197438e-02
1.214579e-02
1.145563e-02
9.892652e-03
7.703616e-03
0.000000e+00
3.128025e-03
6.373021e-03
9.718863e-03
1.312376e-02
1.653457e-02
1.990129e-02
2.318575e-02
2.636374e-02
2.942288e-02
3.235922e-02
3.517430e-02
3.787324e-02
4.046368e-02
4.295541e-02
4.536027e-02
4.769215e-02
4.996687e-02
5.220179e-02
5.441477e-02
5.662234e-02
5.883665e-02
6.106087e-02
6.328264e-02
6.546585e-02
6.754161e-02
6.940125e-02
7.089697e-02
7.185801e-02
7.213009e-02
7.163732e-02
7.045000e-02
6.882531e-02
0.000000e+00
6.309025e-03
1.286644e-02
1.963119e-02
2.650711e-02
3.337894e-02
4.014387e-02
4.672779e-02
5.308565e-02
5.919468e-02
6.504640e-02
7.064070e-02
7.598209e-02
8.107778e-02
8.593670e-02
9.056921e-02
9.498690e-02
9.920238e-02
1.032287e-01
1.070784e-01
1.107614e-01
1.142824e-01
1.176366e-01
1.208046e-01
1.237466e-01
1.263974e-01
1.286649e-01
1.304358e-01
1.315949e-01
1.320583e-01
1.318200e-01
1.309985e-01
1.298645e-01
0.000000e+00
9.593299e-03
1.959669e-02
2.992080e-02
4.038737e-02
5.080123e-02
6.100777e-02
7.090704e-02
8.044509e-02
8.959709e-02
9.835471e-02
1.067181e-01
1.146916e-01
1.222814e-01
1.294946e-01
1.363388e-01
1.428223e-01
1.489531e-01
1.547391e-01
1.601870e-01
1.653007e-01
1.700789e-01
1.745124e-01
1.785803e-01
1.822466e-01
1.854580e-01
1.881454e-01
1.902311e-01
1.916455e-01
1.923542e-01
1.923941e-01
1.919122e-01
1.911955e-01
0.000000e+00
1.305867e-02
2.673914e-02
4.085610e-02
5.508719e-02
6.914321e-02
8.283035e-02
9.605067e-02
1.087599e-01
1.209416e-01
1.325922e-01
1.437136e-01
1.543098e-01
1.643854e-01
1.739445e-01
1.829911e-01
1.915285e-01
1.995596e-01
2.070862e-01
2.141088e-01
2.206252e-01
2.266294e-01
2.321100e-01
2.370478e-01
2.414153e-01
2.451757e-01
2.482860e-01
2.507033e-01
2.523973e-01
2.533706e-01
2.536863e-01
2.535054e-01
2.531279e-01
0.000000e+00
1.682987e-02
3.458915e-02
5.283437e-02
7.103657e-02
8.879759e-02
1.059652e-01
1.224845e-01
1.383402e-01
1.535309e-01
1.680593e-01
1.819289e-01
1.951420e-01
2.077004e-01
2.196041e-01
2.308522e-01
2.414426e-01
2.513718e-01
2.606349e-01
2.692254e-01
2.771346e-01
2.843514e-01
2.908622e-01
2.966505e-01
3.016978e-01
3.059854e-01
3.094969e-01
3.122247e-01
3.141769e-01
3.153901e-01
3.159482e-01
3.160147e-01
3.158895e-01
0.000000e+00
2.121573e-02
4.367825e-02
6.654908e-02
8.877319e-02
1.101791e-01
1.307527e-01
1.505129e-01
1.694759e-01
1.876517e-01
2.050452e-01
2.216578e-01
2.374883e-01
2.525339e-01
2.667897e-01
2.802494e-01
2.929045e-01
3.047449e-01
3.157579e-01
3.259290e-01
3.352413e-01
3.436769e-01
3.512173e-01
3.578456e-01
3.635494e-01
3.683243e-01
3.721788e-01
3.751402e-01
3.772596e-01
3.786171e-01
3.793276e-01
3.795590e-01
3.795866e-01
0.000000e+00
2.674876e-02
5.565486e-02
8.291194e-02
1.088215e-01
1.336299e-01
1.574681e-01
1.803925e-01
2.024246e-01
2.235695e-01
2.438247e-01
2.631847e-01
2.816423e-01
2.991888e-01
3.158145e-01
3.315074e-01
3.462533e-01
3.600347e-01
3.728311e-01
3.846181e-01
3.953688e-01
4.050541e-01
4.136453e-01
4.211180e-01
4.274566e-01
4.326613e-01
4.367569e-01
4.398010e-01
4.418921e-01
4.431734e-01
4.438280e-01
4.440653e-01
4.441235e-01
0.000000e+00
3.989080e-02
7.238307e-02
1.024880e-01
1.313850e-01
1.592945e-01
1.862724e-01
2.123163e-01
2.374089e-01
2.615300e-01
2.846611e-01
3.067862e-01
3.278910e-01
3.479620e-01
3.669852e-01
3.849448e-01
4.018216e-01
4.175921e-01
4.322276e-01
4.456932e-01
4.579486e-01
4.689485e-01
4.786459e-01
4.869961e-01
4.939648e-01
4.995379e-01
5.037352e-01
5.066267e-01
5.083501e-01
5.091267e-01
5.092678e-01
5.091509e-01
5.090851e-01
0.000000e+00
-2.464401e-02
-4.300911e-02
-6.304985e-02
-8.536642e-02
-1.105752e-01
-1.388514e-01
-1.702442e-01
-2.047222e-01
-2.422116e-01
-2.826131e-01
-3.258122e-01
-3.716858e-01
-4.201055e-01
-4.709402e-01
-5.240583e-01
-5.793285e-01
-6.366221e-01
-6.958147e-01
-7.567890e-01
-8.194389e-01
-8.836751e-01
-9.494339e-01
-1.016690e+00
-1.085477e+00
-1.155921e+00
-1.228304e+00
-1.303172e+00
-1.381569e+00
-1.465566e+00
-1.559626e+00
-1.674286e+00
-1.832691e+00
0.000000e+00
-1.531531e-02
-3.453873e-02
-5.471467e-02
-7.734229e-02
-1.028250e-01
-1.313759e-01
-1.630434e-01
-1.977990e-01
-2.355686e-01
-2.762524e-01
-3.197352e-01
-3.658926e-01
-4.145951e-01
-4.657107e-01
-5.191062e-01
-5.746487e-01
-6.322077e-01
-6.916562e-01
-7.528742e-01
-8.157519e-01
-8.801952e-01
-9.461347e-01
-1.013538e+00
-1.082428e+00
-1.152922e+00
-1.225286e+00
-1.300048e+00
-1.378231e+00
-1.461871e+00
-1.555205e+00
-1.667312e+00
-1.815304e+00
0.000000e+00
-1.124998e-02
-2.784496e-02
-4.774567e-02
-7.041282e-02
-9.608326e-02
-1.248596e-01
-1.567684e-01
-1.917715e-01
-2.297914e-01
-2.707264e-01
-3.144604e-01
-3.608686e-01
-4.098211e-01
-4.611851e-01
-5.148271e-01
-5.706136e-01
-6.284132e-01
-6.880982e-01
-7.495475e-01
-8.126502e-01
-8.773119e-01
-9.434626e-01
-1.011071e+00
-1.080163e+00
-1.150863e+00
-1.223447e+00
-1.298457e+00
-1.376906e+00
-1.460625e+00
-1.552744e+00
-1.656965e+00
-1.772576e+00
0.000000e+00
-9.008505e-03
-2.357906e-02
-4.241857e-02
-6.479441e-02
-9.045688e-02
-1.193563e-01
-1.514439e-01
-1.866507e-01
-2.248850e-01
-2.660387e-01
-3.099928e-01
-3.566215e-01
-4.057944e-01
-4.573792e-01
-5.112424e-01
-5.672511e-01
-6.252745e-01
-6.851854e-01
-7.468638e-01
-8.102003e-01
-8.751027e-01
-9.415045e-01
-1.009379e+00
-1.078760e+00
-1.149777e+00
-1.222703e+00
-1.298038e+00
-1.376610e+00
-1.459627e+00
-1.548243e+00
-1.641706e+00
-1.728710e+00
0.000000e+00
-7.622677e-03
-2.078932e-02
-3.863569e-02
-6.050146e-02
-8.599568e-02
-1.149059e-01
-1.470978e-01
-1.824551e-01
-2.208620e-01
-2.621986e-01
-3.063404e-01
-3.531590e-01
-4.025240e-01
-4.543034e-01
-5.083647e-01
-5.645763e-01
-6.228089e-01
-6.829370e-01
-7.448426e-01
-8.084189e-01
-8.735763e-01
-9.402512e-01
-1.008419e+00
-1.078110e+00
-1.149439e+00
-1.222627e+00
-1.298037e+00
-1.376142e+00
-1.457326e+00
-1.541203e+00
-1.624692e+00
-1.700464e+00
0.000000e+00
-6.740861e-03
-1.895890e-02
-3.603248e-02
-5.740605e-02
-8.266145e-02
-1.115089e-01
-1.437419e-01
-1.791982e-01
-2.177346e-01
-2.592161e-01
-3.035109e-01
-3.504877e-01
-4.000152e-01
-4.519622e-01
-5.061975e-01
-5.625913e-01
-6.210159e-01
-6.813483e-01
-7.434720e-01
-8.072819e-01
-8.726888e-01
-9.396273e-01
-1.008065e+00
-1.078014e+00
-1.149542e+00
-1.222775e+00
-1.297871e+00
-1.374916e+00
-1.453652e+00
-1.532878e+00
-1.609764e+00
-1.680037e+00
0.000000e+00
-6.192823e-03
-1.780162e-02
-3.434034e-02
-5.533235e-02
-8.037012e-02
-1.091319e-01
-1.413690e-01
-1.768837e-01
-2.155097e-01
-2.570981e-01
-3.015098e-01
-3.486106e-01
-3.982688e-01
-4.503536e-01
-5.047356e-01
-5.612865e-01
-6.198807e-01
-6.803962e-01
-7.427176e-01
-8.067386e-01
-8.723667e-01
-9.395276e-01
-1.008171e+00
-1.078272e+00
-1.149833e+00
-1.222861e+00
-1.297312e+00
-1.372974e+00
-1.449228e+00
-1.524758e+00
-1.597384e+00
-1.664438e+00
0.000000e+00
-5.891668e-03
-1.715946e-02
-3.338678e-02
-5.414326e-02
-7.903543e-02
-1.077312e-01
-1.399612e-01
-1.755076e-01
-2.141889e-01
-2.558473e-01
-3.003388e-01
-3.475273e-01
-3.972810e-01
-4.494702e-01
-5.039669e-01
-5.606443e-01
-6.193779e-01
-6.800462e-01
-7.425324e-01
-8.067267e-01
-8.725282e-01
-9.398473e-01
-1.008606e+00
-1.078737e+00
-1.150166e+00
-1.222789e+00
-1.296408e+00
-1.370629e+00
-1.444723e+00
-1.517500e+00
-1.587323e+00
-1.652369e+00
0.000000e+00
-5.794637e-03
-1.695229e-02
-3.307773e-02
-5.375572e-02
-7.859861e-02
-1.072724e-01
-1.395019e-01
-1.750633e-01
-2.137705e-01
-2.554630e-01
-2.999959e-01
-3.472333e-01
-3.970441e-01
-4.493001e-01
-5.038744e-01
-5.606415e-01
-6.194770e-01
-6.802586e-01
-7.428664e-01
-8.071841e-01
-8.730988e-01
-9.405014e-01
-1.009283e+00
-1.079327e+00
-1.150495e+00
-1.222592e+00
-1.295323e+00
-1.368217e+00
-1.440556e+00
-1.511333e+00
-1.579298e+00
-1.643118e+00
0.000000e+00
-5.888862e-03
-1.715557e-02
-3.338343e-02
-5.414224e-02
-7.903899e-02
-1.077423e-01
-1.399837e-01
-1.755467e-01
-2.142514e-01
-2.559418e-01
-3.004763e-01
-3.477213e-01
-3.975478e-01
-4.498290e-01
-5.044392e-01
-5.612532e-01
-6.201465e-01
-6.809946e-01
-7.436730e-01
-8.080569e-01
-8.740197e-01
-9.414307e-01
-1.010150e+00
-1.080017e+00
-1.150840e+00
-1.222364e+00
-1.294241e+00
-1.365987e+00
-1.436948e+00
-1.506295e+00
-1.573060e+00
-1.636224e+00
0.000000e+00
-6.187437e-03
-1.779414e-02
-3.433388e-02
-5.533032e-02
-8.037680e-02
-1.091529e-01
-1.414119e-01
-1.769584e-01
-2.156291e-01
-2.572789e-01
-3.017731e-01
-3.489825e-01
-3.987805e-01
-4.510420e-01
-5.056421e-01
-5.624559e-01
-6.213576e-01
-6.822199e-01
-7.449132e-01
-8.093033e-01
-8.752497e-01
-9.426007e-01
-1.011188e+00
-1.080818e+00
-1.151255e+00
-1.222210e+00
-1.293314e+00
-1.364102e+00
-1.434002e+00
-1.502344e+00
-1.568380e+00
-1.631331e+00
0.000000e+00
-6.733375e-03
-1.894851e-02
-3.602345e-02
-5.740313e-02
-8.267060e-02
-1.115380e-01
-1.438015e-01
-1.793021e-01
-2.179010e-01
-2.594685e-01
-3.038787e-01
-3.510074e-01
-4.007309e-01
-4.529254e-01
-5.074666e-01
-5.642294e-01
-6.230866e-01
-6.839078e-01
-7.465579e-01
-8.108942e-01
-8.767631e-01
-9.439955e-01
-1.012400e+00
-1.081755e+00
-1.151798e+00
-1.222220e+00
-1.292649e+00
-1.362654e+00
-1.431746e+00
-1.499394e+00
-1.565043e+00
-1.628122e+00
0.000000e+00
-7.613858e-03
-2.077709e-02
-3.862505e-02
-6.049808e-02
-8.600676e-02
-1.149410e-01
-1.471697e-01
-1.825805e-01
-2.210631e-01
-2.625036e-01
-3.067850e-01
-3.537876e-01
-4.033898e-01
-4.554689e-01
-5.099009e-01
-5.665600e-01
-6.253175e-01
-6.860403e-01
-7.485884e-01
-8.128120e-01
-8.785471e-01
-9.456104e-01
-1.013793e+00
-1.082855e+00
-1.152517e+00
-1.222458e+00
-1.292314e+00
-1.361687e+00
-1.430163e+00
-1.497335e+00
-1.562826e+00
-1.626287e+00
0.000000e+00
-8.999442e-03
-2.356651e-02
-4.240775e-02
-6.479151e-02
-9.046989e-02
-1.193958e-01
-1.515241e-01
-1.867902e-01
-2.251081e-01
-2.663768e-01
-3.104853e-01
-3.573170e-01
-4.067518e-01
-4.586673e-01
-5.129394e-01
-5.694414e-01
-6.280433e-01
-6.886098e-01
-7.509972e-01
-8.150504e-01
-8.805980e-01
-9.474474e-01
-1.015378e+00
-1.084139e+00
-1.153440e+00
-1.222956e+00
-1.292332e+00
-1.361199e+00
-1.429203e+00
-1.496040e+00
-1.561503e+00
-1.625486e+00
0.000000e+00
-1.124208e-02
-2.783396e-02
-4.773654e-02
-7.041195e-02
-9.609909e-02
-1.249032e-01
-1.568547e-01
-1.919197e-01
-2.300268e-01
-2.710813e-01
-3.149756e-01
-3.615940e-01
-4.108170e-01
-4.625219e-01
-5.165842e-01
-5.728765e-01
-6.312676e-01
-6.916203e-01
-7.537887e-01
-8.176142e-01
-8.829213e-01
-9.495120e-01
-1.017161e+00
-1.085609e+00
-1.154565e+00
-1.223705e+00
-1.292681e+00
-1.361145e+00
-1.428782e+00
-1.495369e+00
-1.560838e+00
-1.625346e+00
0.000000e+00
-1.531023e-02
-3.453125e-02
-5.470930e-02
-7.734561e-02
-1.028456e-01
-1.314251e-01
-1.631360e-01
-1.979542e-01
-2.358116e-01
-2.766150e-01
-3.202572e-01
-3.666228e-01
-4.155919e-01
-4.670417e-01
-5.208468e-01
-5.768790e-01
-6.350060e-01
-6.950893e-01
-7.569814e-01
-8.205219e-01
-8.855333e-01
-9.518158e-01
-1.019143e+00
-1.087256e+00
-1.155865e+00
-1.224651e+00
-1.293278e+00
-1.361411e+00
-1.428763e+00
-1.495151e+00
-1.560598e+00
-1.625465e+00
0.000000e+00
-2.464329e-02
-4.300661e-02
-6.305033e-02
-8.537649e-02
-1.106035e-01
-1.389092e-01
-1.703462e-01
-2.048873e-01
-2.424642e-01
-2.829837e-01
-3.263389e-01
-3.724145e-01
-4.210905e-01
-4.722436e-01
-5.257476e-01
-5.814735e-01
-6.392875e-01
-6.990498e-01
-7.606113e-01
-8.238101e-01
-8.884676e-01
-9.543839e-01