TITLE = "Solution"
VARIABLES = x, y, u, v, psiu, psiv, t, stress
ZONE T="structure" N=561 E=512 F=FEBLOCK ET=QUADRILATERAL VARLOCATION=([7,8]=cellcentered)
0.000000e+00
6.250000e+00
1.250000e+01
1.875000e+01
2.500000e+01
3.125000e+01
3.750000e+01
4.375000e+01
5.000000e+01
5.625000e+01
6.250000e+01
6.875000e+01
7.500000e+01
8.125000e+01
8.750000e+01
9.375000e+01
1.000000e+02
1.062500e+02
1.125000e+02
1.187500e+02
1.250000e+02
1.312500e+02
1.375000e+02
1.437500e+02
1.500000e+02
1.562500e+02
1.625000e+02
1.687500e+02
1.750000e+02
1.812500e+02
1.875000e+02
1.937500e+02
2.000000e+02
0.000000e+00
6.250000e+00
1.250000e+01
1.875000e+01
2.500000e+01
3.125000e+01
3.750000e+01
4.375000e+01
5.000000e+01
5.625000e+01
6.250000e+01
6.875000e+01
7.500000e+01
8.125000e+01
8.750000e+01
9.375000e+01
1.000000e+02
1.062500e+02
1.125000e+02
1.187500e+02
1.250000e+02
1.312500e+02
1.375000e+02
1.437500e+02
1.500000e+02
1.562500e+02
1.625000e+02
1.687500e+02
1.750000e+02
1.812500e+02
1.875000e+02
1.937500e+02
2.000000e+02
0.000000e+00
6.250000e+00
1.250000e+01
1.875000e+01
2.500000e+01
3.125000e+01
3.750000e+01
4.375000e+01
5.000000e+01
5.625000e+01
6.250000e+01
6.875000e+01
7.500000e+01
8.125000e+01
8.750000e+01
9.375000e+01
1.000000e+02
1.062500e+02
1.125000e+02
1.187500e+02
1.250000e+02
1.312500e+02
1.375000e+02
1.437500e+02
1.500000e+02
1.562500e+02
1.625000e+02
1.687500e+02
1.750000e+02
1.812500e+02
1.875000e+02
1.937500e+02
2.000000e+02
0.000000e+00
6.250000e+00
1.250000e+01
1.875000e+01
2.500000e+01
3.125000e+01
3.750000e+01
4.375000e+01
5.000000e+01
5.625000e+01
6.250000e+01
6.875000e+01
7.500000e+01
8.125000e+01
8.750000e+01
9.375000e+01
1.000000e+02
1.062500e+02
1.125000e+02
1.187500e+02
1.250000e+02
1.312500e+02
1.375000e+02
1.437500e+02
1.500000e+02
1.562500e+02
1.625000e+02
1.687500e+02
1.750000e+02
1.812500e+02
1.875000e+02
1.937500e+02
2.000000e+02
0.000000e+00
6.250000e+00
1.250000e+01
1.875000e+01
2.500000e+01
3.125000e+01
3.750000e+01
4.375000e+01
5.000000e+01
5.625000e+01
6.250000e+01
6.875000e+01
7.500000e+01
8.125000e+01
8.750000e+01
9.375000e+01
1.000000e+02
1.062500e+02
1.125000e+02
1.187500e+02
1.250000e+02
1.312500e+02
1.375000e+02
1.437500e+02
1.500000e+02
1.562500e+02
1.625000e+02
1.687500e+02
1.750000e+02
1.812500e+02
1.875000e+02
1.937500e+02
2.000000e+02
0.000000e+00
6.250000e+00
1.250000e+01
1.875000e+01
2.500000e+01
3.125000e+01
3.750000e+01
4.375000e+01
5.000000e+01
5.625000e+01
6.250000e+01
6.875000e+01
7.500000e+01
8.125000e+01
8.750000e+01
9.375000e+01
1.000000e+02
1.062500e+02
1.125000e+02
1.187500e+02
1.250000e+02
1.312500e+02
1.375000e+02
1.437500e+02
1.500000e+02
1.562500e+02
1.625000e+02
1.687500e+02
1.750000e+02
1.812500e+02
1.875000e+02
1.937500e+02
2.000000e+02
0.000000e+00
6.250000e+00
1.250000e+01
1.875000e+01
2.500000e+01
3.125000e+01
3.750000e+01
4.375000e+01
5.000000e+01
5.625000e+01
6.250000e+01
6.875000e+01
7.500000e+01
8.125000e+01
8.750000e+01
9.375000e+01
1.000000e+02
1.062500e+02
1.125000e+02
1.187500e+02
1.250000e+02
1.312500e+02
1.375000e+02
1.437500e+02
1.500000e+02
1.562500e+02
1.625000e+02
1.687500e+02
1.750000e+02
1.812500e+02
1.875000e+02
1.937500e+02
2.000000e+02
0.000000e+00
6.250000e+00
1.250000e+01
1.875000e+01
2.500000e+01
3.125000e+01
3.750000e+01
4.375000e+01
5.000000e+01
5.625000e+01
6.250000e+01
6.875000e+01
7.500000e+01
8.125000e+01
8.750000e+01
9.375000e+01
1.000000e+02
1.062500e+02
1.125000e+02
1.187500e+02
1.250000e+02
1.312500e+02
1.375000e+02
1.437500e+02
1.500000e+02
1.562500e+02
1.625000e+02
1.687500e+02
1.750000e+02
1.812500e+02
1.875000e+02
1.937500e+02
2.000000e+02
0.000000e+00
6.250000e+00
1.250000e+01
1.875000e+01
2.500000e+01
3.125000e+01
3.750000e+01
4.375000e+01
5.000000e+01
5.625000e+01
6.250000e+01
6.875000e+01
7.500000e+01
8.125000e+01
8.750000e+01
9.375000e+01
1.000000e+02
1.062500e+02
1.125000e+02
1.187500e+02
1.250000e+02
1.312500e+02
1.375000e+02
1.437500e+02
1.500000e+02
1.562500e+02
1.625000e+02
1.687500e+02
1.750000e+02
1.812500e+02
1.875000e+02
1.937500e+02
2.000000e+02
0.000000e+00
6.250000e+00
1.250000e+01
1.875000e+01
2.500000e+01
3.125000e+01
3.750000e+01
4.375000e+01
5.000000e+01
5.625000e+01
6.250000e+01
6.875000e+01
7.500000e+01
8.125000e+01
8.750000e+01
9.375000e+01
1.000000e+02
1.062500e+02
1.125000e+02
1.187500e+02
1.250000e+02
1.312500e+02
1.375000e+02
1.437500e+02
1.500000e+02
1.562500e+02
1.625000e+02
1.687500e+02
1.750000e+02
1.812500e+02
1.875000e+02
1.937500e+02
2.000000e+02
0.000000e+00
6.250000e+00
1.250000e+01
1.875000e+01
2.500000e+01
3.125000e+01
3.750000e+01
4.375000e+01
5.000000e+01
5.625000e+01
6.250000e+01
6.875000e+01
7.500000e+01
8.125000e+01
8.750000e+01
9.375000e+01
1.000000e+02
1.062500e+02
1.125000e+02
1.187500e+02
1.250000e+02
1.312500e+02
1.375000e+02
1.437500e+02
1.500000e+02
1.562500e+02
1.625000e+02
1.687500e+02
1.750000e+02
1.812500e+02
1.875000e+02
1.937500e+02
2.000000e+02
0.000000e+00
6.250000e+00
1.250000e+01
1.875000e+01
2.500000e+01
3.125000e+01
3.750000e+01
4.375000e+01
5.000000e+01
5.625000e+01
6.250000e+01
6.875000e+01
7.500000e+01
8.125000e+01
8.750000e+01
9.375000e+01
1.000000e+02
1.062500e+02
1.125000e+02
1.187500e+02
1.250000e+02
1.312500e+02
1.375000e+02
1.437500e+02
1.500000e+02
1.562500e+02
1.625000e+02
1.687500e+02
1.750000e+02
1.812500e+02
1.875000e+02
1.937500e+02
2.000000e+02
0.000000e+00
6.250000e+00
1.250000e+01
1.875000e+01
2.500000e+01
3.125000e+01
3.750000e+01
4.375000e+01
5.000000e+01
5.625000e+01
6.250000e+01
6.875000e+01
7.500000e+01
8.125000e+01
8.750000e+01
9.375000e+01
1.000000e+02
1.062500e+02
1.125000e+02
1.187500e+02
1.250000e+02
1.312500e+02
1.375000e+02
1.437500e+02
1.500000e+02
1.562500e+02
1.625000e+02
1.687500e+02
1.750000e+02
1.812500e+02
1.875000e+02
1.937500e+02
2.000000e+02
0.000000e+00
6.250000e+00
1.250000e+01
1.875000e+01
2.500000e+01
3.125000e+01
3.750000e+01
4.375000e+01
5.000000e+01
5.625000e+01
6.250000e+01
6.875000e+01
7.500000e+01
8.125000e+01
8.750000e+01
9.375000e+01
1.000000e+02
1.062500e+02
1.125000e+02
1.187500e+02
1.250000e+02
1.312500e+02
1.375000e+02
1.437500e+02
1.500000e+02
1.562500e+02
1.625000e+02
1.687500e+02
1.750000e+02
1.812500e+02
1.875000e+02
1.937500e+02
2.000000e+02
0.000000e+00
6.250000e+00
1.250000e+01
1.875000e+01
2.500000e+01
3.125000e+01
3.750000e+01
4.375000e+01
5.000000e+01
5.625000e+01
6.250000e+01
6.875000e+01
7.500000e+01
8.125000e+01
8.750000e+01
9.375000e+01
1.000000e+02
1.062500e+02
1.125000e+02
1.187500e+02
1.250000e+02
1.312500e+02
1.375000e+02
1.437500e+02
1.500000e+02
1.562500e+02
1.625000e+02
1.687500e+02
1.750000e+02
1.812500e+02
1.875000e+02
1.937500e+02
2.000000e+02
0.000000e+00
6.250000e+00
1.250000e+01
1.875000e+01
2.500000e+01
3.125000e+01
3.750000e+01
4.375000e+01
5.000000e+01
5.625000e+01
6.250000e+01
6.875000e+01
7.500000e+01
8.125000e+01
8.750000e+01
9.375000e+01
1.000000e+02
1.062500e+02
1.125000e+02
1.187500e+02
1.250000e+02
1.312500e+02
1.375000e+02
1.437500e+02
1.500000e+02
1.562500e+02
1.625000e+02
1.687500e+02
1.750000e+02
1.812500e+02
1.875000e+02
1.937500e+02
2.000000e+02
0.000000e+00
6.250000e+00
1.250000e+01
1.875000e+01
2.500000e+01
3.125000e+01
3.750000e+01
4.375000e+01
5.000000e+01
5.625000e+01
6.250000e+01
6.875000e+01
7.500000e+01
8.125000e+01
8.750000e+01
9.375000e+01
1.000000e+02
1.062500e+02
1.125000e+02
1.187500e+02
1.250000e+02
1.312500e+02
1.375000e+02
1.437500e+02
1.500000e+02
1.562500e+02
1.625000e+02
1.687500e+02
1.750000e+02
1.812500e+02
1.875000e+02
1.937500e+02
2.000000e+02
0.000000e+00
0.000000e+00
0.000000e+00
0.000000e+00
0.000000e+00
0.000000e+00
0.000000e+00
0.000000e+00
0.000000e+00
0.000000e+00
0.000000e+00
0.000000e+00
0.000000e+00
0.000000e+00
0.000000e+00
0.000000e+00
0.000000e+00
0.000000e+00
0.000000e+00
0.000000e+00
0.000000e+00
0.000000e+00
0.000000e+00
0.000000e+00
0.000000e+00
0.000000e+00
0.000000e+00
0.000000e+00
0.000000e+00
0.000000e+00
0.000000e+00
0.000000e+00
0.000000e+00
6.250000e+00
6.250000e+00
6.250000e+00
6.250000e+00
6.250000e+00
6.250000e+00
6.250000e+00
6.250000e+00
6.250000e+00
6.250000e+00
6.250000e+00
6.250000e+00
6.250000e+00
6.250000e+00
6.250000e+00
6.250000e+00
6.250000e+00
6.250000e+00
6.250000e+00
6.250000e+00
6.250000e+00
6.250000e+00
6.250000e+00
6.250000e+00
6.250000e+00
6.250000e+00
6.250000e+00
6.250000e+00
6.250000e+00
6.250000e+00
6.250000e+00
6.250000e+00
6.250000e+00
1.250000e+01
1.250000e+01
1.250000e+01
1.250000e+01
1.250000e+01
1.250000e+01
1.250000e+01
1.250000e+01
1.250000e+01
1.250000e+01
1.250000e+01
1.250000e+01
1.250000e+01
1.250000e+01
1.250000e+01
1.250000e+01
1.250000e+01
1.250000e+01
1.250000e+01
1.250000e+01
1.250000e+01
1.250000e+01
1.250000e+01
1.250000e+01
1.250000e+01
1.250000e+01
1.250000e+01
1.250000e+01
1.250000e+01
1.250000e+01
1.250000e+01
1.250000e+01
1.250000e+01
1.875000e+01
1.875000e+01
1.875000e+01
1.875000e+01
1.875000e+01
1.875000e+01
1.875000e+01
1.875000e+01
1.875000e+01
1.875000e+01
1.875000e+01
1.875000e+01
1.875000e+01
1.875000e+01
1.875000e+01
1.875000e+01
1.875000e+01
1.875000e+01
1.875000e+01
1.875000e+01
1.875000e+01
1.875000e+01
1.875000e+01
1.875000e+01
1.875000e+01
1.875000e+01
1.875000e+01
1.875000e+01
1.875000e+01
1.875000e+01
1.875000e+01
1.875000e+01
1.875000e+01
2.500000e+01
2.500000e+01
2.500000e+01
2.500000e+01
2.500000e+01
2.500000e+01
2.500000e+01
2.500000e+01
2.500000e+01
2.500000e+01
2.500000e+01
2.500000e+01
2.500000e+01
2.500000e+01
2.500000e+01
2.500000e+01
2.500000e+01
2.500000e+01
2.500000e+01
2.500000e+01
2.500000e+01
2.500000e+01
2.500000e+01
2.500000e+01
2.500000e+01
2.500000e+01
2.500000e+01
2.500000e+01
2.500000e+01
2.500000e+01
2.500000e+01
2.500000e+01
2.500000e+01
3.125000e+01
3.125000e+01
3.125000e+01
3.125000e+01
3.125000e+01
3.125000e+01
3.125000e+01
3.125000e+01
3.125000e+01
3.125000e+01
3.125000e+01
3.125000e+01
3.125000e+01
3.125000e+01
3.125000e+01
3.125000e+01
3.125000e+01
3.125000e+01
3.125000e+01
3.125000e+01
3.125000e+01
3.125000e+01
3.125000e+01
3.125000e+01
3.125000e+01
3.125000e+01
3.125000e+01
3.125000e+01
3.125000e+01
3.125000e+01
3.125000e+01
3.125000e+01
3.125000e+01
3.750000e+01
3.750000e+01
3.750000e+01
3.750000e+01
3.750000e+01
3.750000e+01
3.750000e+01
3.750000e+01
3.750000e+01
3.750000e+01
3.750000e+01
3.750000e+01
3.750000e+01
3.750000e+01
3.750000e+01
3.750000e+01
3.750000e+01
3.750000e+01
3.750000e+01
3.750000e+01
3.750000e+01
3.750000e+01
3.750000e+01
3.750000e+01
3.750000e+01
3.750000e+01
3.750000e+01
3.750000e+01
3.750000e+01
3.750000e+01
3.750000e+01
3.750000e+01
3.750000e+01
4.375000e+01
4.375000e+01
4.375000e+01
4.375000e+01
4.375000e+01
4.375000e+01
4.375000e+01
4.375000e+01
4.375000e+01
4.375000e+01
4.375000e+01
4.375000e+01
4.375000e+01
4.375000e+01
4.375000e+01
4.375000e+01
4.375000e+01
4.375000e+01
4.375000e+01
4.375000e+01
4.375000e+01
4.375000e+01
4.375000e+01
4.375000e+01
4.375000e+01
4.375000e+01
4.375000e+01
4.375000e+01
4.375000e+01
4.375000e+01
4.375000e+01
4.375000e+01
4.375000e+01
5.000000e+01
5.000000e+01
5.000000e+01
5.000000e+01
5.000000e+01
5.000000e+01
5.000000e+01
5.000000e+01
5.000000e+01
5.000000e+01
5.000000e+01
5.000000e+01
5.000000e+01
5.000000e+01
5.000000e+01
5.000000e+01
5.000000e+01
5.000000e+01
5.000000e+01
5.000000e+01
5.000000e+01
5.000000e+01
5.000000e+01
5.000000e+01
5.000000e+01
5.000000e+01
5.000000e+01
5.000000e+01
5.000000e+01
5.000000e+01
5.000000e+01
5.000000e+01
5.000000e+01
5.625000e+01
5.625000e+01
5.625000e+01
5.625000e+01
5.625000e+01
5.625000e+01
5.625000e+01
5.625000e+01
5.625000e+01
5.625000e+01
5.625000e+01
5.625000e+01
5.625000e+01
5.625000e+01
5.625000e+01
5.625000e+01
5.625000e+01
5.625000e+01
5.625000e+01
5.625000e+01
5.625000e+01
5.625000e+01
5.625000e+01
5.625000e+01
5.625000e+01
5.625000e+01
5.625000e+01
5.625000e+01
5.625000e+01
5.625000e+01
5.625000e+01
5.625000e+01
5.625000e+01
6.250000e+01
6.250000e+01
6.250000e+01
6.250000e+01
6.250000e+01
6.250000e+01
6.250000e+01
6.250000e+01
6.250000e+01
6.250000e+01
6.250000e+01
6.250000e+01
6.250000e+01
6.250000e+01
6.250000e+01
6.250000e+01
6.250000e+01
6.250000e+01
6.250000e+01
6.250000e+01
6.250000e+01
6.250000e+01
6.250000e+01
6.250000e+01
6.250000e+01
6.250000e+01
6.250000e+01
6.250000e+01
6.250000e+01
6.250000e+01
6.250000e+01
6.250000e+01
6.250000e+01
6.875000e+01
6.875000e+01
6.875000e+01
6.875000e+01
6.875000e+01
6.875000e+01
6.875000e+01
6.875000e+01
6.875000e+01
6.875000e+01
6.875000e+01
6.875000e+01
6.875000e+01
6.875000e+01
6.875000e+01
6.875000e+01
6.875000e+01
6.875000e+01
6.875000e+01
6.875000e+01
6.875000e+01
6.875000e+01
6.875000e+01
6.875000e+01
6.875000e+01
6.875000e+01
6.875000e+01
6.875000e+01
6.875000e+01
6.875000e+01
6.875000e+01
6.875000e+01
6.875000e+01
7.500000e+01
7.500000e+01
7.500000e+01
7.500000e+01
7.500000e+01
7.500000e+01
7.500000e+01
7.500000e+01
7.500000e+01
7.500000e+01
7.500000e+01
7.500000e+01
7.500000e+01
7.500000e+01
7.500000e+01
7.500000e+01
7.500000e+01
7.500000e+01
7.500000e+01
7.500000e+01
7.500000e+01
7.500000e+01
7.500000e+01
7.500000e+01
7.500000e+01
7.500000e+01
7.500000e+01
7.500000e+01
7.500000e+01
7.500000e+01
7.500000e+01
7.500000e+01
7.500000e+01
8.125000e+01
8.125000e+01
8.125000e+01
8.125000e+01
8.125000e+01
8.125000e+01
8.125000e+01
8.125000e+01
8.125000e+01
8.125000e+01
8.125000e+01
8.125000e+01
8.125000e+01
8.125000e+01
8.125000e+01
8.125000e+01
8.125000e+01
8.125000e+01
8.125000e+01
8.125000e+01
8.125000e+01
8.125000e+01
8.125000e+01
8.125000e+01
8.125000e+01
8.125000e+01
8.125000e+01
8.125000e+01
8.125000e+01
8.125000e+01
8.125000e+01
8.125000e+01
8.125000e+01
8.750000e+01
8.750000e+01
8.750000e+01
8.750000e+01
8.750000e+01
8.750000e+01
8.750000e+01
8.750000e+01
8.750000e+01
8.750000e+01
8.750000e+01
8.750000e+01
8.750000e+01
8.750000e+01
8.750000e+01
8.750000e+01
8.750000e+01
8.750000e+01
8.750000e+01
8.750000e+01
8.750000e+01
8.750000e+01
8.750000e+01
8.750000e+01
8.750000e+01
8.750000e+01
8.750000e+01
8.750000e+01
8.750000e+01
8.750000e+01
8.750000e+01
8.750000e+01
8.750000e+01
9.375000e+01
9.375000e+01
9.375000e+01
9.375000e+01
9.375000e+01
9.375000e+01
9.375000e+01
9.375000e+01
9.375000e+01
9.375000e+01
9.375000e+01
9.375000e+01
9.375000e+01
9.375000e+01
9.375000e+01
9.375000e+01
9.375000e+01
9.375000e+01
9.375000e+01
9.375000e+01
9.375000e+01
9.375000e+01
9.375000e+01
9.375000e+01
9.375000e+01
9.375000e+01
9.375000e+01
9.375000e+01
9.375000e+01
9.375000e+01
9.375000e+01
9.375000e+01
9.375000e+01
1.000000e+02
1.000000e+02
1.000000e+02
1.000000e+02
1.000000e+02
1.000000e+02
1.000000e+02
1.000000e+02
1.000000e+02
1.000000e+02
1.000000e+02
1.000000e+02
1.000000e+02
1.000000e+02
1.000000e+02
1.000000e+02
1.000000e+02
1.000000e+02
1.000000e+02
1.000000e+02
1.000000e+02
1.000000e+02
1.000000e+02
1.000000e+02
1.000000e+02
1.000000e+02
1.000000e+02
1.000000e+02
1.000000e+02
1.000000e+02
1.000000e+02
1.000000e+02
1.000000e+02
0.000000e+00
-4.036304e-02
-7.323336e-02
-1.036831e-01
-1.329062e-01
-1.611256e-01
-1.883979e-01
-2.147206e-01
-2.400773e-01
-2.644494e-01
-2.878217e-01
-3.101836e-01
-3.315297e-01
-3.518595e-01
-3.711779e-01
-3.894949e-01
-4.068270e-01
-4.231981e-01
-4.386409e-01
-4.532001e-01
-4.669347e-01
-4.799230e-01
-4.922685e-01
-5.041086e-01
-5.156270e-01
-5.270738e-01
-5.387960e-01
-5.512887e-01
-5.652780e-01
-5.818327e-01
-6.023390e-01
-6.267769e-01
-6.416911e-01
0.000000e+00
-2.706233e-02
-5.630609e-02
-8.387909e-02
-1.100862e-01
-1.351768e-01
-1.592837e-01
-1.824647e-01
-2.047431e-01
-2.261263e-01
-2.466156e-01
-2.662113e-01
-2.849141e-01
-3.027271e-01
-3.196562e-01
-3.357109e-01
-3.509047e-01
-3.652565e-01
-3.787912e-01
-3.915409e-01
-4.035471e-01
-4.148614e-01
-4.255485e-01
-4.356871e-01
-4.453715e-01
-4.547102e-01
-4.638174e-01
-4.727876e-01
-4.816199e-01
-4.900271e-01
-4.970326e-01
-5.011283e-01
-5.068303e-01
0.000000e+00
-2.146591e-02
-4.419273e-02
-6.733225e-02
-8.981670e-02
-1.114726e-01
-1.322860e-01
-1.522767e-01
-1.714624e-01
-1.898551e-01
-2.074627e-01
-2.242906e-01
-2.403436e-01
-2.556264e-01
-2.701445e-01
-2.839051e-01
-2.969171e-01
-3.091918e-01
-3.207429e-01
-3.315868e-01
-3.417427e-01
-3.512309e-01
-3.600717e-01
-3.682809e-01
-3.758616e-01
-3.827895e-01
-3.889854e-01
-3.942669e-01
-3.982768e-01
-4.004361e-01
-4.002468e-01
-3.990343e-01
-4.056926e-01
0.000000e+00
-1.703129e-02
-3.500319e-02
-5.346707e-02
-7.188768e-02
-8.986210e-02
-1.072364e-01
-1.239554e-01
-1.400041e-01
-1.553818e-01
-1.700926e-01
-1.841414e-01
-1.975329e-01
-2.102712e-01
-2.223603e-01
-2.338034e-01
-2.446037e-01
-2.547640e-01
-2.642864e-01
-2.731714e-01
-2.814167e-01
-2.890148e-01
-2.959489e-01
-3.021867e-01
-3.076705e-01
-3.123036e-01
-3.159326e-01
-3.183358e-01
-3.192534e-01
-3.185722e-01
-3.169178e-01
-3.168190e-01
-3.231628e-01
0.000000e+00
-1.321866e-02
-2.706731e-02
-4.135835e-02
-5.576549e-02
-6.999592e-02
-8.385330e-02
-9.723822e-02
-1.101055e-01
-1.224377e-01
-1.342303e-01
-1.454840e-01
-1.562008e-01
-1.663825e-01
-1.760299e-01
-1.851420e-01
-1.937160e-01
-2.017468e-01
-2.092260e-01
-2.161411e-01
-2.224736e-01
-2.281963e-01
-2.332702e-01
-2.376394e-01
-2.412268e-01
-2.439309e-01
-2.456325e-01
-2.462294e-01
-2.457397e-01
-2.445415e-01
-2.437641e-01
-2.455593e-01
-2.509707e-01
0.000000e+00
-9.714947e-03
-1.984612e-02
-3.030277e-02
-4.090423e-02
-5.145260e-02
-6.179077e-02
-7.181663e-02
-8.147412e-02
-9.073599e-02
-9.959073e-02
-1.080343e-01
-1.160652e-01
-1.236821e-01
-1.308821e-01
-1.376600e-01
-1.440079e-01
-1.499140e-01
-1.553624e-01
-1.603319e-01
-1.647943e-01
-1.687136e-01
-1.720439e-01
-1.747294e-01
-1.767064e-01
-1.779126e-01
-1.783128e-01
-1.779537e-01
-1.770685e-01
-1.762263e-01
-1.764314e-01
-1.787198e-01
-1.831974e-01
0.000000e+00
-6.393603e-03
-1.304010e-02
-1.989745e-02
-2.686785e-02
-3.383399e-02
-4.069080e-02
-4.736171e-02
-5.379879e-02
-5.997561e-02
-6.587880e-02
-7.150164e-02
-7.683983e-02
-8.188892e-02
-8.664282e-02
-9.109283e-02
-9.522696e-02
-9.902931e-02
-1.024795e-01
-1.055520e-01
-1.082162e-01
-1.104357e-01
-1.121703e-01
-1.133790e-01
-1.140285e-01
-1.141091e-01
-1.136650e-01
-1.128433e-01
-1.119566e-01
-1.115268e-01
-1.121974e-01
-1.144254e-01
-1.180399e-01
0.000000e+00
-3.175700e-03
-6.471461e-03
-9.870342e-03
-1.332942e-02
-1.679404e-02
-2.021232e-02
-2.354365e-02
-2.676060e-02
-2.984640e-02
-3.279112e-02
-3.558821e-02
-3.823192e-02
-4.071571e-02
-4.303111e-02
-4.516700e-02
-4.710906e-02
-4.883936e-02
-5.033613e-02
-5.157390e-02
-5.252406e-02
-5.315651e-02
-5.344301e-02
-5.336332e-02
-5.291588e-02
-5.213484e-02
-5.111470e-02
-5.003983e-02
-4.920540e-02
-4.899638e-02
-4.978316e-02
-5.172682e-02
-5.459479e-02
0.000000e+00
-5.123675e-06
-1.110959e-05
-1.762613e-05
-2.433054e-05
-3.076062e-05
-3.621988e-05
-3.964986e-05
-3.948106e-05
-3.345348e-05
-1.839991e-05
1.001171e-05
5.757663e-05
1.318856e-04
2.426754e-04
4.021667e-04
6.253382e-04
9.300504e-04
1.336887e-03
1.868507e-03
2.548208e-03
3.397254e-03
4.430375e-03
5.648689e-03
7.029376e-03
8.511953e-03
9.982912e-03
1.126446e-02
1.211995e-02
1.229344e-02
1.159489e-02
1.001291e-02
7.797265e-03
0.000000e+00
3.166050e-03
6.450493e-03
9.837008e-03
1.328330e-02
1.673557e-02
2.014321e-02
2.346760e-02
2.668423e-02
2.978055e-02
3.275259e-02
3.560189e-02
3.833364e-02
4.095557e-02
4.347759e-02
4.591168e-02
4.827191e-02
5.057429e-02
5.283638e-02
5.507625e-02
5.731066e-02
5.955189e-02
6.180315e-02
6.405192e-02
6.626168e-02
6.836267e-02
7.024492e-02
7.175881e-02
7.273154e-02
7.300692e-02
7.250817e-02
7.130642e-02
6.966197e-02
0.000000e+00
6.385719e-03
1.302285e-02
1.986983e-02
2.682934e-02
3.378471e-02
4.063188e-02
4.729583e-02
5.373098e-02
5.991427e-02
6.583712e-02
7.149943e-02
7.690575e-02
8.206339e-02
8.698138e-02
9.167020e-02
9.614160e-02
1.004083e-01
1.044836e-01
1.083801e-01
1.121079e-01
1.156716e-01
1.190666e-01
1.222731e-01
1.252509e-01
1.279340e-01
1.302289e-01
1.320214e-01
1.331946e-01
1.336637e-01
1.334225e-01
1.325909e-01
1.314432e-01
0.000000e+00
9.709918e-03
1.983491e-02
3.028453e-02
4.087833e-02
5.141879e-02
6.174940e-02
7.176900e-02
8.142300e-02
9.068626e-02
9.955034e-02
1.080154e-01
1.160858e-01
1.237679e-01
1.310687e-01
1.379962e-01
1.445585e-01
1.507638e-01
1.566202e-01
1.621343e-01
1.673102e-01
1.721465e-01
1.766339e-01
1.807512e-01
1.844620e-01
1.877125e-01
1.904326e-01
1.925436e-01
1.939752e-01
1.946926e-01
1.947329e-01
1.942451e-01
1.935198e-01
0.000000e+00
1.321741e-02
2.706419e-02
4.135276e-02
5.575684e-02
6.998373e-02
8.383726e-02
9.721829e-02
1.100821e-01
1.224118e-01
1.342040e-01
1.454606e-01
1.561857e-01
1.663837e-01
1.760591e-01
1.852156e-01
1.938568e-01
2.019855e-01
2.096036e-01
2.167116e-01
2.233072e-01
2.293844e-01
2.349316e-01
2.399294e-01
2.443500e-01
2.481561e-01
2.513042e-01
2.537509e-01
2.554656e-01
2.564507e-01
2.567702e-01
2.565871e-01
2.562050e-01
0.000000e+00
1.703446e-02
3.500962e-02
5.347664e-02
7.190011e-02
8.987704e-02
1.072533e-01
1.239735e-01
1.400219e-01
1.553973e-01
1.701023e-01
1.841404e-01
1.975143e-01
2.102252e-01
2.222736e-01
2.336585e-01
2.443776e-01
2.544275e-01
2.638033e-01
2.724982e-01
2.805035e-01
2.878081e-01
2.943980e-01
3.002567e-01
3.053654e-01
3.097050e-01
3.132593e-01
3.160202e-01
3.179961e-01
3.192241e-01
3.197890e-01
3.198563e-01
3.197295e-01
0.000000e+00
2.147363e-02
4.420922e-02
6.735807e-02
8.985235e-02
1.115184e-01
1.323422e-01
1.523426e-01
1.715361e-01
1.899328e-01
2.075378e-01
2.243523e-01
2.403753e-01
2.556038e-01
2.700329e-01
2.836562e-01
2.964652e-01
3.084495e-01
3.195964e-01
3.298911e-01
3.393166e-01
3.478547e-01
3.554868e-01
3.621957e-01
3.679689e-01
3.728017e-01
3.767031e-01
3.797005e-01
3.818457e-01
3.832197e-01
3.839388e-01
3.841730e-01
3.842010e-01
0.000000e+00
2.707392e-02
5.633142e-02
8.391984e-02
1.101443e-01
1.352544e-01
1.593823e-01
1.825854e-01
2.048854e-01
2.262873e-01
2.467887e-01
2.663841e-01
2.850660e-01
3.028259e-01
3.196536e-01
3.355373e-01
3.504624e-01
3.644114e-01
3.773633e-01
3.892937e-01
4.001750e-01
4.099780e-01
4.186738e-01
4.262373e-01
4.326529e-01
4.379209e-01
4.420663e-01
4.451474e-01
4.472639e-01
4.485608e-01
4.492233e-01
4.494636e-01
4.495224e-01
0.000000e+00
4.037573e-02
7.326298e-02
1.037338e-01
1.329822e-01
1.612309e-01
1.885368e-01
2.148973e-01
2.402949e-01
2.647092e-01
2.881216e-01
3.105156e-01
3.318769e-01
3.521919e-01
3.714464e-01
3.896243e-01
4.067062e-01
4.226685e-01
4.374819e-01
4.511112e-01
4.635156e-01
4.746492e-01
4.844645e-01
4.929162e-01
4.999696e-01
5.056104e-01
5.098587e-01
5.127854e-01
5.145298e-01
5.153158e-01
5.154586e-01
5.153403e-01
5.152737e-01
0.000000e+00
-2.494359e-02
-4.353194e-02
-6.381631e-02
-8.640416e-02
-1.119194e-01
-1.405393e-01
-1.723137e-01
-2.072109e-01
-2.451560e-01
-2.860486e-01
-3.297729e-01
-3.762041e-01
-4.252124e-01
-4.766651e-01
-5.304289e-01
-5.863710e-01
-6.443611e-01
-7.042732e-01
-7.659887e-01
-8.294002e-01
-8.944174e-01
-9.609756e-01
-1.029049e+00
-1.098672e+00
-1.169973e+00
-1.243236e+00
-1.319014e+00
-1.398364e+00
-1.483382e+00
-1.578586e+00
-1.694639e+00
-1.854970e+00
0.000000e+00
-1.550149e-02
-3.495859e-02
-5.537980e-02
-7.828248e-02
-1.040749e-01
-1.329729e-01
-1.650254e-01
-2.002035e-01
-2.384322e-01
-2.796106e-01
-3.236220e-01
-3.703405e-01
-4.196351e-01
-4.713721e-01
-5.254166e-01
-5.816343e-01
-6.398930e-01
-7.000642e-01
-7.620264e-01
-8.256684e-01
-8.908952e-01
-9.576362e-01
-1.025858e+00
-1.095587e+00
-1.166938e+00
-1.240181e+00
-1.315851e+00
-1.394985e+00
-1.479642e+00
-1.574111e+00
-1.687581e+00
-1.837371e+00
0.000000e+00
-1.138674e-02
-2.818345e-02
-4.832608e-02
-7.126878e-02
-9.725128e-02
-1.263774e-01
-1.586742e-01
-1.941027e-01
-2.325848e-01
-2.740174e-01
-3.182831e-01
-3.652555e-01
-4.148030e-01
-4.667915e-01
-5.210855e-01
-5.775502e-01
-6.360524e-01
-6.964629e-01
-7.586592e-01
-8.225291e-01
-8.879768e-01
-9.549317e-01
-1.023362e+00
-1.093294e+00
-1.164853e+00
-1.238319e+00
-1.314242e+00
-1.393644e+00
-1.478380e+00
-1.571620e+00
-1.677107e+00
-1.794124e+00
0.000000e+00
-9.118015e-03
-2.386570e-02
-4.293422e-02
-6.558207e-02
-9.155650e-02
-1.208072e-01
-1.532849e-01
-1.889197e-01
-2.276187e-01
-2.692727e-01
-3.137612e-01
-3.609567e-01
-4.107274e-01
-4.629392e-01
-5.174572e-01
-5.741468e-01
-6.328755e-01
-6.935148e-01
-7.559429e-01
-8.200494e-01
-8.857407e-01
-9.529497e-01
-1.021649e+00
-1.091874e+00
-1.163754e+00
-1.237566e+00
-1.313817e+00
-1.393345e+00
-1.477370e+00
-1.567064e+00
-1.661663e+00
-1.749725e+00
0.000000e+00
-7.715340e-03
-2.104204e-02
-3.910536e-02
-6.123694e-02
-8.704107e-02
-1.163028e-01
-1.488860e-01
-1.846730e-01
-2.235469e-01
-2.653860e-01
-3.100643e-01
-3.574521e-01
-4.074172e-01
-4.598260e-01
-5.145445e-01
-5.714395e-01
-6.303799e-01
-6.912390e-01
-7.538972e-01
-8.182463e-01
-8.841957e-01
-9.516812e-01
-1.020677e+00
-1.091216e+00
-1.163412e+00
-1.237490e+00
-1.313816e+00
-1.392871e+00
-1.475042e+00
-1.559938e+00
-1.644443e+00
-1.721135e+00
0.000000e+00
-6.822805e-03
-1.918937e-02
-3.647050e-02
-5.810389e-02
-8.366631e-02
-1.128644e-01
-1.454893e-01
-1.813766e-01
-2.203814e-01
-2.623672e-01
-3.072005e-01
-3.547483e-01
-4.048779e-01
-4.574564e-01
-5.123510e-01
-5.694303e-01
-6.285652e-01
-6.896310e-01
-7.525099e-01
-8.170955e-01
-8.832975e-01
-9.510497e-01
-1.020319e+00
-1.091119e+00
-1.163516e+00
-1.237639e+00
-1.313648e+00
-1.391630e+00
-1.471323e+00
-1.551512e+00
-1.629333e+00
-1.700461e+00
0.000000e+00
-6.268105e-03
-1.801802e-02
-3.475779e-02
-5.600498e-02
-8.134712e-02
-1.104585e-01
-1.430875e-01
-1.790340e-01
-2.181295e-01
-2.602234e-01
-3.051750e-01
-3.528485e-01
-4.031103e-01
-4.558283e-01
-5.108713e-01
-5.681097e-01
-6.274162e-01
-6.886673e-01
-7.517463e-01
-8.165456e-01
-8.829715e-01
-9.509488e-01
-1.020426e+00
-1.091380e+00
-1.163811e+00
-1.237726e+00
-1.313083e+00
-1.389664e+00
-1.466846e+00
-1.543293e+00
-1.616802e+00
-1.684672e+00
0.000000e+00
-5.963289e-03
-1.736806e-02
-3.379264e-02
-5.480144e-02
-7.999621e-02
-1.090408e-01
-1.416626e-01
-1.776411e-01
-2.167927e-01
-2.589575e-01
-3.039898e-01
-3.517519e-01
-4.021104e-01
-4.549341e-01
-5.100932e-01
-5.674597e-01
-6.269073e-01
-6.883130e-01
-7.515589e-01
-8.165335e-01
-8.831349e-01
-9.512724e-01
-1.020867e+00
-1.091850e+00
-1.164148e+00
-1.237653e+00
-1.312167e+00
-1.387291e+00
-1.462286e+00
-1.535948e+00
-1.606619e+00
-1.672455e+00
0.000000e+00
-5.865079e-03
-1.715837e-02
-3.347983e-02
-5.440919e-02
-7.955408e-02
-1.085764e-01
-1.411977e-01
-1.771914e-01
-2.163691e-01
-2.585685e-01
-3.036427e-01
-3.514543e-01
-4.018707e-01
-4.547619e-01
-5.099997e-01
-5.674568e-01
-6.270076e-01
-6.885280e-01
-7.518970e-01
-8.169965e-01
-8.837125e-01
-9.519344e-01
-1.021552e+00
-1.092448e+00
-1.164480e+00
-1.237454e+00
-1.311069e+00
-1.384849e+00
-1.458067e+00
-1.529705e+00
-1.598497e+00
-1.663093e+00
0.000000e+00
-5.960449e-03
-1.736412e-02
-3.378925e-02
-5.480041e-02
-7.999981e-02
-1.090520e-01
-1.416854e-01
-1.776807e-01
-2.168559e-01
-2.590531e-01
-3.041289e-01
-3.519483e-01
-4.023806e-01
-4.552973e-01
-5.105713e-01
-5.680760e-01
-6.276852e-01
-6.892730e-01
-7.527133e-01
-8.178799e-01
-8.846446e-01
-9.528750e-01
-1.022429e+00
-1.093146e+00
-1.164830e+00
-1.237224e+00
-1.309974e+00
-1.382592e+00
-1.454416e+00
-1.524606e+00
-1.592182e+00
-1.656115e+00
0.000000e+00
-6.262654e-03
-1.801045e-02
-3.475125e-02
-5.600293e-02
-8.135389e-02
-1.104798e-01
-1.431309e-01
-1.791095e-01
-2.182503e-01
-2.604065e-01
-3.054416e-01
-3.532248e-01
-4.036282e-01
-4.565250e-01
-5.117888e-01
-5.692932e-01
-6.289110e-01
-6.905132e-01
-7.539686e-01
-8.191415e-01
-8.858895e-01
-9.540593e-01
-1.023481e+00
-1.093956e+00
-1.165250e+00
-1.237068e+00
-1.309036e+00
-1.380684e+00
-1.451435e+00
-1.520607e+00
-1.587446e+00
-1.651162e+00
0.000000e+00
-6.815228e-03
-1.917885e-02
-3.646136e-02
-5.810094e-02
-8.367557e-02
-1.128938e-01
-1.455496e-01
-1.814818e-01
-2.205499e-01
-2.626227e-01
-3.075727e-01
-3.552744e-01
-4.056023e-01
-4.584313e-01
-5.136356e-01
-5.710884e-01
-6.306610e-01
-6.922216e-01
-7.556333e-01
-8.207517e-01
-8.874213e-01
-9.554710e-01
-1.024707e+00
-1.094905e+00
-1.165800e+00
-1.237078e+00
-1.308363e+00
-1.379219e+00
-1.449151e+00
-1.517621e+00
-1.584068e+00
-1.647914e+00
0.000000e+00
-7.706415e-03
-2.102966e-02
-3.909459e-02
-6.123351e-02
-8.705228e-02
-1.163383e-01
-1.489587e-01
-1.848000e-01
-2.237504e-01
-2.656947e-01
-3.105144e-01
-3.580883e-01
-4.082935e-01
-4.610057e-01
-5.160995e-01
-5.734473e-01
-6.329191e-01
-6.943800e-01
-7.576885e-01
-8.226928e-01
-8.892270e-01
-9.571056e-01
-1.026117e+00
-1.096019e+00
-1.166528e+00
-1.237319e+00
-1.308024e+00
-1.378240e+00
-1.447549e+00
-1.515537e+00
-1.581825e+00
-1.646056e+00
0.000000e+00
-9.108842e-03
-2.385299e-02
-4.292327e-02
-6.557913e-02
-9.156967e-02
-1.208472e-01
-1.533661e-01
-1.890609e-01
-2.278446e-01
-2.696149e-01
-3.142596e-01
-3.616607e-01
-4.116964e-01
-4.642430e-01
-5.191748e-01
-5.763637e-01
-6.356780e-01
-6.969807e-01
-7.601266e-01
-8.249584e-01
-8.913029e-01
-9.589648e-01
-1.027722e+00
-1.097318e+00
-1.167461e+00
-1.237823e+00
-1.308042e+00
-1.377747e+00
-1.446577e+00
-1.514227e+00
-1.580485e+00
-1.645246e+00
0.000000e+00
-1.137874e-02
-2.817232e-02
-4.831684e-02
-7.126790e-02
-9.726731e-02
-1.264216e-01
-1.587615e-01
-1.942528e-01
-2.328231e-01
-2.743767e-01
-3.188045e-01
-3.659897e-01
-4.158110e-01
-4.681445e-01
-5.228640e-01
-5.798406e-01
-6.389415e-01
-7.000279e-01
-7.629520e-01
-8.275534e-01
-8.936544e-01
-9.610546e-01
-1.029525e+00
-1.098806e+00
-1.168601e+00
-1.238581e+00
-1.308395e+00
-1.377691e+00
-1.446151e+00
-1.513547e+00
-1.579812e+00
-1.645105e+00
0.000000e+00
-1.549635e-02
-3.495102e-02
-5.537436e-02
-7.828585e-02
-1.040958e-01
-1.330228e-01
-1.651191e-01
-2.003606e-01
-2.386782e-01
-2.799776e-01
-3.241503e-01
-3.710796e-01
-4.206440e-01
-4.727192e-01
-5.271784e-01
-5.838917e-01
-6.427253e-01
-7.035390e-01
-7.661835e-01
-8.304965e-01
-8.962982e-01
-9.633864e-01
-1.031532e+00
-1.100473e+00
-1.169916e+00
-1.239539e+00
-1.308999e+00
-1.377961e+00
-1.446131e+00
-1.513326e+00
-1.579569e+00
-1.645225e+00
0.000000e+00
-2.494286e-02
-4.352942e-02
-6.381679e-02
-8.641435e-02
-1.119481e-01
-1.405979e-01
-1.724169e-01
-2.073780e-01
-2.454116e-01
-2.864237e-01
-3.303060e-01
-3.769417e-01
-4.262095e-01
-4.779843e-01
-5.321388e-01
-5.885421e-01
-6.470589e-01
-7.075477e-01
-7.698575e-01
-8.338246e-01
-8.992681e-01
-9.659857e-01