TITLE = "Solution"
VARIABLES = x, y, u, v, psiu, psiv, t, stress
ZONE T="structure" N=561 E=512 F=FEBLOCK ET=QUADRILATERAL VARLOCATION=([7,8]=cellcentered)
0.000000e+00
6.250000e+00
1.250000e+01
1.875000e+01
2.500000e+01
3.125000e+01
3.750000e+01
4.375000e+01
5.000000e+01
5.625000e+01
6.250000e+01
6.875000e+01
7.500000e+01
8.125000e+01
8.750000e+01
9.375000e+01
1.000000e+02
1.062500e+02
1.125000e+02
1.187500e+02
1.250000e+02
1.312500e+02
1.375000e+02
1.437500e+02
1.500000e+02
1.562500e+02
1.625000e+02
1.687500e+02
1.750000e+02
1.812500e+02
1.875000e+02
1.937500e+02
2.000000e+02
0.000000e+00
6.250000e+00
1.250000e+01
1.875000e+01
2.500000e+01
3.125000e+01
3.750000e+01
4.375000e+01
5.000000e+01
5.625000e+01
6.250000e+01
6.875000e+01
7.500000e+01
8.125000e+01
8.750000e+01
9.375000e+01
1.000000e+02
1.062500e+02
1.125000e+02
1.187500e+02
1.250000e+02
1.312500e+02
1.375000e+02
1.437500e+02
1.500000e+02
1.562500e+02
1.625000e+02
1.687500e+02
1.750000e+02
1.812500e+02
1.875000e+02
1.937500e+02
2.000000e+02
0.000000e+00
6.250000e+00
1.250000e+01
1.875000e+01
2.500000e+01
3.125000e+01
3.750000e+01
4.375000e+01
5.000000e+01
5.625000e+01
6.250000e+01
6.875000e+01
7.500000e+01
8.125000e+01
8.750000e+01
9.375000e+01
1.000000e+02
1.062500e+02
1.125000e+02
1.187500e+02
1.250000e+02
1.312500e+02
1.375000e+02
1.437500e+02
1.500000e+02
1.562500e+02
1.625000e+02
1.687500e+02
1.750000e+02
1.812500e+02
1.875000e+02
1.937500e+02
2.000000e+02
0.000000e+00
6.250000e+00
1.250000e+01
1.875000e+01
2.500000e+01
3.125000e+01
3.750000e+01
4.375000e+01
5.000000e+01
5.625000e+01
6.250000e+01
6.875000e+01
7.500000e+01
8.125000e+01
8.750000e+01
9.375000e+01
1.000000e+02
1.062500e+02
1.125000e+02
1.187500e+02
1.250000e+02
1.312500e+02
1.375000e+02
1.437500e+02
1.500000e+02
1.562500e+02
1.625000e+02
1.687500e+02
1.750000e+02
1.812500e+02
1.875000e+02
1.937500e+02
2.000000e+02
0.000000e+00
6.250000e+00
1.250000e+01
1.875000e+01
2.500000e+01
3.125000e+01
3.750000e+01
4.375000e+01
5.000000e+01
5.625000e+01
6.250000e+01
6.875000e+01
7.500000e+01
8.125000e+01
8.750000e+01
9.375000e+01
1.000000e+02
1.062500e+02
1.125000e+02
1.187500e+02
1.250000e+02
1.312500e+02
1.375000e+02
1.437500e+02
1.500000e+02
1.562500e+02
1.625000e+02
1.687500e+02
1.750000e+02
1.812500e+02
1.875000e+02
1.937500e+02
2.000000e+02
0.000000e+00
6.250000e+00
1.250000e+01
1.875000e+01
2.500000e+01
3.125000e+01
3.750000e+01
4.375000e+01
5.000000e+01
5.625000e+01
6.250000e+01
6.875000e+01
7.500000e+01
8.125000e+01
8.750000e+01
9.375000e+01
1.000000e+02
1.062500e+02
1.125000e+02
1.187500e+02
1.250000e+02
1.312500e+02
1.375000e+02
1.437500e+02
1.500000e+02
1.562500e+02
1.625000e+02
1.687500e+02
1.750000e+02
1.812500e+02
1.875000e+02
1.937500e+02
2.000000e+02
0.000000e+00
6.250000e+00
1.250000e+01
1.875000e+01
2.500000e+01
3.125000e+01
3.750000e+01
4.375000e+01
5.000000e+01
5.625000e+01
6.250000e+01
6.875000e+01
7.500000e+01
8.125000e+01
8.750000e+01
9.375000e+01
1.000000e+02
1.062500e+02
1.125000e+02
1.187500e+02
1.250000e+02
1.312500e+02
1.375000e+02
1.437500e+02
1.500000e+02
1.562500e+02
1.625000e+02
1.687500e+02
1.750000e+02
1.812500e+02
1.875000e+02
1.937500e+02
2.000000e+02
0.000000e+00
6.250000e+00
1.250000e+01
1.875000e+01
2.500000e+01
3.125000e+01
3.750000e+01
4.375000e+01
5.000000e+01
5.625000e+01
6.250000e+01
6.875000e+01
7.500000e+01
8.125000e+01
8.750000e+01
9.375000e+01
1.000000e+02
1.062500e+02
1.125000e+02
1.187500e+02
1.250000e+02
1.312500e+02
1.375000e+02
1.437500e+02
1.500000e+02
1.562500e+02
1.625000e+02
1.687500e+02
1.750000e+02
1.812500e+02
1.875000e+02
1.937500e+02
2.000000e+02
0.000000e+00
6.250000e+00
1.250000e+01
1.875000e+01
2.500000e+01
3.125000e+01
3.750000e+01
4.375000e+01
5.000000e+01
5.625000e+01
6.250000e+01
6.875000e+01
7.500000e+01
8.125000e+01
8.750000e+01
9.375000e+01
1.000000e+02
1.062500e+02
1.125000e+02
1.187500e+02
1.250000e+02
1.312500e+02
1.375000e+02
1.437500e+02
1.500000e+02
1.562500e+02
1.625000e+02
1.687500e+02
1.750000e+02
1.812500e+02
1.875000e+02
1.937500e+02
2.000000e+02
0.000000e+00
6.250000e+00
1.250000e+01
1.875000e+01
2.500000e+01
3.125000e+01
3.750000e+01
4.375000e+01
5.000000e+01
5.625000e+01
6.250000e+01
6.875000e+01
7.500000e+01
8.125000e+01
8.750000e+01
9.375000e+01
1.000000e+02
1.062500e+02
1.125000e+02
1.187500e+02
1.250000e+02
1.312500e+02
1.375000e+02
1.437500e+02
1.500000e+02
1.562500e+02
1.625000e+02
1.687500e+02
1.750000e+02
1.812500e+02
1.875000e+02
1.937500e+02
2.000000e+02
0.000000e+00
6.250000e+00
1.250000e+01
1.875000e+01
2.500000e+01
3.125000e+01
3.750000e+01
4.375000e+01
5.000000e+01
5.625000e+01
6.250000e+01
6.875000e+01
7.500000e+01
8.125000e+01
8.750000e+01
9.375000e+01
1.000000e+02
1.062500e+02
1.125000e+02
1.187500e+02
1.250000e+02
1.312500e+02
1.375000e+02
1.437500e+02
1.500000e+02
1.562500e+02
1.625000e+02
1.687500e+02
1.750000e+02
1.812500e+02
1.875000e+02
1.937500e+02
2.000000e+02
0.000000e+00
6.250000e+00
1.250000e+01
1.875000e+01
2.500000e+01
3.125000e+01
3.750000e+01
4.375000e+01
5.000000e+01
5.625000e+01
6.250000e+01
6.875000e+01
7.500000e+01
8.125000e+01
8.750000e+01
9.375000e+01
1.000000e+02
1.062500e+02
1.125000e+02
1.187500e+02
1.250000e+02
1.312500e+02
1.375000e+02
1.437500e+02
1.500000e+02
1.562500e+02
1.625000e+02
1.687500e+02
1.750000e+02
1.812500e+02
1.875000e+02
1.937500e+02
2.000000e+02
0.000000e+00
6.250000e+00
1.250000e+01
1.875000e+01
2.500000e+01
3.125000e+01
3.750000e+01
4.375000e+01
5.000000e+01
5.625000e+01
6.250000e+01
6.875000e+01
7.500000e+01
8.125000e+01
8.750000e+01
9.375000e+01
1.000000e+02
1.062500e+02
1.125000e+02
1.187500e+02
1.250000e+02
1.312500e+02
1.375000e+02
1.437500e+02
1.500000e+02
1.562500e+02
1.625000e+02
1.687500e+02
1.750000e+02
1.812500e+02
1.875000e+02
1.937500e+02
2.000000e+02
0.000000e+00
6.250000e+00
1.250000e+01
1.875000e+01
2.500000e+01
3.125000e+01
3.750000e+01
4.375000e+01
5.000000e+01
5.625000e+01
6.250000e+01
6.875000e+01
7.500000e+01
8.125000e+01
8.750000e+01
9.375000e+01
1.000000e+02
1.062500e+02
1.125000e+02
1.187500e+02
1.250000e+02
1.312500e+02
1.375000e+02
1.437500e+02
1.500000e+02
1.562500e+02
1.625000e+02
1.687500e+02
1.750000e+02
1.812500e+02
1.875000e+02
1.937500e+02
2.000000e+02
0.000000e+00
6.250000e+00
1.250000e+01
1.875000e+01
2.500000e+01
3.125000e+01
3.750000e+01
4.375000e+01
5.000000e+01
5.625000e+01
6.250000e+01
6.875000e+01
7.500000e+01
8.125000e+01
8.750000e+01
9.375000e+01
1.000000e+02
1.062500e+02
1.125000e+02
1.187500e+02
1.250000e+02
1.312500e+02
1.375000e+02
1.437500e+02
1.500000e+02
1.562500e+02
1.625000e+02
1.687500e+02
1.750000e+02
1.812500e+02
1.875000e+02
1.937500e+02
2.000000e+02
0.000000e+00
6.250000e+00
1.250000e+01
1.875000e+01
2.500000e+01
3.125000e+01
3.750000e+01
4.375000e+01
5.000000e+01
5.625000e+01
6.250000e+01
6.875000e+01
7.500000e+01
8.125000e+01
8.750000e+01
9.375000e+01
1.000000e+02
1.062500e+02
1.125000e+02
1.187500e+02
1.250000e+02
1.312500e+02
1.375000e+02
1.437500e+02
1.500000e+02
1.562500e+02
1.625000e+02
1.687500e+02
1.750000e+02
1.812500e+02
1.875000e+02
1.937500e+02
2.000000e+02
0.000000e+00
6.250000e+00
1.250000e+01
1.875000e+01
2.500000e+01
3.125000e+01
3.750000e+01
4.375000e+01
5.000000e+01
5.625000e+01
6.250000e+01
6.875000e+01
7.500000e+01
8.125000e+01
8.750000e+01
9.375000e+01
1.000000e+02
1.062500e+02
1.125000e+02
1.187500e+02
1.250000e+02
1.312500e+02
1.375000e+02
1.437500e+02
1.500000e+02
1.562500e+02
1.625000e+02
1.687500e+02
1.750000e+02
1.812500e+02
1.875000e+02
1.937500e+02
2.000000e+02
0.000000e+00
0.000000e+00
0.000000e+00
0.000000e+00
0.000000e+00
0.000000e+00
0.000000e+00
0.000000e+00
0.000000e+00
0.000000e+00
0.000000e+00
0.000000e+00
0.000000e+00
0.000000e+00
0.000000e+00
0.000000e+00
0.000000e+00
0.000000e+00
0.000000e+00
0.000000e+00
0.000000e+00
0.000000e+00
0.000000e+00
0.000000e+00
0.000000e+00
0.000000e+00
0.000000e+00
0.000000e+00
0.000000e+00
0.000000e+00
0.000000e+00
0.000000e+00
0.000000e+00
6.250000e+00
6.250000e+00
6.250000e+00
6.250000e+00
6.250000e+00
6.250000e+00
6.250000e+00
6.250000e+00
6.250000e+00
6.250000e+00
6.250000e+00
6.250000e+00
6.250000e+00
6.250000e+00
6.250000e+00
6.250000e+00
6.250000e+00
6.250000e+00
6.250000e+00
6.250000e+00
6.250000e+00
6.250000e+00
6.250000e+00
6.250000e+00
6.250000e+00
6.250000e+00
6.250000e+00
6.250000e+00
6.250000e+00
6.250000e+00
6.250000e+00
6.250000e+00
6.250000e+00
1.250000e+01
1.250000e+01
1.250000e+01
1.250000e+01
1.250000e+01
1.250000e+01
1.250000e+01
1.250000e+01
1.250000e+01
1.250000e+01
1.250000e+01
1.250000e+01
1.250000e+01
1.250000e+01
1.250000e+01
1.250000e+01
1.250000e+01
1.250000e+01
1.250000e+01
1.250000e+01
1.250000e+01
1.250000e+01
1.250000e+01
1.250000e+01
1.250000e+01
1.250000e+01
1.250000e+01
1.250000e+01
1.250000e+01
1.250000e+01
1.250000e+01
1.250000e+01
1.250000e+01
1.875000e+01
1.875000e+01
1.875000e+01
1.875000e+01
1.875000e+01
1.875000e+01
1.875000e+01
1.875000e+01
1.875000e+01
1.875000e+01
1.875000e+01
1.875000e+01
1.875000e+01
1.875000e+01
1.875000e+01
1.875000e+01
1.875000e+01
1.875000e+01
1.875000e+01
1.875000e+01
1.875000e+01
1.875000e+01
1.875000e+01
1.875000e+01
1.875000e+01
1.875000e+01
1.875000e+01
1.875000e+01
1.875000e+01
1.875000e+01
1.875000e+01
1.875000e+01
1.875000e+01
2.500000e+01
2.500000e+01
2.500000e+01
2.500000e+01
2.500000e+01
2.500000e+01
2.500000e+01
2.500000e+01
2.500000e+01
2.500000e+01
2.500000e+01
2.500000e+01
2.500000e+01
2.500000e+01
2.500000e+01
2.500000e+01
2.500000e+01
2.500000e+01
2.500000e+01
2.500000e+01
2.500000e+01
2.500000e+01
2.500000e+01
2.500000e+01
2.500000e+01
2.500000e+01
2.500000e+01
2.500000e+01
2.500000e+01
2.500000e+01
2.500000e+01
2.500000e+01
2.500000e+01
3.125000e+01
3.125000e+01
3.125000e+01
3.125000e+01
3.125000e+01
3.125000e+01
3.125000e+01
3.125000e+01
3.125000e+01
3.125000e+01
3.125000e+01
3.125000e+01
3.125000e+01
3.125000e+01
3.125000e+01
3.125000e+01
3.125000e+01
3.125000e+01
3.125000e+01
3.125000e+01
3.125000e+01
3.125000e+01
3.125000e+01
3.125000e+01
3.125000e+01
3.125000e+01
3.125000e+01
3.125000e+01
3.125000e+01
3.125000e+01
3.125000e+01
3.125000e+01
3.125000e+01
3.750000e+01
3.750000e+01
3.750000e+01
3.750000e+01
3.750000e+01
3.750000e+01
3.750000e+01
3.750000e+01
3.750000e+01
3.750000e+01
3.750000e+01
3.750000e+01
3.750000e+01
3.750000e+01
3.750000e+01
3.750000e+01
3.750000e+01
3.750000e+01
3.750000e+01
3.750000e+01
3.750000e+01
3.750000e+01
3.750000e+01
3.750000e+01
3.750000e+01
3.750000e+01
3.750000e+01
3.750000e+01
3.750000e+01
3.750000e+01
3.750000e+01
3.750000e+01
3.750000e+01
4.375000e+01
4.375000e+01
4.375000e+01
4.375000e+01
4.375000e+01
4.375000e+01
4.375000e+01
4.375000e+01
4.375000e+01
4.375000e+01
4.375000e+01
4.375000e+01
4.375000e+01
4.375000e+01
4.375000e+01
4.375000e+01
4.375000e+01
4.375000e+01
4.375000e+01
4.375000e+01
4.375000e+01
4.375000e+01
4.375000e+01
4.375000e+01
4.375000e+01
4.375000e+01
4.375000e+01
4.375000e+01
4.375000e+01
4.375000e+01
4.375000e+01
4.375000e+01
4.375000e+01
5.000000e+01
5.000000e+01
5.000000e+01
5.000000e+01
5.000000e+01
5.000000e+01
5.000000e+01
5.000000e+01
5.000000e+01
5.000000e+01
5.000000e+01
5.000000e+01
5.000000e+01
5.000000e+01
5.000000e+01
5.000000e+01
5.000000e+01
5.000000e+01
5.000000e+01
5.000000e+01
5.000000e+01
5.000000e+01
5.000000e+01
5.000000e+01
5.000000e+01
5.000000e+01
5.000000e+01
5.000000e+01
5.000000e+01
5.000000e+01
5.000000e+01
5.000000e+01
5.000000e+01
5.625000e+01
5.625000e+01
5.625000e+01
5.625000e+01
5.625000e+01
5.625000e+01
5.625000e+01
5.625000e+01
5.625000e+01
5.625000e+01
5.625000e+01
5.625000e+01
5.625000e+01
5.625000e+01
5.625000e+01
5.625000e+01
5.625000e+01
5.625000e+01
5.625000e+01
5.625000e+01
5.625000e+01
5.625000e+01
5.625000e+01
5.625000e+01
5.625000e+01
5.625000e+01
5.625000e+01
5.625000e+01
5.625000e+01
5.625000e+01
5.625000e+01
5.625000e+01
5.625000e+01
6.250000e+01
6.250000e+01
6.250000e+01
6.250000e+01
6.250000e+01
6.250000e+01
6.250000e+01
6.250000e+01
6.250000e+01
6.250000e+01
6.250000e+01
6.250000e+01
6.250000e+01
6.250000e+01
6.250000e+01
6.250000e+01
6.250000e+01
6.250000e+01
6.250000e+01
6.250000e+01
6.250000e+01
6.250000e+01
6.250000e+01
6.250000e+01
6.250000e+01
6.250000e+01
6.250000e+01
6.250000e+01
6.250000e+01
6.250000e+01
6.250000e+01
6.250000e+01
6.250000e+01
6.875000e+01
6.875000e+01
6.875000e+01
6.875000e+01
6.875000e+01
6.875000e+01
6.875000e+01
6.875000e+01
6.875000e+01
6.875000e+01
6.875000e+01
6.875000e+01
6.875000e+01
6.875000e+01
6.875000e+01
6.875000e+01
6.875000e+01
6.875000e+01
6.875000e+01
6.875000e+01
6.875000e+01
6.875000e+01
6.875000e+01
6.875000e+01
6.875000e+01
6.875000e+01
6.875000e+01
6.875000e+01
6.875000e+01
6.875000e+01
6.875000e+01
6.875000e+01
6.875000e+01
7.500000e+01
7.500000e+01
7.500000e+01
7.500000e+01
7.500000e+01
7.500000e+01
7.500000e+01
7.500000e+01
7.500000e+01
7.500000e+01
7.500000e+01
7.500000e+01
7.500000e+01
7.500000e+01
7.500000e+01
7.500000e+01
7.500000e+01
7.500000e+01
7.500000e+01
7.500000e+01
7.500000e+01
7.500000e+01
7.500000e+01
7.500000e+01
7.500000e+01
7.500000e+01
7.500000e+01
7.500000e+01
7.500000e+01
7.500000e+01
7.500000e+01
7.500000e+01
7.500000e+01
8.125000e+01
8.125000e+01
8.125000e+01
8.125000e+01
8.125000e+01
8.125000e+01
8.125000e+01
8.125000e+01
8.125000e+01
8.125000e+01
8.125000e+01
8.125000e+01
8.125000e+01
8.125000e+01
8.125000e+01
8.125000e+01
8.125000e+01
8.125000e+01
8.125000e+01
8.125000e+01
8.125000e+01
8.125000e+01
8.125000e+01
8.125000e+01
8.125000e+01
8.125000e+01
8.125000e+01
8.125000e+01
8.125000e+01
8.125000e+01
8.125000e+01
8.125000e+01
8.125000e+01
8.750000e+01
8.750000e+01
8.750000e+01
8.750000e+01
8.750000e+01
8.750000e+01
8.750000e+01
8.750000e+01
8.750000e+01
8.750000e+01
8.750000e+01
8.750000e+01
8.750000e+01
8.750000e+01
8.750000e+01
8.750000e+01
8.750000e+01
8.750000e+01
8.750000e+01
8.750000e+01
8.750000e+01
8.750000e+01
8.750000e+01
8.750000e+01
8.750000e+01
8.750000e+01
8.750000e+01
8.750000e+01
8.750000e+01
8.750000e+01
8.750000e+01
8.750000e+01
8.750000e+01
9.375000e+01
9.375000e+01
9.375000e+01
9.375000e+01
9.375000e+01
9.375000e+01
9.375000e+01
9.375000e+01
9.375000e+01
9.375000e+01
9.375000e+01
9.375000e+01
9.375000e+01
9.375000e+01
9.375000e+01
9.375000e+01
9.375000e+01
9.375000e+01
9.375000e+01
9.375000e+01
9.375000e+01
9.375000e+01
9.375000e+01
9.375000e+01
9.375000e+01
9.375000e+01
9.375000e+01
9.375000e+01
9.375000e+01
9.375000e+01
9.375000e+01
9.375000e+01
9.375000e+01
1.000000e+02
1.000000e+02
1.000000e+02
1.000000e+02
1.000000e+02
1.000000e+02
1.000000e+02
1.000000e+02
1.000000e+02
1.000000e+02
1.000000e+02
1.000000e+02
1.000000e+02
1.000000e+02
1.000000e+02
1.000000e+02
1.000000e+02
1.000000e+02
1.000000e+02
1.000000e+02
1.000000e+02
1.000000e+02
1.000000e+02
1.000000e+02
1.000000e+02
1.000000e+02
1.000000e+02
1.000000e+02
1.000000e+02
1.000000e+02
1.000000e+02
1.000000e+02
1.000000e+02
0.000000e+00
-6.143845e-02
-1.114719e-01
-1.578208e-01
-2.023029e-01
-2.452572e-01
-2.867699e-01
-3.268373e-01
-3.654343e-01
-4.025327e-01
-4.381092e-01
-4.721478e-01
-5.046402e-01
-5.355857e-01
-5.649916e-01
-5.928733e-01
-6.192558e-01
-6.441754e-01
-6.676821e-01
-6.898437e-01
-7.107502e-01
-7.305207e-01
-7.493128e-01
-7.673355e-01
-7.848686e-01
-8.022926e-01
-8.201358e-01
-8.391519e-01
-8.604461e-01
-8.856452e-01
-9.168593e-01
-9.540579e-01
-9.767596e-01
0.000000e+00
-4.119278e-02
-8.570599e-02
-1.276761e-01
-1.675672e-01
-2.057591e-01
-2.424535e-01
-2.777388e-01
-3.116501e-01
-3.441988e-01
-3.753871e-01
-4.052150e-01
-4.336839e-01
-4.607983e-01
-4.865674e-01
-5.110053e-01
-5.341330e-01
-5.559790e-01
-5.765811e-01
-5.959885e-01
-6.142639e-01
-6.314864e-01
-6.477540e-01
-6.631867e-01
-6.779281e-01
-6.921432e-01
-7.060061e-01
-7.196602e-01
-7.331045e-01
-7.459018e-01
-7.565654e-01
-7.627997e-01
-7.714791e-01
0.000000e+00
-3.267419e-02
-6.726767e-02
-1.024894e-01
-1.367141e-01
-1.696776e-01
-2.013589e-01
-2.317880e-01
-2.609917e-01
-2.889885e-01
-3.157902e-01
-3.414052e-01
-3.658405e-01
-3.891035e-01
-4.112026e-01
-4.321486e-01
-4.519552e-01
-4.706394e-01
-4.882222e-01
-5.047286e-01
-5.201875e-01
-5.346303e-01
-5.480876e-01
-5.605834e-01
-5.721225e-01
-5.826681e-01
-5.920993e-01
-6.001388e-01
-6.062426e-01
-6.095293e-01
-6.092412e-01
-6.073956e-01
-6.175307e-01
0.000000e+00
-2.592407e-02
-5.327987e-02
-8.138459e-02
-1.094235e-01
-1.367833e-01
-1.632297e-01
-1.886787e-01
-2.131074e-01
-2.365149e-01
-2.589072e-01
-2.802918e-01
-3.006759e-01
-3.200658e-01
-3.384674e-01
-3.558858e-01
-3.723258e-01
-3.877916e-01
-4.022863e-01
-4.158108e-01
-4.283617e-01
-4.399274e-01
-4.504823e-01
-4.599772e-01
-4.683245e-01
-4.753769e-01
-4.809009e-01
-4.845591e-01
-4.859558e-01
-4.849190e-01
-4.824007e-01
-4.822503e-01
-4.919066e-01
0.000000e+00
-2.012070e-02
-4.120035e-02
-6.295340e-02
-8.488321e-02
-1.065441e-01
-1.276372e-01
-1.480112e-01
-1.675972e-01
-1.863689e-01
-2.043192e-01
-2.214491e-01
-2.377619e-01
-2.532603e-01
-2.679452e-01
-2.818154e-01
-2.948666e-01
-3.070908e-01
-3.184755e-01
-3.290015e-01
-3.386407e-01
-3.473517e-01
-3.550750e-01
-3.617257e-01
-3.671864e-01
-3.713025e-01
-3.738926e-01
-3.748012e-01
-3.740558e-01
-3.722319e-01
-3.710487e-01
-3.737812e-01
-3.820184e-01
0.000000e+00
-1.478756e-02
-3.020867e-02
-4.612524e-02
-6.226224e-02
-7.831846e-02
-9.405476e-02
-1.093157e-01
-1.240159e-01
-1.381140e-01
-1.515924e-01
-1.644449e-01
-1.766694e-01
-1.882636e-01
-1.992232e-01
-2.095404e-01
-2.192029e-01
-2.281930e-01
-2.364865e-01
-2.440508e-01
-2.508435e-01
-2.568093e-01
-2.618787e-01
-2.659665e-01
-2.689757e-01
-2.708119e-01
-2.714211e-01
-2.708744e-01
-2.695270e-01
-2.682450e-01
-2.685571e-01
-2.720405e-01
-2.788563e-01
0.000000e+00
-9.731994e-03
-1.984894e-02
-3.028682e-02
-4.089682e-02
-5.150034e-02
-6.193746e-02
-7.209164e-02
-8.188991e-02
-9.129203e-02
-1.002777e-01
-1.088366e-01
-1.169622e-01
-1.246478e-01
-1.318840e-01
-1.386577e-01
-1.449506e-01
-1.507384e-01
-1.559902e-01
-1.606672e-01
-1.647224e-01
-1.681009e-01
-1.707413e-01
-1.725812e-01
-1.735698e-01
-1.736925e-01
-1.730166e-01
-1.717657e-01
-1.704160e-01
-1.697618e-01
-1.707825e-01
-1.741740e-01
-1.796758e-01
0.000000e+00
-4.833880e-03
-9.850510e-03
-1.502411e-02
-2.028934e-02
-2.556302e-02
-3.076618e-02
-3.583699e-02
-4.073369e-02
-4.543078e-02
-4.991313e-02
-5.417076e-02
-5.819493e-02
-6.197569e-02
-6.550012e-02
-6.875132e-02
-7.170747e-02
-7.434128e-02
-7.661964e-02
-7.850374e-02
-7.995004e-02
-8.091274e-02
-8.134884e-02
-8.122755e-02
-8.054646e-02
-7.935758e-02
-7.780476e-02
-7.616860e-02
-7.489845e-02
-7.458028e-02
-7.577790e-02
-7.873649e-02
-8.310205e-02
0.000000e+00
-7.799351e-06
-1.691117e-05
-2.683070e-05
-3.703616e-05
-4.682405e-05
-5.513415e-05
-6.035530e-05
-6.009847e-05
-5.092354e-05
-2.800946e-05
1.523795e-05
8.764007e-05
2.007514e-04
3.693928e-04
6.121666e-04
9.518729e-04
1.415698e-03
2.034975e-03
2.844194e-03
3.878819e-03
5.171218e-03
6.743810e-03
8.598300e-03
1.069995e-02
1.295670e-02
1.519576e-02
1.714650e-02
1.844871e-02
1.871280e-02
1.764949e-02
1.524144e-02
1.186883e-02
0.000000e+00
4.819190e-03
9.818593e-03
1.497337e-02
2.021913e-02
2.547401e-02
3.066098e-02
3.572122e-02
4.061743e-02
4.533055e-02
4.985447e-02
5.419159e-02
5.834977e-02
6.234080e-02
6.617975e-02
6.988485e-02
7.347752e-02
7.698215e-02
8.042544e-02
8.383493e-02
8.723608e-02
9.064764e-02
9.407445e-02
9.749749e-02
1.008611e-01
1.040592e-01
1.069243e-01
1.092287e-01
1.107094e-01
1.111286e-01
1.103694e-01
1.085401e-01
1.060370e-01
0.000000e+00
9.719993e-03
1.982268e-02
3.024479e-02
4.083820e-02
5.142532e-02
6.184777e-02
7.199136e-02
8.178668e-02
9.119866e-02
1.002142e-01
1.088332e-01
1.170625e-01
1.249133e-01
1.323994e-01
1.395366e-01
1.463428e-01
1.528375e-01
1.590408e-01
1.649719e-01
1.706462e-01
1.760709e-01
1.812387e-01
1.861195e-01
1.906523e-01
1.947364e-01
1.982298e-01
2.009582e-01
2.027440e-01
2.034580e-01
2.030909e-01
2.018251e-01
2.000781e-01
0.000000e+00
1.477990e-02
3.019162e-02
4.609746e-02
6.222280e-02
7.826698e-02
9.399178e-02
1.092432e-01
1.239381e-01
1.380383e-01
1.515309e-01
1.644162e-01
1.767007e-01
1.883941e-01
1.995073e-01
2.100521e-01
2.200410e-01
2.294866e-01
2.384010e-01
2.467945e-01
2.546730e-01
2.620348e-01
2.688654e-01
2.751327e-01
2.807812e-01
2.857290e-01
2.898694e-01
2.930828e-01
2.952620e-01
2.963539e-01
2.964154e-01
2.956728e-01
2.945687e-01
0.000000e+00
2.011880e-02
4.119559e-02
6.294488e-02
8.487005e-02
1.065255e-01
1.276128e-01
1.479808e-01
1.675616e-01
1.863295e-01
2.042791e-01
2.214136e-01
2.377389e-01
2.532621e-01
2.679897e-01
2.819275e-01
2.950809e-01
3.074542e-01
3.190503e-01
3.298698e-01
3.399095e-01
3.491602e-01
3.576039e-01
3.652116e-01
3.719404e-01
3.777340e-01
3.825260e-01
3.862503e-01
3.888603e-01
3.903598e-01
3.908463e-01
3.905675e-01
3.899858e-01
0.000000e+00
2.592888e-02
5.328966e-02
8.139915e-02
1.094424e-01
1.368061e-01
1.632555e-01
1.887062e-01
2.131346e-01
2.365384e-01
2.589219e-01
2.802903e-01
3.006475e-01
3.199958e-01
3.383355e-01
3.556653e-01
3.719817e-01
3.872794e-01
4.015509e-01
4.147861e-01
4.269716e-01
4.380904e-01
4.481215e-01
4.570394e-01
4.648158e-01
4.714215e-01
4.768317e-01
4.810343e-01
4.840420e-01
4.859112e-01
4.867710e-01
4.868735e-01
4.866805e-01
0.000000e+00
3.268594e-02
6.729276e-02
1.025287e-01
1.367683e-01
1.697475e-01
2.014445e-01
2.318883e-01
2.611039e-01
2.891068e-01
3.159045e-01
3.414990e-01
3.658888e-01
3.890691e-01
4.110327e-01
4.317697e-01
4.512672e-01
4.695094e-01
4.864770e-01
5.021473e-01
5.164947e-01
5.294912e-01
5.411085e-01
5.513207e-01
5.601085e-01
5.674650e-01
5.734036e-01
5.779661e-01
5.812315e-01
5.833229e-01
5.844176e-01
5.847741e-01
5.848167e-01
0.000000e+00
4.121043e-02
8.574455e-02
1.277381e-01
1.676558e-01
2.058772e-01
2.426037e-01
2.779226e-01
3.118667e-01
3.444439e-01
3.756505e-01
4.054780e-01
4.339151e-01
4.609486e-01
4.865634e-01
5.107411e-01
5.334598e-01
5.546926e-01
5.744076e-01
5.925677e-01
6.091311e-01
6.240530e-01
6.372894e-01
6.488024e-01
6.585681e-01
6.665870e-01
6.728970e-01
6.775869e-01
6.808086e-01
6.827827e-01
6.837913e-01
6.841569e-01
6.842465e-01
0.000000e+00
6.145777e-02
1.115169e-01
1.578981e-01
2.024185e-01
2.454174e-01
2.869814e-01
3.271062e-01
3.657655e-01
4.029282e-01
4.385657e-01
4.726532e-01
5.051687e-01
5.360916e-01
5.654003e-01
5.930702e-01
6.190719e-01
6.433693e-01
6.659178e-01
6.866641e-01
7.055457e-01
7.224931e-01
7.374336e-01
7.502987e-01
7.610353e-01
7.696216e-01
7.760882e-01
7.805431e-01
7.831984e-01
7.843949e-01
7.846123e-01
7.844322e-01
7.843308e-01
0.000000e+00
-3.796779e-02
-6.626207e-02
-9.713802e-02
-1.315203e-01
-1.703584e-01
-2.139225e-01
-2.622880e-01
-3.154070e-01
-3.731655e-01
-4.354105e-01
-5.019658e-01
-5.726416e-01
-6.472400e-01
-7.255594e-01
-8.073965e-01
-8.925494e-01
-9.808197e-01
-1.072016e+00
-1.165957e+00
-1.262479e+00
-1.361446e+00
-1.462759e+00
-1.566378e+00
-1.672355e+00
-1.780887e+00
-1.892406e+00
-2.007752e+00
-2.128536e+00
-2.257947e+00
-2.402863e+00
-2.579516e+00
-2.823566e+00
0.000000e+00
-2.359554e-02
-5.321220e-02
-8.429640e-02
-1.191578e-01
-1.584179e-01
-2.024052e-01
-2.511941e-01
-3.047406e-01
-3.629308e-01
-4.256109e-01
-4.926031e-01
-5.637161e-01
-6.387504e-01
-7.175024e-01
-7.997669e-01
-8.853394e-01
-9.740185e-01
-1.065609e+00
-1.159925e+00
-1.256799e+00
-1.356085e+00
-1.457676e+00
-1.561521e+00
-1.667659e+00
-1.776267e+00
-1.887755e+00
-2.002938e+00
-2.123393e+00
-2.252254e+00
-2.396051e+00
-2.568772e+00
-2.796778e+00
0.000000e+00
-1.733230e-02
-4.289944e-02
-7.355960e-02
-1.084819e-01
-1.480313e-01
-1.923657e-01
-2.415265e-01
-2.954543e-01
-3.540300e-01
-4.170971e-01
-4.844765e-01
-5.559759e-01
-6.313952e-01
-7.105299e-01
-7.931742e-01
-8.791225e-01
-9.681724e-01
-1.060127e+00
-1.154800e+00
-1.252020e+00
-1.351642e+00
-1.453559e+00
-1.557720e+00
-1.664169e+00
-1.773094e+00
-1.884922e+00
-2.000488e+00
-2.121351e+00
-2.250334e+00
-2.392260e+00
-2.552830e+00
-2.730949e+00
0.000000e+00
-1.387899e-02
-3.632720e-02
-6.535240e-02
-9.982589e-02
-1.393630e-01
-1.838871e-01
-2.333231e-01
-2.875648e-01
-3.464709e-01
-4.098749e-01
-4.775934e-01
-5.494324e-01
-6.251913e-01
-7.046661e-01
-7.876513e-01
-8.739421e-01
-9.633367e-01
-1.055639e+00
-1.150665e+00
-1.248246e+00
-1.348239e+00
-1.450542e+00
-1.555114e+00
-1.662008e+00
-1.771421e+00
-1.883775e+00
-1.999842e+00
-2.120896e+00
-2.248797e+00
-2.385326e+00
-2.529321e+00
-2.663366e+00
0.000000e+00
-1.174393e-02
-3.202920e-02
-5.952432e-02
-9.321195e-02
-1.324898e-01
-1.770306e-01
-2.266273e-01
-2.811008e-01
-3.402729e-01
-4.039586e-01
-4.719661e-01
-5.440979e-01
-6.201527e-01
-6.999273e-01
-7.832177e-01
-8.698211e-01
-9.595379e-01
-1.052175e+00
-1.147551e+00
-1.245501e+00
-1.345887e+00
-1.448611e+00
-1.553635e+00
-1.661006e+00
-1.770900e+00
-1.883659e+00
-1.999840e+00
-2.120174e+00
-2.245253e+00
-2.374479e+00
-2.503108e+00
-2.619847e+00
0.000000e+00
-1.038538e-02
-2.920918e-02
-5.551370e-02
-8.844301e-02
-1.273529e-01
-1.717969e-01
-2.214571e-01
-2.760831e-01
-3.354545e-01
-3.993635e-01
-4.676068e-01
-5.399822e-01
-6.162875e-01
-6.963203e-01
-7.798788e-01
-8.667627e-01
-9.567756e-01
-1.049728e+00
-1.145440e+00
-1.243749e+00
-1.344520e+00
-1.447650e+00
-1.553090e+00
-1.660858e+00
-1.771059e+00
-1.883886e+00
-1.999584e+00
-2.118286e+00
-2.239592e+00
-2.361653e+00
-2.480109e+00
-2.588377e+00
0.000000e+00
-9.541050e-03
-2.742622e-02
-5.290671e-02
-8.524816e-02
-1.238228e-01
-1.681348e-01
-2.178011e-01
-2.725173e-01
-3.320267e-01
-3.961003e-01
-4.645238e-01
-5.370903e-01
-6.135968e-01
-6.938420e-01
-7.776265e-01
-8.647526e-01
-9.550266e-01
-1.048261e+00
-1.144277e+00
-1.242912e+00
-1.344023e+00
-1.447496e+00
-1.553252e+00
-1.661255e+00
-1.771507e+00
-1.884019e+00
-1.998724e+00
-2.115293e+00
-2.232776e+00
-2.349142e+00
-2.461035e+00
-2.564344e+00
0.000000e+00
-9.077080e-03
-2.643690e-02
-5.143761e-02
-8.341620e-02
-1.217665e-01
-1.659768e-01
-2.156323e-01
-2.703971e-01
-3.299919e-01
-3.941733e-01
-4.627197e-01
-5.354212e-01
-6.120749e-01
-6.924810e-01
-7.764421e-01
-8.637631e-01
-9.542519e-01
-1.047722e+00
-1.143992e+00
-1.242894e+00
-1.344272e+00
-1.447989e+00
-1.553924e+00
-1.661971e+00
-1.772020e+00
-1.883908e+00
-1.997330e+00
-2.111681e+00
-2.225836e+00
-2.337961e+00
-2.445534e+00
-2.545748e+00
0.000000e+00
-8.927591e-03
-2.611772e-02
-5.096147e-02
-8.281914e-02
-1.210935e-01
-1.652699e-01
-2.149246e-01
-2.697125e-01
-3.293472e-01
-3.935812e-01
-4.621914e-01
-5.349682e-01
-6.117100e-01
-6.922190e-01
-7.762997e-01
-8.637588e-01
-9.544046e-01
-1.048049e+00
-1.144507e+00
-1.243599e+00
-1.345151e+00
-1.448996e+00
-1.554966e+00
-1.662881e+00
-1.772526e+00
-1.883605e+00
-1.995659e+00
-2.107964e+00
-2.219414e+00
-2.328458e+00
-2.433171e+00
-2.531497e+00
0.000000e+00
-9.072756e-03
-2.643090e-02
-5.143245e-02
-8.341464e-02
-1.217720e-01
-1.659939e-01
-2.156669e-01
-2.704573e-01
-3.300881e-01
-3.943189e-01
-4.629315e-01
-5.357202e-01
-6.124861e-01
-6.930338e-01
-7.771698e-01
-8.647013e-01
-9.554362e-01
-1.049183e+00
-1.145749e+00
-1.244943e+00
-1.346570e+00
-1.450428e+00
-1.556301e+00
-1.663944e+00
-1.773059e+00
-1.883254e+00
-1.993992e+00
-2.104529e+00
-2.213856e+00
-2.320696e+00
-2.423559e+00
-2.520875e+00
0.000000e+00
-9.532752e-03
-2.741471e-02
-5.289675e-02
-8.524504e-02
-1.238331e-01
-1.681671e-01
-2.178672e-01
-2.726323e-01
-3.322106e-01
-3.963789e-01
-4.649295e-01
-5.376632e-01
-6.143852e-01
-6.949026e-01
-7.790231e-01
-8.665541e-01
-9.573020e-01
-1.051071e+00
-1.147660e+00
-1.246864e+00
-1.348465e+00
-1.452231e+00
-1.557901e+00
-1.665177e+00
-1.773698e+00
-1.883016e+00
-1.992563e+00
-2.101624e+00
-2.209318e+00
-2.314609e+00
-2.416350e+00
-2.513335e+00
0.000000e+00
-1.037384e-02
-2.919317e-02
-5.549978e-02
-8.843851e-02
-1.273670e-01
-1.718417e-01
-2.215488e-01
-2.762431e-01
-3.357109e-01
-3.997523e-01
-4.681735e-01
-5.407829e-01
-6.173901e-01
-6.978043e-01
-7.818341e-01
-8.692866e-01
-9.599658e-01
-1.053671e+00
-1.150194e+00
-1.249315e+00
-1.350797e+00
-1.454380e+00
-1.559768e+00
-1.666621e+00
-1.774535e+00
-1.883031e+00
-1.991540e+00
-2.099394e+00
-2.205842e+00
-2.310064e+00
-2.411207e+00
-2.508392e+00
0.000000e+00
-1.173034e-02
-3.201036e-02
-5.950793e-02
-9.320674e-02
-1.325069e-01
-1.770847e-01
-2.267380e-01
-2.812940e-01
-3.405826e-01
-4.044285e-01
-4.726512e-01
-5.450662e-01
-6.214866e-01
-7.017230e-01
-7.855846e-01
-8.728773e-01
-9.634030e-01
-1.056957e+00
-1.153322e+00
-1.252270e+00
-1.353545e+00
-1.456868e+00
-1.561915e+00
-1.668317e+00
-1.775643e+00
-1.883398e+00
-1.991023e+00
-2.097904e+00
-2.203403e+00
-2.306892e+00
-2.407793e+00
-2.505564e+00
0.000000e+00
-1.386502e-02
-3.630786e-02
-6.533573e-02
-9.982141e-02
-1.393830e-01
-1.839480e-01
-2.334467e-01
-2.877798e-01
-3.468147e-01
-4.103957e-01
-4.783521e-01
-5.505040e-01
-6.266664e-01
-7.066508e-01
-7.902658e-01
-8.773166e-01
-9.676026e-01
-1.060915e+00
-1.157034e+00
-1.255718e+00
-1.356705e+00
-1.459698e+00
-1.564357e+00
-1.670294e+00
-1.777064e+00
-1.884165e+00
-1.991051e+00
-2.097153e+00
-2.201923e+00
-2.304898e+00
-2.405754e+00
-2.504331e+00
0.000000e+00
-1.732012e-02
-4.288250e-02
-7.354553e-02
-1.084806e-01
-1.480557e-01
-1.924330e-01
-2.416594e-01
-2.956827e-01
-3.543927e-01
-4.176439e-01
-4.852701e-01
-5.570935e-01
-6.329295e-01
-7.125895e-01
-7.958814e-01
-8.826090e-01
-9.725701e-01
-1.065554e+00
-1.161334e+00
-1.259668e+00
-1.360285e+00
-1.462879e+00
-1.567103e+00
-1.672559e+00
-1.778798e+00
-1.885319e+00
-1.991588e+00
-2.097068e+00
-2.201276e+00
-2.303864e+00
-2.404730e+00
-2.504116e+00
0.000000e+00
-2.358772e-02
-5.320067e-02
-8.428812e-02
-1.191630e-01
-1.584497e-01
-2.024810e-01
-2.513367e-01
-3.049798e-01
-3.633052e-01
-4.261694e-01
-4.934073e-01
-5.648412e-01
-6.402862e-01
-7.195530e-01
-8.024486e-01
-8.887755e-01
-9.783298e-01
-1.070898e+00
-1.166253e+00
-1.264148e+00
-1.364309e+00
-1.466428e+00
-1.570157e+00
-1.675096e+00
-1.780800e+00
-1.886777e+00
-1.992508e+00
-2.097479e+00
-2.201245e+00
-2.303527e+00
-2.404359e+00
-2.504299e+00
0.000000e+00
-3.796668e-02
-6.625823e-02
-9.713876e-02
-1.315358e-01
-1.704021e-01
-2.140116e-01
-2.624452e-01
-3.156614e-01
-3.735546e-01
-4.359815e-01
-5.027773e-01
-5.737644e-01
-6.487577e-01
-7.275674e-01
-8.099992e-01
-8.958541e-01
-9.849263e-01
-1.077000e+00
-1.171846e+00
-1.269214e+00
-1.368830e+00
-1.470385e+00