TITLE = "Solution"
VARIABLES = x, y, u, v, psiu, psiv, t, stress
ZONE T="structure" N=561 E=512 F=FEBLOCK ET=QUADRILATERAL VARLOCATION=([7,8]=cellcentered)
0.000000e+00
6.250000e+00
1.250000e+01
1.875000e+01
2.500000e+01
3.125000e+01
3.750000e+01
4.375000e+01
5.000000e+01
5.625000e+01
6.250000e+01
6.875000e+01
7.500000e+01
8.125000e+01
8.750000e+01
9.375000e+01
1.000000e+02
1.062500e+02
1.125000e+02
1.187500e+02
1.250000e+02
1.312500e+02
1.375000e+02
1.437500e+02
1.500000e+02
1.562500e+02
1.625000e+02
1.687500e+02
1.750000e+02
1.812500e+02
1.875000e+02
1.937500e+02
2.000000e+02
0.000000e+00
6.250000e+00
1.250000e+01
1.875000e+01
2.500000e+01
3.125000e+01
3.750000e+01
4.375000e+01
5.000000e+01
5.625000e+01
6.250000e+01
6.875000e+01
7.500000e+01
8.125000e+01
8.750000e+01
9.375000e+01
1.000000e+02
1.062500e+02
1.125000e+02
1.187500e+02
1.250000e+02
1.312500e+02
1.375000e+02
1.437500e+02
1.500000e+02
1.562500e+02
1.625000e+02
1.687500e+02
1.750000e+02
1.812500e+02
1.875000e+02
1.937500e+02
2.000000e+02
0.000000e+00
6.250000e+00
1.250000e+01
1.875000e+01
2.500000e+01
3.125000e+01
3.750000e+01
4.375000e+01
5.000000e+01
5.625000e+01
6.250000e+01
6.875000e+01
7.500000e+01
8.125000e+01
8.750000e+01
9.375000e+01
1.000000e+02
1.062500e+02
1.125000e+02
1.187500e+02
1.250000e+02
1.312500e+02
1.375000e+02
1.437500e+02
1.500000e+02
1.562500e+02
1.625000e+02
1.687500e+02
1.750000e+02
1.812500e+02
1.875000e+02
1.937500e+02
2.000000e+02
0.000000e+00
6.250000e+00
1.250000e+01
1.875000e+01
2.500000e+01
3.125000e+01
3.750000e+01
4.375000e+01
5.000000e+01
5.625000e+01
6.250000e+01
6.875000e+01
7.500000e+01
8.125000e+01
8.750000e+01
9.375000e+01
1.000000e+02
1.062500e+02
1.125000e+02
1.187500e+02
1.250000e+02
1.312500e+02
1.375000e+02
1.437500e+02
1.500000e+02
1.562500e+02
1.625000e+02
1.687500e+02
1.750000e+02
1.812500e+02
1.875000e+02
1.937500e+02
2.000000e+02
0.000000e+00
6.250000e+00
1.250000e+01
1.875000e+01
2.500000e+01
3.125000e+01
3.750000e+01
4.375000e+01
5.000000e+01
5.625000e+01
6.250000e+01
6.875000e+01
7.500000e+01
8.125000e+01
8.750000e+01
9.375000e+01
1.000000e+02
1.062500e+02
1.125000e+02
1.187500e+02
1.250000e+02
1.312500e+02
1.375000e+02
1.437500e+02
1.500000e+02
1.562500e+02
1.625000e+02
1.687500e+02
1.750000e+02
1.812500e+02
1.875000e+02
1.937500e+02
2.000000e+02
0.000000e+00
6.250000e+00
1.250000e+01
1.875000e+01
2.500000e+01
3.125000e+01
3.750000e+01
4.375000e+01
5.000000e+01
5.625000e+01
6.250000e+01
6.875000e+01
7.500000e+01
8.125000e+01
8.750000e+01
9.375000e+01
1.000000e+02
1.062500e+02
1.125000e+02
1.187500e+02
1.250000e+02
1.312500e+02
1.375000e+02
1.437500e+02
1.500000e+02
1.562500e+02
1.625000e+02
1.687500e+02
1.750000e+02
1.812500e+02
1.875000e+02
1.937500e+02
2.000000e+02
0.000000e+00
6.250000e+00
1.250000e+01
1.875000e+01
2.500000e+01
3.125000e+01
3.750000e+01
4.375000e+01
5.000000e+01
5.625000e+01
6.250000e+01
6.875000e+01
7.500000e+01
8.125000e+01
8.750000e+01
9.375000e+01
1.000000e+02
1.062500e+02
1.125000e+02
1.187500e+02
1.250000e+02
1.312500e+02
1.375000e+02
1.437500e+02
1.500000e+02
1.562500e+02
1.625000e+02
1.687500e+02
1.750000e+02
1.812500e+02
1.875000e+02
1.937500e+02
2.000000e+02
0.000000e+00
6.250000e+00
1.250000e+01
1.875000e+01
2.500000e+01
3.125000e+01
3.750000e+01
4.375000e+01
5.000000e+01
5.625000e+01
6.250000e+01
6.875000e+01
7.500000e+01
8.125000e+01
8.750000e+01
9.375000e+01
1.000000e+02
1.062500e+02
1.125000e+02
1.187500e+02
1.250000e+02
1.312500e+02
1.375000e+02
1.437500e+02
1.500000e+02
1.562500e+02
1.625000e+02
1.687500e+02
1.750000e+02
1.812500e+02
1.875000e+02
1.937500e+02
2.000000e+02
0.000000e+00
6.250000e+00
1.250000e+01
1.875000e+01
2.500000e+01
3.125000e+01
3.750000e+01
4.375000e+01
5.000000e+01
5.625000e+01
6.250000e+01
6.875000e+01
7.500000e+01
8.125000e+01
8.750000e+01
9.375000e+01
1.000000e+02
1.062500e+02
1.125000e+02
1.187500e+02
1.250000e+02
1.312500e+02
1.375000e+02
1.437500e+02
1.500000e+02
1.562500e+02
1.625000e+02
1.687500e+02
1.750000e+02
1.812500e+02
1.875000e+02
1.937500e+02
2.000000e+02
0.000000e+00
6.250000e+00
1.250000e+01
1.875000e+01
2.500000e+01
3.125000e+01
3.750000e+01
4.375000e+01
5.000000e+01
5.625000e+01
6.250000e+01
6.875000e+01
7.500000e+01
8.125000e+01
8.750000e+01
9.375000e+01
1.000000e+02
1.062500e+02
1.125000e+02
1.187500e+02
1.250000e+02
1.312500e+02
1.375000e+02
1.437500e+02
1.500000e+02
1.562500e+02
1.625000e+02
1.687500e+02
1.750000e+02
1.812500e+02
1.875000e+02
1.937500e+02
2.000000e+02
0.000000e+00
6.250000e+00
1.250000e+01
1.875000e+01
2.500000e+01
3.125000e+01
3.750000e+01
4.375000e+01
5.000000e+01
5.625000e+01
6.250000e+01
6.875000e+01
7.500000e+01
8.125000e+01
8.750000e+01
9.375000e+01
1.000000e+02
1.062500e+02
1.125000e+02
1.187500e+02
1.250000e+02
1.312500e+02
1.375000e+02
1.437500e+02
1.500000e+02
1.562500e+02
1.625000e+02
1.687500e+02
1.750000e+02
1.812500e+02
1.875000e+02
1.937500e+02
2.000000e+02
0.000000e+00
6.250000e+00
1.250000e+01
1.875000e+01
2.500000e+01
3.125000e+01
3.750000e+01
4.375000e+01
5.000000e+01
5.625000e+01
6.250000e+01
6.875000e+01
7.500000e+01
8.125000e+01
8.750000e+01
9.375000e+01
1.000000e+02
1.062500e+02
1.125000e+02
1.187500e+02
1.250000e+02
1.312500e+02
1.375000e+02
1.437500e+02
1.500000e+02
1.562500e+02
1.625000e+02
1.687500e+02
1.750000e+02
1.812500e+02
1.875000e+02
1.937500e+02
2.000000e+02
0.000000e+00
6.250000e+00
1.250000e+01
1.875000e+01
2.500000e+01
3.125000e+01
3.750000e+01
4.375000e+01
5.000000e+01
5.625000e+01
6.250000e+01
6.875000e+01
7.500000e+01
8.125000e+01
8.750000e+01
9.375000e+01
1.000000e+02
1.062500e+02
1.125000e+02
1.187500e+02
1.250000e+02
1.312500e+02
1.375000e+02
1.437500e+02
1.500000e+02
1.562500e+02
1.625000e+02
1.687500e+02
1.750000e+02
1.812500e+02
1.875000e+02
1.937500e+02
2.000000e+02
0.000000e+00
6.250000e+00
1.250000e+01
1.875000e+01
2.500000e+01
3.125000e+01
3.750000e+01
4.375000e+01
5.000000e+01
5.625000e+01
6.250000e+01
6.875000e+01
7.500000e+01
8.125000e+01
8.750000e+01
9.375000e+01
1.000000e+02
1.062500e+02
1.125000e+02
1.187500e+02
1.250000e+02
1.312500e+02
1.375000e+02
1.437500e+02
1.500000e+02
1.562500e+02
1.625000e+02
1.687500e+02
1.750000e+02
1.812500e+02
1.875000e+02
1.937500e+02
2.000000e+02
0.000000e+00
6.250000e+00
1.250000e+01
1.875000e+01
2.500000e+01
3.125000e+01
3.750000e+01
4.375000e+01
5.000000e+01
5.625000e+01
6.250000e+01
6.875000e+01
7.500000e+01
8.125000e+01
8.750000e+01
9.375000e+01
1.000000e+02
1.062500e+02
1.125000e+02
1.187500e+02
1.250000e+02
1.312500e+02
1.375000e+02
1.437500e+02
1.500000e+02
1.562500e+02
1.625000e+02
1.687500e+02
1.750000e+02
1.812500e+02
1.875000e+02
1.937500e+02
2.000000e+02
0.000000e+00
6.250000e+00
1.250000e+01
1.875000e+01
2.500000e+01
3.125000e+01
3.750000e+01
4.375000e+01
5.000000e+01
5.625000e+01
6.250000e+01
6.875000e+01
7.500000e+01
8.125000e+01
8.750000e+01
9.375000e+01
1.000000e+02
1.062500e+02
1.125000e+02
1.187500e+02
1.250000e+02
1.312500e+02
1.375000e+02
1.437500e+02
1.500000e+02
1.562500e+02
1.625000e+02
1.687500e+02
1.750000e+02
1.812500e+02
1.875000e+02
1.937500e+02
2.000000e+02
0.000000e+00
6.250000e+00
1.250000e+01
1.875000e+01
2.500000e+01
3.125000e+01
3.750000e+01
4.375000e+01
5.000000e+01
5.625000e+01
6.250000e+01
6.875000e+01
7.500000e+01
8.125000e+01
8.750000e+01
9.375000e+01
1.000000e+02
1.062500e+02
1.125000e+02
1.187500e+02
1.250000e+02
1.312500e+02
1.375000e+02
1.437500e+02
1.500000e+02
1.562500e+02
1.625000e+02
1.687500e+02
1.750000e+02
1.812500e+02
1.875000e+02
1.937500e+02
2.000000e+02
0.000000e+00
0.000000e+00
0.000000e+00
0.000000e+00
0.000000e+00
0.000000e+00
0.000000e+00
0.000000e+00
0.000000e+00
0.000000e+00
0.000000e+00
0.000000e+00
0.000000e+00
0.000000e+00
0.000000e+00
0.000000e+00
0.000000e+00
0.000000e+00
0.000000e+00
0.000000e+00
0.000000e+00
0.000000e+00
0.000000e+00
0.000000e+00
0.000000e+00
0.000000e+00
0.000000e+00
0.000000e+00
0.000000e+00
0.000000e+00
0.000000e+00
0.000000e+00
0.000000e+00
6.250000e+00
6.250000e+00
6.250000e+00
6.250000e+00
6.250000e+00
6.250000e+00
6.250000e+00
6.250000e+00
6.250000e+00
6.250000e+00
6.250000e+00
6.250000e+00
6.250000e+00
6.250000e+00
6.250000e+00
6.250000e+00
6.250000e+00
6.250000e+00
6.250000e+00
6.250000e+00
6.250000e+00
6.250000e+00
6.250000e+00
6.250000e+00
6.250000e+00
6.250000e+00
6.250000e+00
6.250000e+00
6.250000e+00
6.250000e+00
6.250000e+00
6.250000e+00
6.250000e+00
1.250000e+01
1.250000e+01
1.250000e+01
1.250000e+01
1.250000e+01
1.250000e+01
1.250000e+01
1.250000e+01
1.250000e+01
1.250000e+01
1.250000e+01
1.250000e+01
1.250000e+01
1.250000e+01
1.250000e+01
1.250000e+01
1.250000e+01
1.250000e+01
1.250000e+01
1.250000e+01
1.250000e+01
1.250000e+01
1.250000e+01
1.250000e+01
1.250000e+01
1.250000e+01
1.250000e+01
1.250000e+01
1.250000e+01
1.250000e+01
1.250000e+01
1.250000e+01
1.250000e+01
1.875000e+01
1.875000e+01
1.875000e+01
1.875000e+01
1.875000e+01
1.875000e+01
1.875000e+01
1.875000e+01
1.875000e+01
1.875000e+01
1.875000e+01
1.875000e+01
1.875000e+01
1.875000e+01
1.875000e+01
1.875000e+01
1.875000e+01
1.875000e+01
1.875000e+01
1.875000e+01
1.875000e+01
1.875000e+01
1.875000e+01
1.875000e+01
1.875000e+01
1.875000e+01
1.875000e+01
1.875000e+01
1.875000e+01
1.875000e+01
1.875000e+01
1.875000e+01
1.875000e+01
2.500000e+01
2.500000e+01
2.500000e+01
2.500000e+01
2.500000e+01
2.500000e+01
2.500000e+01
2.500000e+01
2.500000e+01
2.500000e+01
2.500000e+01
2.500000e+01
2.500000e+01
2.500000e+01
2.500000e+01
2.500000e+01
2.500000e+01
2.500000e+01
2.500000e+01
2.500000e+01
2.500000e+01
2.500000e+01
2.500000e+01
2.500000e+01
2.500000e+01
2.500000e+01
2.500000e+01
2.500000e+01
2.500000e+01
2.500000e+01
2.500000e+01
2.500000e+01
2.500000e+01
3.125000e+01
3.125000e+01
3.125000e+01
3.125000e+01
3.125000e+01
3.125000e+01
3.125000e+01
3.125000e+01
3.125000e+01
3.125000e+01
3.125000e+01
3.125000e+01
3.125000e+01
3.125000e+01
3.125000e+01
3.125000e+01
3.125000e+01
3.125000e+01
3.125000e+01
3.125000e+01
3.125000e+01
3.125000e+01
3.125000e+01
3.125000e+01
3.125000e+01
3.125000e+01
3.125000e+01
3.125000e+01
3.125000e+01
3.125000e+01
3.125000e+01
3.125000e+01
3.125000e+01
3.750000e+01
3.750000e+01
3.750000e+01
3.750000e+01
3.750000e+01
3.750000e+01
3.750000e+01
3.750000e+01
3.750000e+01
3.750000e+01
3.750000e+01
3.750000e+01
3.750000e+01
3.750000e+01
3.750000e+01
3.750000e+01
3.750000e+01
3.750000e+01
3.750000e+01
3.750000e+01
3.750000e+01
3.750000e+01
3.750000e+01
3.750000e+01
3.750000e+01
3.750000e+01
3.750000e+01
3.750000e+01
3.750000e+01
3.750000e+01
3.750000e+01
3.750000e+01
3.750000e+01
4.375000e+01
4.375000e+01
4.375000e+01
4.375000e+01
4.375000e+01
4.375000e+01
4.375000e+01
4.375000e+01
4.375000e+01
4.375000e+01
4.375000e+01
4.375000e+01
4.375000e+01
4.375000e+01
4.375000e+01
4.375000e+01
4.375000e+01
4.375000e+01
4.375000e+01
4.375000e+01
4.375000e+01
4.375000e+01
4.375000e+01
4.375000e+01
4.375000e+01
4.375000e+01
4.375000e+01
4.375000e+01
4.375000e+01
4.375000e+01
4.375000e+01
4.375000e+01
4.375000e+01
5.000000e+01
5.000000e+01
5.000000e+01
5.000000e+01
5.000000e+01
5.000000e+01
5.000000e+01
5.000000e+01
5.000000e+01
5.000000e+01
5.000000e+01
5.000000e+01
5.000000e+01
5.000000e+01
5.000000e+01
5.000000e+01
5.000000e+01
5.000000e+01
5.000000e+01
5.000000e+01
5.000000e+01
5.000000e+01
5.000000e+01
5.000000e+01
5.000000e+01
5.000000e+01
5.000000e+01
5.000000e+01
5.000000e+01
5.000000e+01
5.000000e+01
5.000000e+01
5.000000e+01
5.625000e+01
5.625000e+01
5.625000e+01
5.625000e+01
5.625000e+01
5.625000e+01
5.625000e+01
5.625000e+01
5.625000e+01
5.625000e+01
5.625000e+01
5.625000e+01
5.625000e+01
5.625000e+01
5.625000e+01
5.625000e+01
5.625000e+01
5.625000e+01
5.625000e+01
5.625000e+01
5.625000e+01
5.625000e+01
5.625000e+01
5.625000e+01
5.625000e+01
5.625000e+01
5.625000e+01
5.625000e+01
5.625000e+01
5.625000e+01
5.625000e+01
5.625000e+01
5.625000e+01
6.250000e+01
6.250000e+01
6.250000e+01
6.250000e+01
6.250000e+01
6.250000e+01
6.250000e+01
6.250000e+01
6.250000e+01
6.250000e+01
6.250000e+01
6.250000e+01
6.250000e+01
6.250000e+01
6.250000e+01
6.250000e+01
6.250000e+01
6.250000e+01
6.250000e+01
6.250000e+01
6.250000e+01
6.250000e+01
6.250000e+01
6.250000e+01
6.250000e+01
6.250000e+01
6.250000e+01
6.250000e+01
6.250000e+01
6.250000e+01
6.250000e+01
6.250000e+01
6.250000e+01
6.875000e+01
6.875000e+01
6.875000e+01
6.875000e+01
6.875000e+01
6.875000e+01
6.875000e+01
6.875000e+01
6.875000e+01
6.875000e+01
6.875000e+01
6.875000e+01
6.875000e+01
6.875000e+01
6.875000e+01
6.875000e+01
6.875000e+01
6.875000e+01
6.875000e+01
6.875000e+01
6.875000e+01
6.875000e+01
6.875000e+01
6.875000e+01
6.875000e+01
6.875000e+01
6.875000e+01
6.875000e+01
6.875000e+01
6.875000e+01
6.875000e+01
6.875000e+01
6.875000e+01
7.500000e+01
7.500000e+01
7.500000e+01
7.500000e+01
7.500000e+01
7.500000e+01
7.500000e+01
7.500000e+01
7.500000e+01
7.500000e+01
7.500000e+01
7.500000e+01
7.500000e+01
7.500000e+01
7.500000e+01
7.500000e+01
7.500000e+01
7.500000e+01
7.500000e+01
7.500000e+01
7.500000e+01
7.500000e+01
7.500000e+01
7.500000e+01
7.500000e+01
7.500000e+01
7.500000e+01
7.500000e+01
7.500000e+01
7.500000e+01
7.500000e+01
7.500000e+01
7.500000e+01
8.125000e+01
8.125000e+01
8.125000e+01
8.125000e+01
8.125000e+01
8.125000e+01
8.125000e+01
8.125000e+01
8.125000e+01
8.125000e+01
8.125000e+01
8.125000e+01
8.125000e+01
8.125000e+01
8.125000e+01
8.125000e+01
8.125000e+01
8.125000e+01
8.125000e+01
8.125000e+01
8.125000e+01
8.125000e+01
8.125000e+01
8.125000e+01
8.125000e+01
8.125000e+01
8.125000e+01
8.125000e+01
8.125000e+01
8.125000e+01
8.125000e+01
8.125000e+01
8.125000e+01
8.750000e+01
8.750000e+01
8.750000e+01
8.750000e+01
8.750000e+01
8.750000e+01
8.750000e+01
8.750000e+01
8.750000e+01
8.750000e+01
8.750000e+01
8.750000e+01
8.750000e+01
8.750000e+01
8.750000e+01
8.750000e+01
8.750000e+01
8.750000e+01
8.750000e+01
8.750000e+01
8.750000e+01
8.750000e+01
8.750000e+01
8.750000e+01
8.750000e+01
8.750000e+01
8.750000e+01
8.750000e+01
8.750000e+01
8.750000e+01
8.750000e+01
8.750000e+01
8.750000e+01
9.375000e+01
9.375000e+01
9.375000e+01
9.375000e+01
9.375000e+01
9.375000e+01
9.375000e+01
9.375000e+01
9.375000e+01
9.375000e+01
9.375000e+01
9.375000e+01
9.375000e+01
9.375000e+01
9.375000e+01
9.375000e+01
9.375000e+01
9.375000e+01
9.375000e+01
9.375000e+01
9.375000e+01
9.375000e+01
9.375000e+01
9.375000e+01
9.375000e+01
9.375000e+01
9.375000e+01
9.375000e+01
9.375000e+01
9.375000e+01
9.375000e+01
9.375000e+01
9.375000e+01
1.000000e+02
1.000000e+02
1.000000e+02
1.000000e+02
1.000000e+02
1.000000e+02
1.000000e+02
1.000000e+02
1.000000e+02
1.000000e+02
1.000000e+02
1.000000e+02
1.000000e+02
1.000000e+02
1.000000e+02
1.000000e+02
1.000000e+02
1.000000e+02
1.000000e+02
1.000000e+02
1.000000e+02
1.000000e+02
1.000000e+02
1.000000e+02
1.000000e+02
1.000000e+02
1.000000e+02
1.000000e+02
1.000000e+02
1.000000e+02
1.000000e+02
1.000000e+02
1.000000e+02
0.000000e+00
-4.114410e-01
-7.317428e-01
-1.048168e+00
-1.361136e+00
-1.659032e+00
-1.964444e+00
-2.265061e+00
-2.561970e+00
-2.862353e+00
-3.160596e+00
-3.457765e+00
-3.756418e+00
-4.054140e+00
-4.351421e+00
-4.649268e+00
-4.946686e+00
-5.243879e+00
-5.541340e+00
-5.838710e+00
-6.136139e+00
-6.434140e+00
-6.732968e+00
-7.033268e+00
-7.336339e+00
-7.643348e+00
-7.955687e+00
-8.277467e+00
-8.616717e+00
-8.985590e+00
-9.395532e+00
-9.787023e+00
-9.993416e+00
0.000000e+00
-2.370804e-01
-4.894123e-01
-7.507989e-01
-1.017116e+00
-1.272847e+00
-1.537558e+00
-1.799894e+00
-2.059369e+00
-2.322340e+00
-2.583702e+00
-2.844039e+00
-3.105685e+00
-3.366507e+00
-3.626797e+00
-3.887460e+00
-4.147610e+00
-4.407338e+00
-4.667049e+00
-4.926395e+00
-5.185392e+00
-5.444288e+00
-5.702946e+00
-5.961347e+00
-6.219697e+00
-6.477465e+00
-6.733508e+00
-6.988032e+00
-7.242208e+00
-7.488966e+00
-7.685617e+00
-7.770157e+00
-7.872226e+00
0.000000e+00
-1.487387e-01
-3.130616e-01
-5.115770e-01
-7.239317e-01
-9.342132e-01
-1.155931e+00
-1.378296e+00
-1.600236e+00
-1.825774e+00
-2.050697e+00
-2.275292e+00
-2.501049e+00
-2.726325e+00
-2.951272e+00
-3.176414e+00
-3.401042e+00
-3.625133e+00
-3.848819e+00
-4.071697e+00
-4.293517e+00
-4.513983e+00
-4.732337e+00
-4.947665e+00
-5.158764e+00
-5.363339e+00
-5.558001e+00
-5.738942e+00
-5.899978e+00
-6.025048e+00
-6.078091e+00
-6.078360e+00
-6.169223e+00
0.000000e+00
-9.963747e-02
-2.077829e-01
-3.475501e-01
-5.037378e-01
-6.687236e-01
-8.468478e-01
-1.028335e+00
-1.212594e+00
-1.400777e+00
-1.589430e+00
-1.778718e+00
-1.969056e+00
-2.159227e+00
-2.349308e+00
-2.539330e+00
-2.728699e+00
-2.917254e+00
-3.104758e+00
-3.290600e+00
-3.474105e+00
-3.654324e+00
-3.829908e+00
-3.999222e+00
-4.160048e+00
-4.309026e+00
-4.441653e+00
-4.552426e+00
-4.633629e+00
-4.674056e+00
-4.671451e+00
-4.678989e+00
-4.758813e+00
0.000000e+00
-8.872753e-02
-1.754173e-01
-2.781170e-01
-3.910268e-01
-5.170784e-01
-6.520810e-01
-7.922551e-01
-9.374099e-01
-1.085521e+00
-1.235060e+00
-1.385842e+00
-1.537158e+00
-1.688559e+00
-1.839913e+00
-1.990782e+00
-2.140769e+00
-2.289517e+00
-2.436446e+00
-2.580786e+00
-2.721530e+00
-2.857371e+00
-2.986716e+00
-3.107584e+00
-3.217347e+00
-3.312547e+00
-3.389033e+00
-3.442360e+00
-3.468564e+00
-3.466978e+00
-3.453880e+00
-3.479819e+00
-3.557856e+00
0.000000e+00
-7.078221e-02
-1.413906e-01
-2.155109e-01
-2.984904e-01
-3.887669e-01
-4.857052e-01
-5.881332e-01
-6.943162e-01
-8.032106e-01
-9.138828e-01
-1.025464e+00
-1.137509e+00
-1.249668e+00
-1.361530e+00
-1.472699e+00
-1.582736e+00
-1.691111e+00
-1.797151e+00
-1.899963e+00
-1.998398e+00
-2.091042e+00
-2.176173e+00
-2.251714e+00
-2.315211e+00
-2.363890e+00
-2.394930e+00
-2.406307e+00
-2.398711e+00
-2.378878e+00
-2.371429e+00
-2.404389e+00
-2.479973e+00
0.000000e+00
-4.886508e-02
-9.746358e-02
-1.479863e-01
-2.022578e-01
-2.611558e-01
-3.242288e-01
-3.908506e-01
-4.602084e-01
-5.314677e-01
-6.039303e-01
-6.770141e-01
-7.502781e-01
-8.233795e-01
-8.959583e-01
-9.676106e-01
-1.037891e+00
-1.106269e+00
-1.172058e+00
-1.234375e+00
-1.292095e+00
-1.343828e+00
-1.387913e+00
-1.422477e+00
-1.445560e+00
-1.455344e+00
-1.450623e+00
-1.431842e+00
-1.402888e+00
-1.374572e+00
-1.369603e+00
-1.405787e+00
-1.479003e+00
0.000000e+00
-2.506491e-02
-5.010050e-02
-7.579710e-02
-1.030378e-01
-1.322249e-01
-1.633437e-01
-1.960784e-01
-2.300286e-01
-2.647695e-01
-2.998915e-01
-3.350394e-01
-3.699159e-01
-4.042494e-01
-4.377513e-01
-4.700915e-01
-5.008863e-01
-5.296698e-01
-5.558462e-01
-5.786459e-01
-5.970949e-01
-6.099982e-01
-6.159701e-01
-6.135415e-01
-6.013736e-01
-5.786405e-01
-5.457042e-01
-5.052263e-01
-4.635355e-01
-4.322586e-01
-4.295841e-01
-4.666506e-01
-5.374765e-01
0.000000e+00
-6.675030e-04
-1.258199e-03
-1.745093e-03
-2.095692e-03
-2.268218e-03
-2.211451e-03
-1.863428e-03
-1.149150e-03
1.968081e-05
1.744000e-03
4.139132e-03
7.338718e-03
1.149961e-02
1.680877e-02
2.349299e-02
3.183251e-02
4.217930e-02
5.498034e-02
7.080303e-02
9.035525e-02
1.144836e-01
1.441250e-01
1.801687e-01
2.231733e-01
2.728798e-01
3.274399e-01
3.824242e-01
4.302046e-01
4.598431e-01
4.590177e-01
4.223534e-01
3.572806e-01
0.000000e+00
2.377080e-02
4.766455e-02
7.242534e-02
9.900409e-02
1.278869e-01
1.591584e-01
1.926222e-01
2.280214e-01
2.650993e-01
3.036404e-01
3.435130e-01
3.846802e-01
4.271755e-01
4.710729e-01
5.164802e-01
5.635527e-01
6.125030e-01
6.635940e-01
7.171317e-01
7.734637e-01
8.329605e-01
8.959513e-01
9.625628e-01
1.032393e+00
1.104019e+00
1.174365e+00
1.238119e+00
1.287756e+00
1.314571e+00
1.311631e+00
1.278586e+00
1.224678e+00
0.000000e+00
4.767649e-02
9.523145e-02
1.449078e-01
1.986077e-01
2.572909e-01
3.205992e-01
3.880181e-01
4.588657e-01
5.324575e-01
6.082702e-01
6.859278e-01
7.652293e-01
8.461094e-01
9.285330e-01
1.012478e+00
1.097958e+00
1.185018e+00
1.273701e+00
1.364000e+00
1.455827e+00
1.548983e+00
1.643101e+00
1.737476e+00
1.830739e+00
1.920453e+00
2.002792e+00
2.072485e+00
2.123365e+00
2.149754e+00
2.148808e+00
2.123421e+00
2.083704e+00
0.000000e+00
6.972109e-02
1.393828e-01
2.127456e-01
2.952332e-01
3.853579e-01
4.825725e-01
5.858101e-01
6.934550e-01
8.045995e-01
9.184662e-01
1.034374e+00
1.152093e+00
1.271510e+00
1.392477e+00
1.514874e+00
1.638565e+00
1.763376e+00
1.889071e+00
2.015276e+00
2.141416e+00
2.266721e+00
2.390203e+00
2.510443e+00
2.625247e+00
2.731459e+00
2.825039e+00
2.901426e+00
2.956221e+00
2.986280e+00
2.991308e+00
2.975713e+00
2.949947e+00
0.000000e+00
8.773310e-02
1.735519e-01
2.755009e-01
3.879246e-01
5.137894e-01
6.489498e-01
7.897430e-01
9.360844e-01
1.086059e+00
1.238299e+00
1.392791e+00
1.549021e+00
1.706753e+00
1.866050e+00
2.026639e+00
2.188234e+00
2.350526e+00
2.512957e+00
2.674738e+00
2.834830e+00
2.992002e+00
3.144790e+00
3.291105e+00
3.427940e+00
3.551554e+00
3.657985e+00
3.743589e+00
3.805525e+00
3.842423e+00
3.855408e+00
3.849608e+00
3.835799e+00
0.000000e+00
9.866997e-02
2.059690e-01
3.449835e-01
5.005879e-01
6.652075e-01
8.431674e-01
1.024759e+00
1.209501e+00
1.398626e+00
1.588800e+00
1.780363e+00
1.973906e+00
2.168388e+00
2.364068e+00
2.561109e+00
2.758911e+00
2.957166e+00
3.155361e+00
3.352351e+00
3.546724e+00
3.736982e+00
3.921132e+00
4.095960e+00
4.257103e+00
4.400006e+00
4.520839e+00
4.616970e+00
4.687113e+00
4.731473e+00
4.752276e+00
4.754955e+00
4.750248e+00
0.000000e+00
1.480725e-01
3.118102e-01
5.097888e-01
7.216724e-01
9.315718e-01
1.152959e+00
1.375063e+00
1.596863e+00
1.822409e+00
2.047525e+00
2.272589e+00
2.499189e+00
2.725750e+00
2.952518e+00
3.180121e+00
3.407808e+00
3.635395e+00
3.862831e+00
4.089160e+00
4.313100e+00
4.533369e+00
4.747592e+00
4.950892e+00
5.136564e+00
5.298459e+00
5.432571e+00
5.537344e+00
5.613265e+00
5.662404e+00
5.688358e+00
5.696853e+00
5.697757e+00
0.000000e+00
2.369531e-01
4.892079e-01
7.504945e-01
1.016689e+00
1.272302e+00
1.536863e+00
1.798984e+00
2.058203e+00
2.320850e+00
2.581775e+00
2.841555e+00
3.102515e+00
3.362428e+00
3.621509e+00
3.880640e+00
4.138771e+00
4.395769e+00
4.652023e+00
4.906896e+00
5.159432e+00
5.408663e+00
5.651779e+00
5.882024e+00
6.090069e+00
6.267911e+00
6.411151e+00
6.519136e+00
6.594131e+00
6.640553e+00
6.664510e+00
6.673281e+00
6.675404e+00
0.000000e+00
4.120311e-01
7.328273e-01
1.049706e+00
1.363039e+00
1.661272e+00
1.966981e+00
2.267786e+00
2.564804e+00
2.865166e+00
3.163158e+00
3.459802e+00
3.757568e+00
4.053841e+00
4.348924e+00
4.643698e+00
4.936907e+00
5.228516e+00
5.519097e+00
5.808138e+00
6.094788e+00
6.377724e+00
6.652665e+00
6.910335e+00
7.138933e+00
7.328926e+00
7.475398e+00
7.578012e+00
7.640233e+00
7.668987e+00
7.674773e+00
7.670879e+00
7.668561e+00
0.000000e+00
-2.495415e-01
-4.971608e-01
-8.076843e-01
-1.158855e+00
-1.550141e+00
-1.982990e+00
-2.451366e+00
-2.957529e+00
-3.501404e+00
-4.081438e+00
-4.699008e+00
-5.354156e+00
-6.046449e+00
-6.776572e+00
-7.544638e+00
-8.350564e+00
-9.194748e+00
-1.007738e+01
-1.099854e+01
-1.195855e+01
-1.295775e+01
-1.399662e+01
-1.507611e+01
-1.619771e+01
-1.736371e+01
-1.857848e+01
-1.984981e+01
-2.118840e+01
-2.260749e+01
-2.413942e+01
-2.594177e+01
-2.845810e+01
0.000000e+00
-1.550800e-01
-4.152669e-01
-7.217793e-01
-1.075261e+00
-1.466565e+00
-1.898421e+00
-2.367923e+00
-2.873799e+00
-3.417369e+00
-3.997886e+00
-4.615308e+00
-5.270368e+00
-5.962895e+00
-6.692997e+00
-7.461078e+00
-8.267156e+00
-9.111383e+00
-9.994064e+00
-1.091533e+01
-1.187538e+01
-1.287458e+01
-1.391341e+01
-1.499274e+01
-1.611405e+01
-1.727977e+01
-1.849397e+01
-1.976381e+01
-2.110083e+01
-2.252250e+01
-2.407071e+01
-2.584937e+01
-2.810275e+01
0.000000e+00
-1.227033e-01
-3.566382e-01
-6.585294e-01
-1.009070e+00
-1.397788e+00
-1.828204e+00
-2.297036e+00
-2.802148e+00
-3.345363e+00
-3.925789e+00
-4.543017e+00
-5.198037e+00
-5.890642e+00
-6.620804e+00
-7.389028e+00
-8.195321e+00
-9.039789e+00
-9.922783e+00
-1.084445e+01
-1.180500e+01
-1.280483e+01
-1.384451e+01
-1.492495e+01
-1.604781e+01
-1.721566e+01
-1.843256e+01
-1.970604e+01
-2.105050e+01
-2.249319e+01
-2.406400e+01
-2.573875e+01
-2.749675e+01
0.000000e+00
-1.274370e-01
-3.373596e-01
-6.252523e-01
-9.659656e-01
-1.348333e+00
-1.775034e+00
-2.240773e+00
-2.744055e+00
-3.286243e+00
-3.865859e+00
-4.482686e+00
-5.137542e+00
-5.830109e+00
-6.560452e+00
-7.328991e+00
-8.135720e+00
-8.980812e+00
-9.864619e+00
-1.078734e+01
-1.174925e+01
-1.275082e+01
-1.379269e+01
-1.487593e+01
-1.600236e+01
-1.717460e+01
-1.839675e+01
-1.967682e+01
-2.103072e+01
-2.248576e+01
-2.404059e+01
-2.558299e+01
-2.699756e+01
0.000000e+00
-1.478255e-01
-3.497405e-01
-6.229739e-01
-9.485660e-01
-1.322084e+00
-1.741275e+00
-2.201426e+00
-2.701531e+00
-3.241378e+00
-3.819481e+00
-4.435642e+00
-5.090090e+00
-5.782611e+00
-6.513318e+00
-7.282406e+00
-8.089941e+00
-8.936171e+00
-9.821434e+00
-1.074602e+01
-1.171027e+01
-1.271469e+01
-1.375995e+01
-1.484721e+01
-1.597826e+01
-1.715552e+01
-1.838272e+01
-1.966678e+01
-2.102108e+01
-2.246224e+01
-2.396123e+01
-2.537930e+01
-2.662866e+01
0.000000e+00
-1.565452e-01
-3.626792e-01
-6.256591e-01
-9.424356e-01
-1.307926e+00
-1.719857e+00
-2.175006e+00
-2.671676e+00
-3.208987e+00
-3.785678e+00
-4.401141e+00
-5.055264e+00
-5.747930e+00
-6.479172e+00
-7.249080e+00
-8.057778e+00
-8.905565e+00
-9.792812e+00
-1.071988e+01
-1.168718e+01
-1.269517e+01
-1.374450e+01
-1.483616e+01
-1.597162e+01
-1.715272e+01
-1.838199e+01
-1.966333e+01
-2.100389e+01
-2.240903e+01
-2.382756e+01
-2.515058e+01
-2.629933e+01
0.000000e+00
-1.603323e-01
-3.688241e-01
-6.286705e-01
-9.398460e-01
-1.300177e+00
-1.707081e+00
-2.158386e+00
-2.652398e+00
-3.187781e+00
-3.763379e+00
-4.378394e+00
-5.032459e+00
-5.725473e+00
-6.457426e+00
-7.228356e+00
-8.038432e+00
-8.887998e+00
-9.777473e+00
-1.070728e+01
-1.167785e+01
-1.268959e+01
-1.374296e+01
-1.483857e+01
-1.597718e+01
-1.715961e+01
-1.838652e+01
-1.965781e+01
-2.097361e+01
-2.232927e+01
-2.367189e+01
-2.491791e+01
-2.599599e+01
0.000000e+00
-1.620236e-01
-3.715415e-01
-6.304116e-01
-9.390985e-01
-1.296496e+00
-1.700716e+00
-2.149854e+00
-2.642317e+00
-3.176713e+00
-3.751831e+00
-4.366797e+00
-5.021155e+00
-5.714755e+00
-6.447572e+00
-7.219641e+00
-8.031155e+00
-8.882499e+00
-9.774142e+00
-1.070655e+01
-1.168013e+01
-1.269522e+01
-1.375196e+01
-1.485035e+01
-1.599021e+01
-1.717094e+01
-1.839103e+01
-1.964672e+01
-2.093185e+01
-2.223455e+01
-2.350847e+01
-2.468795e+01
-2.570832e+01
0.000000e+00
-1.625529e-01
-3.724617e-01
-6.312202e-01
-9.393436e-01
-1.296029e+00
-1.699618e+00
-2.148336e+00
-2.640617e+00
-3.175067e+00
-3.750464e+00
-4.365910e+00
-5.020927e+00
-5.715351e+00
-6.449157e+00
-7.222391e+00
-8.035262e+00
-8.888184e+00
-9.781663e+00
-1.071618e+01
-1.169211e+01
-1.270963e+01
-1.376853e+01
-1.486812e+01
-1.600710e+01
-1.718331e+01
-1.839306e+01
-1.962962e+01
-2.088239e+01
-2.213417e+01
-2.334641e+01
-2.446648e+01
-2.543959e+01
0.000000e+00
-1.622033e-01
-3.720028e-01
-6.312561e-01
-9.404459e-01
-1.298471e+00
-1.703444e+00
-2.153467e+00
-2.646961e+00
-3.182539e+00
-3.758991e+00
-4.375453e+00
-5.031474e+00
-5.726918e+00
-6.461777e+00
-7.236111e+00
-8.050133e+00
-8.904267e+00
-9.799029e+00
-1.073488e+01
-1.171214e+01
-1.273081e+01
-1.379034e+01
-1.488939e+01
-1.602556e+01
-1.719512e+01
-1.839231e+01
-1.960813e+01
-2.082925e+01
-2.203595e+01
-2.319638e+01
-2.426911e+01
-2.521098e+01
0.000000e+00
-1.607001e-01
-3.697434e-01
-6.303428e-01
-9.425084e-01
-1.304074e+00
-1.712454e+00
-2.165494e+00
-2.661525e+00
-3.199217e+00
-3.777418e+00
-4.395344e+00
-5.052644e+00
-5.749229e+00
-6.485120e+00
-7.260393e+00
-8.075250e+00
-8.930094e+00
-9.825423e+00
-1.076166e+01
-1.173900e+01
-1.275733e+01
-1.381588e+01
-1.491284e+01
-1.604482e+01
-1.720654e+01
-1.839040e+01
-1.958568e+01
-2.077780e+01
-2.194732e+01
-2.306822e+01
-2.410932e+01
-2.503778e+01
0.000000e+00
-1.570990e-01
-3.640206e-01
-6.280978e-01
-9.463131e-01
-1.313596e+00
-1.727673e+00
-2.185335e+00
-2.684927e+00
-3.225575e+00
-3.806019e+00
-4.425670e+00
-5.084431e+00
-5.782189e+00
-6.519000e+00
-7.294984e+00
-8.110288e+00
-8.965260e+00
-9.860359e+00
-1.079593e+01
-1.177207e+01
-1.278862e+01
-1.384486e+01
-1.493868e+01
-1.606582e+01
-1.721950e+01
-1.839050e+01
-1.956695e+01
-2.073420e+01
-2.187469e+01
-2.296789e+01
-2.399116e+01
-2.492077e+01
0.000000e+00
-1.485236e-01
-3.513860e-01
-6.260233e-01
-9.534411e-01
-1.329222e+00
-1.751144e+00
-2.214479e+00
-2.718273e+00
-3.262345e+00
-3.845183e+00
-4.466614e+00
-5.126887e+00
-5.825756e+00
-6.563325e+00
-7.339790e+00
-8.155182e+00
-9.009744e+00
-9.903885e+00
-1.083786e+01
-1.181172e+01
-1.282543e+01
-1.387854e+01
-1.496882e+01
-1.609107e+01
-1.723714e+01
-1.839645e+01
-1.955651e+01
-2.070330e+01
-2.182173e+01
-2.289619e+01
-2.391139e+01
-2.485258e+01
0.000000e+00
-1.281288e-01
-3.390916e-01
-6.286039e-01
-9.714243e-01
-1.356388e+00
-1.786249e+00
-2.255660e+00
-2.763188e+00
-3.310258e+00
-3.895342e+00
-4.518248e+00
-5.179831e+00
-5.879687e+00
-6.617824e+00
-7.394618e+00
-8.209930e+00
-9.063808e+00
-9.956632e+00
-1.088858e+01
-1.185969e+01
-1.287018e+01
-1.391994e+01
-1.500654e+01
-1.612388e+01
-1.726261e+01
-1.841125e+01
-1.955721e+01
-2.068741e+01
-2.178902e+01
-2.285056e+01
-2.386333e+01
-2.482213e+01
0.000000e+00
-1.232089e-01
-3.582431e-01
-6.618257e-01
-1.014600e+00
-1.406054e+00
-1.839800e+00
-2.312524e+00
-2.822126e+00
-3.370524e+00
-3.956779e+00
-4.580502e+00
-5.242734e+00
-5.943158e+00
-6.681649e+00
-7.458624e+00
-8.273857e+00
-9.127215e+00
-1.001897e+01
-1.094924e+01
-1.191805e+01
-1.292578e+01
-1.397233e+01
-1.505488e+01
-1.616659e+01
-1.729746e+01
-1.843581e+01
-1.956940e+01
-2.068609e+01
-2.177472e+01
-2.282677e+01
-2.383901e+01
-2.481616e+01
0.000000e+00
-1.554724e-01
-4.167898e-01
-7.250050e-01
-1.080751e+00
-1.474835e+00
-1.910054e+00
-2.383501e+00
-2.893934e+00
-3.442752e+00
-4.029189e+00
-4.653221e+00
-5.315615e+00
-6.016094e+00
-6.754654e+00
-7.531574e+00
-8.346590e+00
-9.199571e+00
-1.009066e+01
-1.101987e+01
-1.198727e+01
-1.299310e+01
-1.403668e+01
-1.511443e+01
-1.621906e+01
-1.734075e+01
-1.846842e+01
-1.959058e+01
-2.069595e+01
-2.177438e+01
-2.281906e+01
-2.383016e+01
-2.482010e+01
0.000000e+00
-2.500226e-01
-4.987387e-01
-8.109596e-01
-1.164383e+00
-1.558456e+00
-1.994654e+00
-2.466961e+00
-2.977671e+00
-3.526762e+00
-4.112677e+00
-4.736812e+00
-5.399216e+00
-6.099344e+00
-6.837777e+00
-7.614480e+00
-8.429060e+00
-9.281663e+00
-1.017233e+01
-1.110086e+01
-1.206732e+01
-1.307162e+01
-1.411198e+01