TITLE = "Solution"
VARIABLES = x, y, u, v, psiu, psiv, t, stress
ZONE T="structure" N=561 E=512 F=FEBLOCK ET=QUADRILATERAL VARLOCATION=([7,8]=cellcentered)
0.000000e+00
6.250000e+00
1.250000e+01
1.875000e+01
2.500000e+01
3.125000e+01
3.750000e+01
4.375000e+01
5.000000e+01
5.625000e+01
6.250000e+01
6.875000e+01
7.500000e+01
8.125000e+01
8.750000e+01
9.375000e+01
1.000000e+02
1.062500e+02
1.125000e+02
1.187500e+02
1.250000e+02
1.312500e+02
1.375000e+02
1.437500e+02
1.500000e+02
1.562500e+02
1.625000e+02
1.687500e+02
1.750000e+02
1.812500e+02
1.875000e+02
1.937500e+02
2.000000e+02
0.000000e+00
6.250000e+00
1.250000e+01
1.875000e+01
2.500000e+01
3.125000e+01
3.750000e+01
4.375000e+01
5.000000e+01
5.625000e+01
6.250000e+01
6.875000e+01
7.500000e+01
8.125000e+01
8.750000e+01
9.375000e+01
1.000000e+02
1.062500e+02
1.125000e+02
1.187500e+02
1.250000e+02
1.312500e+02
1.375000e+02
1.437500e+02
1.500000e+02
1.562500e+02
1.625000e+02
1.687500e+02
1.750000e+02
1.812500e+02
1.875000e+02
1.937500e+02
2.000000e+02
0.000000e+00
6.250000e+00
1.250000e+01
1.875000e+01
2.500000e+01
3.125000e+01
3.750000e+01
4.375000e+01
5.000000e+01
5.625000e+01
6.250000e+01
6.875000e+01
7.500000e+01
8.125000e+01
8.750000e+01
9.375000e+01
1.000000e+02
1.062500e+02
1.125000e+02
1.187500e+02
1.250000e+02
1.312500e+02
1.375000e+02
1.437500e+02
1.500000e+02
1.562500e+02
1.625000e+02
1.687500e+02
1.750000e+02
1.812500e+02
1.875000e+02
1.937500e+02
2.000000e+02
0.000000e+00
6.250000e+00
1.250000e+01
1.875000e+01
2.500000e+01
3.125000e+01
3.750000e+01
4.375000e+01
5.000000e+01
5.625000e+01
6.250000e+01
6.875000e+01
7.500000e+01
8.125000e+01
8.750000e+01
9.375000e+01
1.000000e+02
1.062500e+02
1.125000e+02
1.187500e+02
1.250000e+02
1.312500e+02
1.375000e+02
1.437500e+02
1.500000e+02
1.562500e+02
1.625000e+02
1.687500e+02
1.750000e+02
1.812500e+02
1.875000e+02
1.937500e+02
2.000000e+02
0.000000e+00
6.250000e+00
1.250000e+01
1.875000e+01
2.500000e+01
3.125000e+01
3.750000e+01
4.375000e+01
5.000000e+01
5.625000e+01
6.250000e+01
6.875000e+01
7.500000e+01
8.125000e+01
8.750000e+01
9.375000e+01
1.000000e+02
1.062500e+02
1.125000e+02
1.187500e+02
1.250000e+02
1.312500e+02
1.375000e+02
1.437500e+02
1.500000e+02
1.562500e+02
1.625000e+02
1.687500e+02
1.750000e+02
1.812500e+02
1.875000e+02
1.937500e+02
2.000000e+02
0.000000e+00
6.250000e+00
1.250000e+01
1.875000e+01
2.500000e+01
3.125000e+01
3.750000e+01
4.375000e+01
5.000000e+01
5.625000e+01
6.250000e+01
6.875000e+01
7.500000e+01
8.125000e+01
8.750000e+01
9.375000e+01
1.000000e+02
1.062500e+02
1.125000e+02
1.187500e+02
1.250000e+02
1.312500e+02
1.375000e+02
1.437500e+02
1.500000e+02
1.562500e+02
1.625000e+02
1.687500e+02
1.750000e+02
1.812500e+02
1.875000e+02
1.937500e+02
2.000000e+02
0.000000e+00
6.250000e+00
1.250000e+01
1.875000e+01
2.500000e+01
3.125000e+01
3.750000e+01
4.375000e+01
5.000000e+01
5.625000e+01
6.250000e+01
6.875000e+01
7.500000e+01
8.125000e+01
8.750000e+01
9.375000e+01
1.000000e+02
1.062500e+02
1.125000e+02
1.187500e+02
1.250000e+02
1.312500e+02
1.375000e+02
1.437500e+02
1.500000e+02
1.562500e+02
1.625000e+02
1.687500e+02
1.750000e+02
1.812500e+02
1.875000e+02
1.937500e+02
2.000000e+02
0.000000e+00
6.250000e+00
1.250000e+01
1.875000e+01
2.500000e+01
3.125000e+01
3.750000e+01
4.375000e+01
5.000000e+01
5.625000e+01
6.250000e+01
6.875000e+01
7.500000e+01
8.125000e+01
8.750000e+01
9.375000e+01
1.000000e+02
1.062500e+02
1.125000e+02
1.187500e+02
1.250000e+02
1.312500e+02
1.375000e+02
1.437500e+02
1.500000e+02
1.562500e+02
1.625000e+02
1.687500e+02
1.750000e+02
1.812500e+02
1.875000e+02
1.937500e+02
2.000000e+02
0.000000e+00
6.250000e+00
1.250000e+01
1.875000e+01
2.500000e+01
3.125000e+01
3.750000e+01
4.375000e+01
5.000000e+01
5.625000e+01
6.250000e+01
6.875000e+01
7.500000e+01
8.125000e+01
8.750000e+01
9.375000e+01
1.000000e+02
1.062500e+02
1.125000e+02
1.187500e+02
1.250000e+02
1.312500e+02
1.375000e+02
1.437500e+02
1.500000e+02
1.562500e+02
1.625000e+02
1.687500e+02
1.750000e+02
1.812500e+02
1.875000e+02
1.937500e+02
2.000000e+02
0.000000e+00
6.250000e+00
1.250000e+01
1.875000e+01
2.500000e+01
3.125000e+01
3.750000e+01
4.375000e+01
5.000000e+01
5.625000e+01
6.250000e+01
6.875000e+01
7.500000e+01
8.125000e+01
8.750000e+01
9.375000e+01
1.000000e+02
1.062500e+02
1.125000e+02
1.187500e+02
1.250000e+02
1.312500e+02
1.375000e+02
1.437500e+02
1.500000e+02
1.562500e+02
1.625000e+02
1.687500e+02
1.750000e+02
1.812500e+02
1.875000e+02
1.937500e+02
2.000000e+02
0.000000e+00
6.250000e+00
1.250000e+01
1.875000e+01
2.500000e+01
3.125000e+01
3.750000e+01
4.375000e+01
5.000000e+01
5.625000e+01
6.250000e+01
6.875000e+01
7.500000e+01
8.125000e+01
8.750000e+01
9.375000e+01
1.000000e+02
1.062500e+02
1.125000e+02
1.187500e+02
1.250000e+02
1.312500e+02
1.375000e+02
1.437500e+02
1.500000e+02
1.562500e+02
1.625000e+02
1.687500e+02
1.750000e+02
1.812500e+02
1.875000e+02
1.937500e+02
2.000000e+02
0.000000e+00
6.250000e+00
1.250000e+01
1.875000e+01
2.500000e+01
3.125000e+01
3.750000e+01
4.375000e+01
5.000000e+01
5.625000e+01
6.250000e+01
6.875000e+01
7.500000e+01
8.125000e+01
8.750000e+01
9.375000e+01
1.000000e+02
1.062500e+02
1.125000e+02
1.187500e+02
1.250000e+02
1.312500e+02
1.375000e+02
1.437500e+02
1.500000e+02
1.562500e+02
1.625000e+02
1.687500e+02
1.750000e+02
1.812500e+02
1.875000e+02
1.937500e+02
2.000000e+02
0.000000e+00
6.250000e+00
1.250000e+01
1.875000e+01
2.500000e+01
3.125000e+01
3.750000e+01
4.375000e+01
5.000000e+01
5.625000e+01
6.250000e+01
6.875000e+01
7.500000e+01
8.125000e+01
8.750000e+01
9.375000e+01
1.000000e+02
1.062500e+02
1.125000e+02
1.187500e+02
1.250000e+02
1.312500e+02
1.375000e+02
1.437500e+02
1.500000e+02
1.562500e+02
1.625000e+02
1.687500e+02
1.750000e+02
1.812500e+02
1.875000e+02
1.937500e+02
2.000000e+02
0.000000e+00
6.250000e+00
1.250000e+01
1.875000e+01
2.500000e+01
3.125000e+01
3.750000e+01
4.375000e+01
5.000000e+01
5.625000e+01
6.250000e+01
6.875000e+01
7.500000e+01
8.125000e+01
8.750000e+01
9.375000e+01
1.000000e+02
1.062500e+02
1.125000e+02
1.187500e+02
1.250000e+02
1.312500e+02
1.375000e+02
1.437500e+02
1.500000e+02
1.562500e+02
1.625000e+02
1.687500e+02
1.750000e+02
1.812500e+02
1.875000e+02
1.937500e+02
2.000000e+02
0.000000e+00
6.250000e+00
1.250000e+01
1.875000e+01
2.500000e+01
3.125000e+01
3.750000e+01
4.375000e+01
5.000000e+01
5.625000e+01
6.250000e+01
6.875000e+01
7.500000e+01
8.125000e+01
8.750000e+01
9.375000e+01
1.000000e+02
1.062500e+02
1.125000e+02
1.187500e+02
1.250000e+02
1.312500e+02
1.375000e+02
1.437500e+02
1.500000e+02
1.562500e+02
1.625000e+02
1.687500e+02
1.750000e+02
1.812500e+02
1.875000e+02
1.937500e+02
2.000000e+02
0.000000e+00
6.250000e+00
1.250000e+01
1.875000e+01
2.500000e+01
3.125000e+01
3.750000e+01
4.375000e+01
5.000000e+01
5.625000e+01
6.250000e+01
6.875000e+01
7.500000e+01
8.125000e+01
8.750000e+01
9.375000e+01
1.000000e+02
1.062500e+02
1.125000e+02
1.187500e+02
1.250000e+02
1.312500e+02
1.375000e+02
1.437500e+02
1.500000e+02
1.562500e+02
1.625000e+02
1.687500e+02
1.750000e+02
1.812500e+02
1.875000e+02
1.937500e+02
2.000000e+02
0.000000e+00
6.250000e+00
1.250000e+01
1.875000e+01
2.500000e+01
3.125000e+01
3.750000e+01
4.375000e+01
5.000000e+01
5.625000e+01
6.250000e+01
6.875000e+01
7.500000e+01
8.125000e+01
8.750000e+01
9.375000e+01
1.000000e+02
1.062500e+02
1.125000e+02
1.187500e+02
1.250000e+02
1.312500e+02
1.375000e+02
1.437500e+02
1.500000e+02
1.562500e+02
1.625000e+02
1.687500e+02
1.750000e+02
1.812500e+02
1.875000e+02
1.937500e+02
2.000000e+02
0.000000e+00
0.000000e+00
0.000000e+00
0.000000e+00
0.000000e+00
0.000000e+00
0.000000e+00
0.000000e+00
0.000000e+00
0.000000e+00
0.000000e+00
0.000000e+00
0.000000e+00
0.000000e+00
0.000000e+00
0.000000e+00
0.000000e+00
0.000000e+00
0.000000e+00
0.000000e+00
0.000000e+00
0.000000e+00
0.000000e+00
0.000000e+00
0.000000e+00
0.000000e+00
0.000000e+00
0.000000e+00
0.000000e+00
0.000000e+00
0.000000e+00
0.000000e+00
0.000000e+00
6.250000e+00
6.250000e+00
6.250000e+00
6.250000e+00
6.250000e+00
6.250000e+00
6.250000e+00
6.250000e+00
6.250000e+00
6.250000e+00
6.250000e+00
6.250000e+00
6.250000e+00
6.250000e+00
6.250000e+00
6.250000e+00
6.250000e+00
6.250000e+00
6.250000e+00
6.250000e+00
6.250000e+00
6.250000e+00
6.250000e+00
6.250000e+00
6.250000e+00
6.250000e+00
6.250000e+00
6.250000e+00
6.250000e+00
6.250000e+00
6.250000e+00
6.250000e+00
6.250000e+00
1.250000e+01
1.250000e+01
1.250000e+01
1.250000e+01
1.250000e+01
1.250000e+01
1.250000e+01
1.250000e+01
1.250000e+01
1.250000e+01
1.250000e+01
1.250000e+01
1.250000e+01
1.250000e+01
1.250000e+01
1.250000e+01
1.250000e+01
1.250000e+01
1.250000e+01
1.250000e+01
1.250000e+01
1.250000e+01
1.250000e+01
1.250000e+01
1.250000e+01
1.250000e+01
1.250000e+01
1.250000e+01
1.250000e+01
1.250000e+01
1.250000e+01
1.250000e+01
1.250000e+01
1.875000e+01
1.875000e+01
1.875000e+01
1.875000e+01
1.875000e+01
1.875000e+01
1.875000e+01
1.875000e+01
1.875000e+01
1.875000e+01
1.875000e+01
1.875000e+01
1.875000e+01
1.875000e+01
1.875000e+01
1.875000e+01
1.875000e+01
1.875000e+01
1.875000e+01
1.875000e+01
1.875000e+01
1.875000e+01
1.875000e+01
1.875000e+01
1.875000e+01
1.875000e+01
1.875000e+01
1.875000e+01
1.875000e+01
1.875000e+01
1.875000e+01
1.875000e+01
1.875000e+01
2.500000e+01
2.500000e+01
2.500000e+01
2.500000e+01
2.500000e+01
2.500000e+01
2.500000e+01
2.500000e+01
2.500000e+01
2.500000e+01
2.500000e+01
2.500000e+01
2.500000e+01
2.500000e+01
2.500000e+01
2.500000e+01
2.500000e+01
2.500000e+01
2.500000e+01
2.500000e+01
2.500000e+01
2.500000e+01
2.500000e+01
2.500000e+01
2.500000e+01
2.500000e+01
2.500000e+01
2.500000e+01
2.500000e+01
2.500000e+01
2.500000e+01
2.500000e+01
2.500000e+01
3.125000e+01
3.125000e+01
3.125000e+01
3.125000e+01
3.125000e+01
3.125000e+01
3.125000e+01
3.125000e+01
3.125000e+01
3.125000e+01
3.125000e+01
3.125000e+01
3.125000e+01
3.125000e+01
3.125000e+01
3.125000e+01
3.125000e+01
3.125000e+01
3.125000e+01
3.125000e+01
3.125000e+01
3.125000e+01
3.125000e+01
3.125000e+01
3.125000e+01
3.125000e+01
3.125000e+01
3.125000e+01
3.125000e+01
3.125000e+01
3.125000e+01
3.125000e+01
3.125000e+01
3.750000e+01
3.750000e+01
3.750000e+01
3.750000e+01
3.750000e+01
3.750000e+01
3.750000e+01
3.750000e+01
3.750000e+01
3.750000e+01
3.750000e+01
3.750000e+01
3.750000e+01
3.750000e+01
3.750000e+01
3.750000e+01
3.750000e+01
3.750000e+01
3.750000e+01
3.750000e+01
3.750000e+01
3.750000e+01
3.750000e+01
3.750000e+01
3.750000e+01
3.750000e+01
3.750000e+01
3.750000e+01
3.750000e+01
3.750000e+01
3.750000e+01
3.750000e+01
3.750000e+01
4.375000e+01
4.375000e+01
4.375000e+01
4.375000e+01
4.375000e+01
4.375000e+01
4.375000e+01
4.375000e+01
4.375000e+01
4.375000e+01
4.375000e+01
4.375000e+01
4.375000e+01
4.375000e+01
4.375000e+01
4.375000e+01
4.375000e+01
4.375000e+01
4.375000e+01
4.375000e+01
4.375000e+01
4.375000e+01
4.375000e+01
4.375000e+01
4.375000e+01
4.375000e+01
4.375000e+01
4.375000e+01
4.375000e+01
4.375000e+01
4.375000e+01
4.375000e+01
4.375000e+01
5.000000e+01
5.000000e+01
5.000000e+01
5.000000e+01
5.000000e+01
5.000000e+01
5.000000e+01
5.000000e+01
5.000000e+01
5.000000e+01
5.000000e+01
5.000000e+01
5.000000e+01
5.000000e+01
5.000000e+01
5.000000e+01
5.000000e+01
5.000000e+01
5.000000e+01
5.000000e+01
5.000000e+01
5.000000e+01
5.000000e+01
5.000000e+01
5.000000e+01
5.000000e+01
5.000000e+01
5.000000e+01
5.000000e+01
5.000000e+01
5.000000e+01
5.000000e+01
5.000000e+01
5.625000e+01
5.625000e+01
5.625000e+01
5.625000e+01
5.625000e+01
5.625000e+01
5.625000e+01
5.625000e+01
5.625000e+01
5.625000e+01
5.625000e+01
5.625000e+01
5.625000e+01
5.625000e+01
5.625000e+01
5.625000e+01
5.625000e+01
5.625000e+01
5.625000e+01
5.625000e+01
5.625000e+01
5.625000e+01
5.625000e+01
5.625000e+01
5.625000e+01
5.625000e+01
5.625000e+01
5.625000e+01
5.625000e+01
5.625000e+01
5.625000e+01
5.625000e+01
5.625000e+01
6.250000e+01
6.250000e+01
6.250000e+01
6.250000e+01
6.250000e+01
6.250000e+01
6.250000e+01
6.250000e+01
6.250000e+01
6.250000e+01
6.250000e+01
6.250000e+01
6.250000e+01
6.250000e+01
6.250000e+01
6.250000e+01
6.250000e+01
6.250000e+01
6.250000e+01
6.250000e+01
6.250000e+01
6.250000e+01
6.250000e+01
6.250000e+01
6.250000e+01
6.250000e+01
6.250000e+01
6.250000e+01
6.250000e+01
6.250000e+01
6.250000e+01
6.250000e+01
6.250000e+01
6.875000e+01
6.875000e+01
6.875000e+01
6.875000e+01
6.875000e+01
6.875000e+01
6.875000e+01
6.875000e+01
6.875000e+01
6.875000e+01
6.875000e+01
6.875000e+01
6.875000e+01
6.875000e+01
6.875000e+01
6.875000e+01
6.875000e+01
6.875000e+01
6.875000e+01
6.875000e+01
6.875000e+01
6.875000e+01
6.875000e+01
6.875000e+01
6.875000e+01
6.875000e+01
6.875000e+01
6.875000e+01
6.875000e+01
6.875000e+01
6.875000e+01
6.875000e+01
6.875000e+01
7.500000e+01
7.500000e+01
7.500000e+01
7.500000e+01
7.500000e+01
7.500000e+01
7.500000e+01
7.500000e+01
7.500000e+01
7.500000e+01
7.500000e+01
7.500000e+01
7.500000e+01
7.500000e+01
7.500000e+01
7.500000e+01
7.500000e+01
7.500000e+01
7.500000e+01
7.500000e+01
7.500000e+01
7.500000e+01
7.500000e+01
7.500000e+01
7.500000e+01
7.500000e+01
7.500000e+01
7.500000e+01
7.500000e+01
7.500000e+01
7.500000e+01
7.500000e+01
7.500000e+01
8.125000e+01
8.125000e+01
8.125000e+01
8.125000e+01
8.125000e+01
8.125000e+01
8.125000e+01
8.125000e+01
8.125000e+01
8.125000e+01
8.125000e+01
8.125000e+01
8.125000e+01
8.125000e+01
8.125000e+01
8.125000e+01
8.125000e+01
8.125000e+01
8.125000e+01
8.125000e+01
8.125000e+01
8.125000e+01
8.125000e+01
8.125000e+01
8.125000e+01
8.125000e+01
8.125000e+01
8.125000e+01
8.125000e+01
8.125000e+01
8.125000e+01
8.125000e+01
8.125000e+01
8.750000e+01
8.750000e+01
8.750000e+01
8.750000e+01
8.750000e+01
8.750000e+01
8.750000e+01
8.750000e+01
8.750000e+01
8.750000e+01
8.750000e+01
8.750000e+01
8.750000e+01
8.750000e+01
8.750000e+01
8.750000e+01
8.750000e+01
8.750000e+01
8.750000e+01
8.750000e+01
8.750000e+01
8.750000e+01
8.750000e+01
8.750000e+01
8.750000e+01
8.750000e+01
8.750000e+01
8.750000e+01
8.750000e+01
8.750000e+01
8.750000e+01
8.750000e+01
8.750000e+01
9.375000e+01
9.375000e+01
9.375000e+01
9.375000e+01
9.375000e+01
9.375000e+01
9.375000e+01
9.375000e+01
9.375000e+01
9.375000e+01
9.375000e+01
9.375000e+01
9.375000e+01
9.375000e+01
9.375000e+01
9.375000e+01
9.375000e+01
9.375000e+01
9.375000e+01
9.375000e+01
9.375000e+01
9.375000e+01
9.375000e+01
9.375000e+01
9.375000e+01
9.375000e+01
9.375000e+01
9.375000e+01
9.375000e+01
9.375000e+01
9.375000e+01
9.375000e+01
9.375000e+01
1.000000e+02
1.000000e+02
1.000000e+02
1.000000e+02
1.000000e+02
1.000000e+02
1.000000e+02
1.000000e+02
1.000000e+02
1.000000e+02
1.000000e+02
1.000000e+02
1.000000e+02
1.000000e+02
1.000000e+02
1.000000e+02
1.000000e+02
1.000000e+02
1.000000e+02
1.000000e+02
1.000000e+02
1.000000e+02
1.000000e+02
1.000000e+02
1.000000e+02
1.000000e+02
1.000000e+02
1.000000e+02
1.000000e+02
1.000000e+02
1.000000e+02
1.000000e+02
1.000000e+02
0.000000e+00
-3.973451e-02
-7.209299e-02
-1.020686e-01
-1.308366e-01
-1.586166e-01
-1.854642e-01
-2.113771e-01
-2.363389e-01
-2.603314e-01
-2.833398e-01
-3.053535e-01
-3.263672e-01
-3.463805e-01
-3.653980e-01
-3.834298e-01
-4.004920e-01
-4.166081e-01
-4.318105e-01
-4.461429e-01
-4.596637e-01
-4.724498e-01
-4.846031e-01
-4.962587e-01
-5.075978e-01
-5.188663e-01
-5.304060e-01
-5.427041e-01
-5.564757e-01
-5.727726e-01
-5.929596e-01
-6.170169e-01
-6.316988e-01
0.000000e+00
-2.664092e-02
-5.542931e-02
-8.257295e-02
-1.083719e-01
-1.330719e-01
-1.568033e-01
-1.796234e-01
-2.015549e-01
-2.226051e-01
-2.427754e-01
-2.620659e-01
-2.804775e-01
-2.980131e-01
-3.146786e-01
-3.304833e-01
-3.454405e-01
-3.595689e-01
-3.728927e-01
-3.854440e-01
-3.972631e-01
-4.084013e-01
-4.189220e-01
-4.289027e-01
-4.384363e-01
-4.476295e-01
-4.565950e-01
-4.654254e-01
-4.741202e-01
-4.823965e-01
-4.892929e-01
-4.933249e-01
-4.989380e-01
0.000000e+00
-2.113165e-02
-4.350458e-02
-6.628377e-02
-8.841810e-02
-1.097367e-01
-1.302261e-01
-1.499055e-01
-1.687924e-01
-1.868987e-01
-2.042321e-01
-2.207981e-01
-2.366010e-01
-2.516458e-01
-2.659379e-01
-2.794842e-01
-2.922936e-01
-3.043771e-01
-3.157483e-01
-3.264235e-01
-3.364211e-01
-3.457616e-01
-3.544648e-01
-3.625461e-01
-3.700087e-01
-3.768288e-01
-3.829282e-01
-3.881275e-01
-3.920750e-01
-3.942006e-01
-3.940142e-01
-3.928206e-01
-3.993753e-01
0.000000e+00
-1.676609e-02
-3.445813e-02
-5.263450e-02
-7.076826e-02
-8.846279e-02
-1.055665e-01
-1.220252e-01
-1.378240e-01
-1.529623e-01
-1.674440e-01
-1.812740e-01
-1.944569e-01
-2.069969e-01
-2.188977e-01
-2.301626e-01
-2.407948e-01
-2.507969e-01
-2.601710e-01
-2.689176e-01
-2.770346e-01
-2.845144e-01
-2.913405e-01
-2.974811e-01
-3.028795e-01
-3.074405e-01
-3.110130e-01
-3.133788e-01
-3.142821e-01
-3.136115e-01
-3.119828e-01
-3.118856e-01
-3.181306e-01
0.000000e+00
-1.301282e-02
-2.664583e-02
-4.071433e-02
-5.489712e-02
-6.890596e-02
-8.254756e-02
-9.572405e-02
-1.083909e-01
-1.205311e-01
-1.321401e-01
-1.432185e-01
-1.537685e-01
-1.637917e-01
-1.732888e-01
-1.822590e-01
-1.906995e-01
-1.986052e-01
-2.059680e-01
-2.127754e-01
-2.190093e-01
-2.246429e-01
-2.296377e-01
-2.339389e-01
-2.374705e-01
-2.401325e-01
-2.418075e-01
-2.423951e-01
-2.419131e-01
-2.407335e-01
-2.399683e-01
-2.417355e-01
-2.470627e-01
0.000000e+00
-9.563668e-03
-1.953708e-02
-2.983091e-02
-4.026728e-02
-5.065140e-02
-6.082858e-02
-7.069832e-02
-8.020543e-02
-8.932307e-02
-9.803993e-02
-1.063520e-01
-1.142579e-01
-1.217562e-01
-1.288441e-01
-1.355164e-01
-1.417654e-01
-1.475795e-01
-1.529431e-01
-1.578352e-01
-1.622282e-01
-1.660864e-01
-1.693649e-01
-1.720086e-01
-1.739547e-01
-1.751422e-01
-1.755362e-01
-1.751826e-01
-1.743112e-01
-1.734821e-01
-1.736840e-01
-1.759368e-01
-1.803447e-01
0.000000e+00
-6.294043e-03
-1.283705e-02
-1.958761e-02
-2.644947e-02
-3.330713e-02
-4.005717e-02
-4.662420e-02
-5.296105e-02
-5.904168e-02
-6.485295e-02
-7.038823e-02
-7.564330e-02
-8.061376e-02
-8.529364e-02
-8.967436e-02
-9.374411e-02
-9.748725e-02
-1.008837e-01
-1.039084e-01
-1.065311e-01
-1.087160e-01
-1.104236e-01
-1.116135e-01
-1.122529e-01
-1.123322e-01
-1.118951e-01
-1.110861e-01
-1.102133e-01
-1.097901e-01
-1.104503e-01
-1.126436e-01
-1.162018e-01
0.000000e+00
-3.126249e-03
-6.370689e-03
-9.716644e-03
-1.312186e-02
-1.653253e-02
-1.989758e-02
-2.317704e-02
-2.634389e-02
-2.938164e-02
-3.228051e-02
-3.503403e-02
-3.763658e-02
-4.008169e-02
-4.236104e-02
-4.446367e-02
-4.637549e-02
-4.807884e-02
-4.955231e-02
-5.077081e-02
-5.170616e-02
-5.232877e-02
-5.261080e-02
-5.253236e-02
-5.209189e-02
-5.132301e-02
-5.031876e-02
-4.926062e-02
-4.843919e-02
-4.823342e-02
-4.900795e-02
-5.092135e-02
-5.374466e-02
0.000000e+00
-5.043890e-06
-1.093659e-05
-1.735166e-05
-2.395166e-05
-3.028162e-05
-3.565587e-05
-3.903243e-05
-3.886626e-05
-3.293254e-05
-1.811339e-05
9.855811e-06
5.668007e-05
1.298319e-04
2.388965e-04
3.959042e-04
6.156006e-04
9.155678e-04
1.316069e-03
1.839411e-03
2.508528e-03
3.344353e-03
4.361386e-03
5.560729e-03
6.919916e-03
8.379407e-03
9.827460e-03
1.108905e-02
1.193122e-02
1.210201e-02
1.141434e-02
9.856992e-03
7.675847e-03
0.000000e+00
3.116749e-03
6.350048e-03
9.683829e-03
1.307645e-02
1.647496e-02
1.982955e-02
2.310217e-02
2.626871e-02
2.931682e-02
3.224257e-02
3.504751e-02
3.773672e-02
4.031782e-02
4.280057e-02
4.519676e-02
4.752023e-02
4.978676e-02
5.201362e-02
5.421862e-02
5.641823e-02
5.862456e-02
6.084076e-02
6.305452e-02
6.522987e-02
6.729814e-02
6.915108e-02
7.064140e-02
7.159898e-02
7.187008e-02
7.137909e-02
7.019605e-02
6.857721e-02
0.000000e+00
6.286283e-03
1.282006e-02
1.956042e-02
2.641156e-02
3.325862e-02
3.999917e-02
4.655935e-02
5.289429e-02
5.898130e-02
6.481193e-02
7.038606e-02
7.570820e-02
8.078552e-02
8.562692e-02
9.024274e-02
9.464450e-02
9.884478e-02
1.028566e-01
1.066924e-01
1.103621e-01
1.138704e-01
1.172125e-01
1.203691e-01
1.233005e-01
1.259418e-01
1.282011e-01
1.299656e-01
1.311205e-01
1.315823e-01
1.313449e-01
1.305263e-01
1.293964e-01
0.000000e+00
9.558718e-03
1.952605e-02
2.981295e-02
4.024178e-02
5.061811e-02
6.078785e-02
7.065144e-02
8.015510e-02
8.927412e-02
9.800017e-02
1.063334e-01
1.142782e-01
1.218406e-01
1.290278e-01
1.358474e-01
1.423074e-01
1.484161e-01
1.541813e-01
1.596096e-01
1.647048e-01
1.694658e-01
1.738834e-01
1.779366e-01
1.815896e-01
1.847895e-01
1.874672e-01
1.895454e-01
1.909547e-01
1.916609e-01
1.917006e-01
1.912204e-01
1.905063e-01
0.000000e+00
1.301159e-02
2.664275e-02
4.070882e-02
5.488861e-02
6.889397e-02
8.253177e-02
9.570443e-02
1.083679e-01
1.205057e-01
1.321142e-01
1.431955e-01
1.537536e-01
1.637928e-01
1.733175e-01
1.823315e-01
1.908381e-01
1.988402e-01
2.063397e-01
2.133370e-01
2.198299e-01
2.258125e-01
2.312733e-01
2.361933e-01
2.405450e-01
2.442919e-01
2.473910e-01
2.497995e-01
2.514875e-01
2.524573e-01
2.527719e-01
2.525916e-01
2.522154e-01
0.000000e+00
1.676920e-02
3.446446e-02
5.264392e-02
7.078051e-02
8.847750e-02
1.055832e-01
1.220430e-01
1.378415e-01
1.529775e-01
1.674535e-01
1.812731e-01
1.944386e-01
2.069517e-01
2.188125e-01
2.300200e-01
2.405722e-01
2.504657e-01
2.596954e-01
2.682549e-01
2.761356e-01
2.833264e-01
2.898137e-01
2.955811e-01
3.006103e-01
3.048824e-01
3.083813e-01
3.110992e-01
3.130444e-01
3.142532e-01
3.148093e-01
3.148756e-01
3.147508e-01
0.000000e+00
2.113925e-02
4.352081e-02
6.630919e-02
8.845319e-02
1.097819e-01
1.302814e-01
1.499703e-01
1.688649e-01
1.869752e-01
2.043060e-01
2.208587e-01
2.366323e-01
2.516236e-01
2.658280e-01
2.792391e-01
2.918487e-01
3.036464e-01
3.146197e-01
3.247541e-01
3.340328e-01
3.424380e-01
3.499512e-01
3.565557e-01
3.622389e-01
3.669966e-01
3.708372e-01
3.737879e-01
3.758997e-01
3.772523e-01
3.779602e-01
3.781908e-01
3.782183e-01
0.000000e+00
2.665234e-02
5.545424e-02
8.261306e-02
1.084292e-01
1.331483e-01
1.569005e-01
1.797423e-01
2.016950e-01
2.227636e-01
2.429458e-01
2.622360e-01
2.806270e-01
2.981103e-01
3.146761e-01
3.303124e-01
3.450051e-01
3.587369e-01
3.714871e-01
3.832317e-01
3.939436e-01
4.035940e-01
4.121543e-01
4.196000e-01
4.259157e-01
4.311017e-01
4.351825e-01
4.382156e-01
4.402992e-01
4.415759e-01
4.422281e-01
4.424646e-01
4.425225e-01
0.000000e+00
3.974701e-02
7.212215e-02
1.021185e-01
1.309114e-01
1.587203e-01
1.856010e-01
2.115510e-01
2.365531e-01
2.605872e-01
2.836350e-01
3.056803e-01
3.267090e-01
3.467076e-01
3.656623e-01
3.835571e-01
4.003731e-01
4.160868e-01
4.306695e-01
4.440866e-01
4.562978e-01
4.672581e-01
4.769205e-01
4.852407e-01
4.921842e-01
4.977372e-01
5.019193e-01
5.048004e-01
5.065177e-01
5.072914e-01
5.074320e-01
5.073156e-01
5.072500e-01
0.000000e+00
-2.455517e-02
-4.285407e-02
-6.282258e-02
-8.505870e-02
-1.101766e-01
-1.383509e-01
-1.696305e-01
-2.039842e-01
-2.413385e-01
-2.815943e-01
-3.246377e-01
-3.703460e-01
-4.185911e-01
-4.692426e-01
-5.221692e-01
-5.772402e-01
-6.343273e-01
-6.933065e-01
-7.540610e-01
-8.164850e-01
-8.804897e-01
-9.460115e-01
-1.013025e+00
-1.081564e+00
-1.151755e+00
-1.223877e+00
-1.298474e+00
-1.376589e+00
-1.460283e+00
-1.554004e+00
-1.668251e+00
-1.826085e+00
0.000000e+00
-1.526010e-02
-3.441423e-02
-5.451744e-02
-7.706349e-02
-1.024543e-01
-1.309023e-01
-1.624557e-01
-1.970859e-01
-2.347194e-01
-2.752566e-01
-3.185826e-01
-3.645736e-01
-4.131006e-01
-4.640320e-01
-5.172349e-01
-5.725773e-01
-6.299287e-01
-6.891630e-01
-7.501603e-01
-8.128113e-01
-8.770224e-01
-9.427241e-01
-1.009884e+00
-1.078526e+00
-1.148766e+00
-1.220869e+00
-1.295361e+00
-1.373263e+00
-1.456601e+00
-1.549599e+00
-1.661302e+00
-1.808760e+00
0.000000e+00
-1.120943e-02
-2.774459e-02
-4.757356e-02
-7.015900e-02
-9.573690e-02
-1.244095e-01
-1.562033e-01
-1.910802e-01
-2.289630e-01
-2.697505e-01
-3.133269e-01
-3.595678e-01
-4.083438e-01
-4.595227e-01
-5.129713e-01
-5.685567e-01
-6.261479e-01
-6.856178e-01
-7.468456e-01
-8.097209e-01
-8.741495e-01
-9.400617e-01
-1.007426e+00
-1.076270e+00
-1.146715e+00
-1.219037e+00
-1.293777e+00
-1.371943e+00
-1.455359e+00
-1.547147e+00
-1.650992e+00
-1.766186e+00
0.000000e+00
-8.976032e-03
-2.349407e-02
-4.226566e-02
-6.456085e-02
-9.013080e-02
-1.189260e-01
-1.508980e-01
-1.859779e-01
-2.240743e-01
-2.650797e-01
-3.088754e-01
-3.553359e-01
-4.043316e-01
-4.557304e-01
-5.093995e-01
-5.652063e-01
-6.230205e-01
-6.827155e-01
-7.441716e-01
-8.072798e-01
-8.719482e-01
-9.381106e-01
-1.005741e+00
-1.074872e+00
-1.145632e+00
-1.218295e+00
-1.293359e+00
-1.371648e+00
-1.454365e+00
-1.542662e+00
-1.635788e+00
-1.722479e+00
0.000000e+00
-7.595199e-03
-2.071438e-02
-3.849642e-02
-6.028337e-02
-8.568569e-02
-1.144917e-01
-1.465676e-01
-1.817974e-01
-2.200659e-01
-2.612535e-01
-3.052361e-01
-3.518860e-01
-4.010730e-01
-4.526657e-01
-5.065322e-01
-5.625412e-01
-6.205638e-01
-6.804752e-01
-7.421577e-01
-8.055048e-01
-8.704273e-01
-9.368618e-01
-1.004784e+00
-1.074224e+00
-1.145295e+00
-1.218220e+00
-1.293357e+00
-1.371181e+00
-1.452073e+00
-1.535647e+00
-1.618836e+00
-1.694334e+00
0.000000e+00
-6.716562e-03
-1.889055e-02
-3.590260e-02
-5.719912e-02
-8.236348e-02
-1.111069e-01
-1.432238e-01
-1.785522e-01
-2.169497e-01
-2.582817e-01
-3.024168e-01
-3.492243e-01
-3.985733e-01
-4.503330e-01
-5.043728e-01
-5.605633e-01
-6.187773e-01
-6.788922e-01
-7.407920e-01
-8.043719e-01
-8.695430e-01
-9.362402e-01
-1.004431e+00
-1.074128e+00
-1.145398e+00
-1.218367e+00
-1.293192e+00
-1.369960e+00
-1.448412e+00
-1.527353e+00
-1.603961e+00
-1.673981e+00
0.000000e+00
-6.170500e-03
-1.773745e-02
-3.421655e-02
-5.513289e-02
-8.008040e-02
-1.087385e-01
-1.408594e-01
-1.762461e-01
-2.147328e-01
-2.561713e-01
-3.004229e-01
-3.473540e-01
-3.968331e-01
-4.487302e-01
-5.029162e-01
-5.592633e-01
-6.176462e-01
-6.779436e-01
-7.400403e-01
-8.038306e-01
-8.692221e-01
-9.361408e-01
-1.004536e+00
-1.074385e+00
-1.145688e+00
-1.218453e+00
-1.292636e+00
-1.368024e+00
-1.444004e+00
-1.519261e+00
-1.591626e+00
-1.658439e+00
0.000000e+00
-5.870431e-03
-1.709761e-02
-3.326643e-02
-5.394809e-02
-7.875053e-02
-1.073428e-01
-1.394567e-01
-1.748749e-01
-2.134168e-01
-2.549250e-01
-2.992561e-01
-3.462745e-01
-3.958489e-01
-4.478500e-01
-5.021502e-01
-5.586233e-01
-6.171452e-01
-6.775948e-01
-7.398558e-01
-8.038187e-01
-8.693830e-01
-9.364594e-01
-1.004971e+00
-1.074848e+00
-1.146020e+00
-1.218381e+00
-1.291734e+00
-1.365688e+00
-1.439516e+00
-1.512030e+00
-1.581601e+00
-1.646412e+00
0.000000e+00
-5.773749e-03
-1.689118e-02
-3.295849e-02
-5.356195e-02
-7.831529e-02
-1.068857e-01
-1.389990e-01
-1.744322e-01
-2.129999e-01
-2.545421e-01
-2.989145e-01
-3.459816e-01
-3.956129e-01
-4.476805e-01
-5.020581e-01
-5.586205e-01
-6.172440e-01
-6.778065e-01
-7.401886e-01
-8.042744e-01
-8.699515e-01
-9.371111e-01
-1.005645e+00
-1.075436e+00
-1.146347e+00
-1.218185e+00
-1.290654e+00
-1.363285e+00
-1.435363e+00
-1.505885e+00
-1.573605e+00
-1.637195e+00
0.000000e+00
-5.867634e-03
-1.709373e-02
-3.326309e-02
-5.394708e-02
-7.875408e-02
-1.073539e-01
-1.394791e-01
-1.749139e-01
-2.134790e-01
-2.550192e-01
-2.993931e-01
-3.464679e-01
-3.961148e-01
-4.482075e-01
-5.026208e-01
-5.592301e-01
-6.179111e-01
-6.785398e-01
-7.409923e-01
-8.051441e-01
-8.708691e-01
-9.380371e-01
-1.006508e+00
-1.076124e+00
-1.146692e+00
-1.217958e+00
-1.289576e+00
-1.361063e+00
-1.431768e+00
-1.500865e+00
-1.567389e+00
-1.630326e+00
0.000000e+00
-6.165133e-03
-1.773000e-02
-3.421011e-02
-5.513087e-02
-8.008707e-02
-1.087594e-01
-1.409021e-01
-1.763205e-01
-2.148518e-01
-2.563515e-01
-3.006853e-01
-3.477245e-01
-3.973430e-01
-4.494161e-01
-5.038194e-01
-5.604284e-01
-6.191177e-01
-6.797607e-01
-7.422280e-01
-8.063860e-01
-8.720946e-01
-9.392029e-01
-1.007543e+00
-1.076922e+00
-1.147105e+00
-1.217804e+00
-1.288652e+00
-1.359185e+00
-1.428833e+00
-1.496928e+00
-1.562727e+00
-1.625450e+00
0.000000e+00
-6.709103e-03
-1.888020e-02
-3.589360e-02
-5.719620e-02
-8.237260e-02
-1.111359e-01
-1.432831e-01
-1.786558e-01
-2.171155e-01
-2.585332e-01
-3.027833e-01
-3.497421e-01
-3.992863e-01
-4.512927e-01
-5.056374e-01
-5.621956e-01
-6.208405e-01
-6.814425e-01
-7.438667e-01
-8.079711e-01
-8.736026e-01
-9.405926e-01
-1.008750e+00
-1.077855e+00
-1.147646e+00
-1.217814e+00
-1.287990e+00
-1.357742e+00
-1.426585e+00
-1.493989e+00
-1.559401e+00
-1.622253e+00
0.000000e+00
-7.586412e-03
-2.070219e-02
-3.848582e-02
-6.028000e-02
-8.569673e-02
-1.145267e-01
-1.466392e-01
-1.819223e-01
-2.202662e-01
-2.615574e-01
-3.056792e-01
-3.525122e-01
-4.019356e-01
-4.538271e-01
-5.080629e-01
-5.645177e-01
-6.230634e-01
-6.835673e-01
-7.458899e-01
-8.098820e-01
-8.753802e-01
-9.422017e-01
-1.010139e+00
-1.078952e+00
-1.148363e+00
-1.218052e+00
-1.287656e+00
-1.356779e+00
-1.425008e+00
-1.491937e+00
-1.557193e+00
-1.620424e+00
0.000000e+00
-8.967001e-03
-2.348156e-02
-4.225488e-02
-6.455795e-02
-9.014377e-02
-1.189654e-01
-1.509779e-01
-1.861169e-01
-2.242967e-01
-2.654165e-01
-3.093661e-01
-3.560290e-01
-4.052856e-01
-4.570139e-01
-5.110904e-01
-5.673887e-01
-6.257794e-01
-6.861275e-01
-7.482900e-01
-8.121124e-01
-8.774237e-01
-9.440321e-01
-1.011718e+00
-1.080231e+00
-1.149282e+00
-1.218547e+00
-1.287674e+00
-1.356293e+00
-1.424051e+00
-1.490648e+00
-1.555874e+00
-1.619627e+00
0.000000e+00
-1.120155e-02
-2.773363e-02
-4.756446e-02
-7.015814e-02
-9.575268e-02
-1.244530e-01
-1.562893e-01
-1.912279e-01
-2.291976e-01
-2.701042e-01
-3.138402e-01
-3.602906e-01
-4.093361e-01
-4.608547e-01
-5.147221e-01
-5.708115e-01
-6.289920e-01
-6.891272e-01
-7.510715e-01
-8.146670e-01
-8.797387e-01
-9.460892e-01
-1.013494e+00
-1.081696e+00
-1.150403e+00
-1.219294e+00
-1.288021e+00
-1.356238e+00
-1.423632e+00
-1.489979e+00
-1.555212e+00
-1.619488e+00
0.000000e+00
-1.525505e-02
-3.440677e-02
-5.451208e-02
-7.706680e-02
-1.024749e-01
-1.309514e-01
-1.625479e-01
-1.972407e-01
-2.349615e-01
-2.756179e-01
-3.191027e-01
-3.653012e-01
-4.140939e-01
-4.653582e-01
-5.189693e-01
-5.747995e-01
-6.327169e-01
-6.925837e-01
-7.542527e-01
-8.175642e-01
-8.823412e-01
-9.483848e-01
-1.015469e+00
-1.083336e+00
-1.151698e+00
-1.220237e+00
-1.288616e+00
-1.356504e+00
-1.423612e+00
-1.489761e+00
-1.554972e+00
-1.619606e+00
0.000000e+00
-2.455445e-02
-4.285159e-02
-6.282305e-02
-8.506873e-02
-1.102048e-01
-1.384085e-01
-1.697321e-01
-2.041488e-01
-2.415901e-01
-2.819636e-01
-3.251625e-01
-3.710721e-01
-4.195726e-01
-4.705413e-01
-5.238525e-01
-5.793774e-01
-6.369831e-01
-6.965300e-01
-7.578695e-01
-8.208405e-01
-8.852649e-01
-9.509436e-01