TITLE = "Solution"
VARIABLES = x, y, u, v, psiu, psiv, t, stress
ZONE T="structure" N=561 E=512 F=FEBLOCK ET=QUADRILATERAL VARLOCATION=([7,8]=cellcentered)
0.000000e+00
6.250000e+00
1.250000e+01
1.875000e+01
2.500000e+01
3.125000e+01
3.750000e+01
4.375000e+01
5.000000e+01
5.625000e+01
6.250000e+01
6.875000e+01
7.500000e+01
8.125000e+01
8.750000e+01
9.375000e+01
1.000000e+02
1.062500e+02
1.125000e+02
1.187500e+02
1.250000e+02
1.312500e+02
1.375000e+02
1.437500e+02
1.500000e+02
1.562500e+02
1.625000e+02
1.687500e+02
1.750000e+02
1.812500e+02
1.875000e+02
1.937500e+02
2.000000e+02
0.000000e+00
6.250000e+00
1.250000e+01
1.875000e+01
2.500000e+01
3.125000e+01
3.750000e+01
4.375000e+01
5.000000e+01
5.625000e+01
6.250000e+01
6.875000e+01
7.500000e+01
8.125000e+01
8.750000e+01
9.375000e+01
1.000000e+02
1.062500e+02
1.125000e+02
1.187500e+02
1.250000e+02
1.312500e+02
1.375000e+02
1.437500e+02
1.500000e+02
1.562500e+02
1.625000e+02
1.687500e+02
1.750000e+02
1.812500e+02
1.875000e+02
1.937500e+02
2.000000e+02
0.000000e+00
6.250000e+00
1.250000e+01
1.875000e+01
2.500000e+01
3.125000e+01
3.750000e+01
4.375000e+01
5.000000e+01
5.625000e+01
6.250000e+01
6.875000e+01
7.500000e+01
8.125000e+01
8.750000e+01
9.375000e+01
1.000000e+02
1.062500e+02
1.125000e+02
1.187500e+02
1.250000e+02
1.312500e+02
1.375000e+02
1.437500e+02
1.500000e+02
1.562500e+02
1.625000e+02
1.687500e+02
1.750000e+02
1.812500e+02
1.875000e+02
1.937500e+02
2.000000e+02
0.000000e+00
6.250000e+00
1.250000e+01
1.875000e+01
2.500000e+01
3.125000e+01
3.750000e+01
4.375000e+01
5.000000e+01
5.625000e+01
6.250000e+01
6.875000e+01
7.500000e+01
8.125000e+01
8.750000e+01
9.375000e+01
1.000000e+02
1.062500e+02
1.125000e+02
1.187500e+02
1.250000e+02
1.312500e+02
1.375000e+02
1.437500e+02
1.500000e+02
1.562500e+02
1.625000e+02
1.687500e+02
1.750000e+02
1.812500e+02
1.875000e+02
1.937500e+02
2.000000e+02
0.000000e+00
6.250000e+00
1.250000e+01
1.875000e+01
2.500000e+01
3.125000e+01
3.750000e+01
4.375000e+01
5.000000e+01
5.625000e+01
6.250000e+01
6.875000e+01
7.500000e+01
8.125000e+01
8.750000e+01
9.375000e+01
1.000000e+02
1.062500e+02
1.125000e+02
1.187500e+02
1.250000e+02
1.312500e+02
1.375000e+02
1.437500e+02
1.500000e+02
1.562500e+02
1.625000e+02
1.687500e+02
1.750000e+02
1.812500e+02
1.875000e+02
1.937500e+02
2.000000e+02
0.000000e+00
6.250000e+00
1.250000e+01
1.875000e+01
2.500000e+01
3.125000e+01
3.750000e+01
4.375000e+01
5.000000e+01
5.625000e+01
6.250000e+01
6.875000e+01
7.500000e+01
8.125000e+01
8.750000e+01
9.375000e+01
1.000000e+02
1.062500e+02
1.125000e+02
1.187500e+02
1.250000e+02
1.312500e+02
1.375000e+02
1.437500e+02
1.500000e+02
1.562500e+02
1.625000e+02
1.687500e+02
1.750000e+02
1.812500e+02
1.875000e+02
1.937500e+02
2.000000e+02
0.000000e+00
6.250000e+00
1.250000e+01
1.875000e+01
2.500000e+01
3.125000e+01
3.750000e+01
4.375000e+01
5.000000e+01
5.625000e+01
6.250000e+01
6.875000e+01
7.500000e+01
8.125000e+01
8.750000e+01
9.375000e+01
1.000000e+02
1.062500e+02
1.125000e+02
1.187500e+02
1.250000e+02
1.312500e+02
1.375000e+02
1.437500e+02
1.500000e+02
1.562500e+02
1.625000e+02
1.687500e+02
1.750000e+02
1.812500e+02
1.875000e+02
1.937500e+02
2.000000e+02
0.000000e+00
6.250000e+00
1.250000e+01
1.875000e+01
2.500000e+01
3.125000e+01
3.750000e+01
4.375000e+01
5.000000e+01
5.625000e+01
6.250000e+01
6.875000e+01
7.500000e+01
8.125000e+01
8.750000e+01
9.375000e+01
1.000000e+02
1.062500e+02
1.125000e+02
1.187500e+02
1.250000e+02
1.312500e+02
1.375000e+02
1.437500e+02
1.500000e+02
1.562500e+02
1.625000e+02
1.687500e+02
1.750000e+02
1.812500e+02
1.875000e+02
1.937500e+02
2.000000e+02
0.000000e+00
6.250000e+00
1.250000e+01
1.875000e+01
2.500000e+01
3.125000e+01
3.750000e+01
4.375000e+01
5.000000e+01
5.625000e+01
6.250000e+01
6.875000e+01
7.500000e+01
8.125000e+01
8.750000e+01
9.375000e+01
1.000000e+02
1.062500e+02
1.125000e+02
1.187500e+02
1.250000e+02
1.312500e+02
1.375000e+02
1.437500e+02
1.500000e+02
1.562500e+02
1.625000e+02
1.687500e+02
1.750000e+02
1.812500e+02
1.875000e+02
1.937500e+02
2.000000e+02
0.000000e+00
6.250000e+00
1.250000e+01
1.875000e+01
2.500000e+01
3.125000e+01
3.750000e+01
4.375000e+01
5.000000e+01
5.625000e+01
6.250000e+01
6.875000e+01
7.500000e+01
8.125000e+01
8.750000e+01
9.375000e+01
1.000000e+02
1.062500e+02
1.125000e+02
1.187500e+02
1.250000e+02
1.312500e+02
1.375000e+02
1.437500e+02
1.500000e+02
1.562500e+02
1.625000e+02
1.687500e+02
1.750000e+02
1.812500e+02
1.875000e+02
1.937500e+02
2.000000e+02
0.000000e+00
6.250000e+00
1.250000e+01
1.875000e+01
2.500000e+01
3.125000e+01
3.750000e+01
4.375000e+01
5.000000e+01
5.625000e+01
6.250000e+01
6.875000e+01
7.500000e+01
8.125000e+01
8.750000e+01
9.375000e+01
1.000000e+02
1.062500e+02
1.125000e+02
1.187500e+02
1.250000e+02
1.312500e+02
1.375000e+02
1.437500e+02
1.500000e+02
1.562500e+02
1.625000e+02
1.687500e+02
1.750000e+02
1.812500e+02
1.875000e+02
1.937500e+02
2.000000e+02
0.000000e+00
6.250000e+00
1.250000e+01
1.875000e+01
2.500000e+01
3.125000e+01
3.750000e+01
4.375000e+01
5.000000e+01
5.625000e+01
6.250000e+01
6.875000e+01
7.500000e+01
8.125000e+01
8.750000e+01
9.375000e+01
1.000000e+02
1.062500e+02
1.125000e+02
1.187500e+02
1.250000e+02
1.312500e+02
1.375000e+02
1.437500e+02
1.500000e+02
1.562500e+02
1.625000e+02
1.687500e+02
1.750000e+02
1.812500e+02
1.875000e+02
1.937500e+02
2.000000e+02
0.000000e+00
6.250000e+00
1.250000e+01
1.875000e+01
2.500000e+01
3.125000e+01
3.750000e+01
4.375000e+01
5.000000e+01
5.625000e+01
6.250000e+01
6.875000e+01
7.500000e+01
8.125000e+01
8.750000e+01
9.375000e+01
1.000000e+02
1.062500e+02
1.125000e+02
1.187500e+02
1.250000e+02
1.312500e+02
1.375000e+02
1.437500e+02
1.500000e+02
1.562500e+02
1.625000e+02
1.687500e+02
1.750000e+02
1.812500e+02
1.875000e+02
1.937500e+02
2.000000e+02
0.000000e+00
6.250000e+00
1.250000e+01
1.875000e+01
2.500000e+01
3.125000e+01
3.750000e+01
4.375000e+01
5.000000e+01
5.625000e+01
6.250000e+01
6.875000e+01
7.500000e+01
8.125000e+01
8.750000e+01
9.375000e+01
1.000000e+02
1.062500e+02
1.125000e+02
1.187500e+02
1.250000e+02
1.312500e+02
1.375000e+02
1.437500e+02
1.500000e+02
1.562500e+02
1.625000e+02
1.687500e+02
1.750000e+02
1.812500e+02
1.875000e+02
1.937500e+02
2.000000e+02
0.000000e+00
6.250000e+00
1.250000e+01
1.875000e+01
2.500000e+01
3.125000e+01
3.750000e+01
4.375000e+01
5.000000e+01
5.625000e+01
6.250000e+01
6.875000e+01
7.500000e+01
8.125000e+01
8.750000e+01
9.375000e+01
1.000000e+02
1.062500e+02
1.125000e+02
1.187500e+02
1.250000e+02
1.312500e+02
1.375000e+02
1.437500e+02
1.500000e+02
1.562500e+02
1.625000e+02
1.687500e+02
1.750000e+02
1.812500e+02
1.875000e+02
1.937500e+02
2.000000e+02
0.000000e+00
6.250000e+00
1.250000e+01
1.875000e+01
2.500000e+01
3.125000e+01
3.750000e+01
4.375000e+01
5.000000e+01
5.625000e+01
6.250000e+01
6.875000e+01
7.500000e+01
8.125000e+01
8.750000e+01
9.375000e+01
1.000000e+02
1.062500e+02
1.125000e+02
1.187500e+02
1.250000e+02
1.312500e+02
1.375000e+02
1.437500e+02
1.500000e+02
1.562500e+02
1.625000e+02
1.687500e+02
1.750000e+02
1.812500e+02
1.875000e+02
1.937500e+02
2.000000e+02
0.000000e+00
6.250000e+00
1.250000e+01
1.875000e+01
2.500000e+01
3.125000e+01
3.750000e+01
4.375000e+01
5.000000e+01
5.625000e+01
6.250000e+01
6.875000e+01
7.500000e+01
8.125000e+01
8.750000e+01
9.375000e+01
1.000000e+02
1.062500e+02
1.125000e+02
1.187500e+02
1.250000e+02
1.312500e+02
1.375000e+02
1.437500e+02
1.500000e+02
1.562500e+02
1.625000e+02
1.687500e+02
1.750000e+02
1.812500e+02
1.875000e+02
1.937500e+02
2.000000e+02
0.000000e+00
0.000000e+00
0.000000e+00
0.000000e+00
0.000000e+00
0.000000e+00
0.000000e+00
0.000000e+00
0.000000e+00
0.000000e+00
0.000000e+00
0.000000e+00
0.000000e+00
0.000000e+00
0.000000e+00
0.000000e+00
0.000000e+00
0.000000e+00
0.000000e+00
0.000000e+00
0.000000e+00
0.000000e+00
0.000000e+00
0.000000e+00
0.000000e+00
0.000000e+00
0.000000e+00
0.000000e+00
0.000000e+00
0.000000e+00
0.000000e+00
0.000000e+00
0.000000e+00
6.250000e+00
6.250000e+00
6.250000e+00
6.250000e+00
6.250000e+00
6.250000e+00
6.250000e+00
6.250000e+00
6.250000e+00
6.250000e+00
6.250000e+00
6.250000e+00
6.250000e+00
6.250000e+00
6.250000e+00
6.250000e+00
6.250000e+00
6.250000e+00
6.250000e+00
6.250000e+00
6.250000e+00
6.250000e+00
6.250000e+00
6.250000e+00
6.250000e+00
6.250000e+00
6.250000e+00
6.250000e+00
6.250000e+00
6.250000e+00
6.250000e+00
6.250000e+00
6.250000e+00
1.250000e+01
1.250000e+01
1.250000e+01
1.250000e+01
1.250000e+01
1.250000e+01
1.250000e+01
1.250000e+01
1.250000e+01
1.250000e+01
1.250000e+01
1.250000e+01
1.250000e+01
1.250000e+01
1.250000e+01
1.250000e+01
1.250000e+01
1.250000e+01
1.250000e+01
1.250000e+01
1.250000e+01
1.250000e+01
1.250000e+01
1.250000e+01
1.250000e+01
1.250000e+01
1.250000e+01
1.250000e+01
1.250000e+01
1.250000e+01
1.250000e+01
1.250000e+01
1.250000e+01
1.875000e+01
1.875000e+01
1.875000e+01
1.875000e+01
1.875000e+01
1.875000e+01
1.875000e+01
1.875000e+01
1.875000e+01
1.875000e+01
1.875000e+01
1.875000e+01
1.875000e+01
1.875000e+01
1.875000e+01
1.875000e+01
1.875000e+01
1.875000e+01
1.875000e+01
1.875000e+01
1.875000e+01
1.875000e+01
1.875000e+01
1.875000e+01
1.875000e+01
1.875000e+01
1.875000e+01
1.875000e+01
1.875000e+01
1.875000e+01
1.875000e+01
1.875000e+01
1.875000e+01
2.500000e+01
2.500000e+01
2.500000e+01
2.500000e+01
2.500000e+01
2.500000e+01
2.500000e+01
2.500000e+01
2.500000e+01
2.500000e+01
2.500000e+01
2.500000e+01
2.500000e+01
2.500000e+01
2.500000e+01
2.500000e+01
2.500000e+01
2.500000e+01
2.500000e+01
2.500000e+01
2.500000e+01
2.500000e+01
2.500000e+01
2.500000e+01
2.500000e+01
2.500000e+01
2.500000e+01
2.500000e+01
2.500000e+01
2.500000e+01
2.500000e+01
2.500000e+01
2.500000e+01
3.125000e+01
3.125000e+01
3.125000e+01
3.125000e+01
3.125000e+01
3.125000e+01
3.125000e+01
3.125000e+01
3.125000e+01
3.125000e+01
3.125000e+01
3.125000e+01
3.125000e+01
3.125000e+01
3.125000e+01
3.125000e+01
3.125000e+01
3.125000e+01
3.125000e+01
3.125000e+01
3.125000e+01
3.125000e+01
3.125000e+01
3.125000e+01
3.125000e+01
3.125000e+01
3.125000e+01
3.125000e+01
3.125000e+01
3.125000e+01
3.125000e+01
3.125000e+01
3.125000e+01
3.750000e+01
3.750000e+01
3.750000e+01
3.750000e+01
3.750000e+01
3.750000e+01
3.750000e+01
3.750000e+01
3.750000e+01
3.750000e+01
3.750000e+01
3.750000e+01
3.750000e+01
3.750000e+01
3.750000e+01
3.750000e+01
3.750000e+01
3.750000e+01
3.750000e+01
3.750000e+01
3.750000e+01
3.750000e+01
3.750000e+01
3.750000e+01
3.750000e+01
3.750000e+01
3.750000e+01
3.750000e+01
3.750000e+01
3.750000e+01
3.750000e+01
3.750000e+01
3.750000e+01
4.375000e+01
4.375000e+01
4.375000e+01
4.375000e+01
4.375000e+01
4.375000e+01
4.375000e+01
4.375000e+01
4.375000e+01
4.375000e+01
4.375000e+01
4.375000e+01
4.375000e+01
4.375000e+01
4.375000e+01
4.375000e+01
4.375000e+01
4.375000e+01
4.375000e+01
4.375000e+01
4.375000e+01
4.375000e+01
4.375000e+01
4.375000e+01
4.375000e+01
4.375000e+01
4.375000e+01
4.375000e+01
4.375000e+01
4.375000e+01
4.375000e+01
4.375000e+01
4.375000e+01
5.000000e+01
5.000000e+01
5.000000e+01
5.000000e+01
5.000000e+01
5.000000e+01
5.000000e+01
5.000000e+01
5.000000e+01
5.000000e+01
5.000000e+01
5.000000e+01
5.000000e+01
5.000000e+01
5.000000e+01
5.000000e+01
5.000000e+01
5.000000e+01
5.000000e+01
5.000000e+01
5.000000e+01
5.000000e+01
5.000000e+01
5.000000e+01
5.000000e+01
5.000000e+01
5.000000e+01
5.000000e+01
5.000000e+01
5.000000e+01
5.000000e+01
5.000000e+01
5.000000e+01
5.625000e+01
5.625000e+01
5.625000e+01
5.625000e+01
5.625000e+01
5.625000e+01
5.625000e+01
5.625000e+01
5.625000e+01
5.625000e+01
5.625000e+01
5.625000e+01
5.625000e+01
5.625000e+01
5.625000e+01
5.625000e+01
5.625000e+01
5.625000e+01
5.625000e+01
5.625000e+01
5.625000e+01
5.625000e+01
5.625000e+01
5.625000e+01
5.625000e+01
5.625000e+01
5.625000e+01
5.625000e+01
5.625000e+01
5.625000e+01
5.625000e+01
5.625000e+01
5.625000e+01
6.250000e+01
6.250000e+01
6.250000e+01
6.250000e+01
6.250000e+01
6.250000e+01
6.250000e+01
6.250000e+01
6.250000e+01
6.250000e+01
6.250000e+01
6.250000e+01
6.250000e+01
6.250000e+01
6.250000e+01
6.250000e+01
6.250000e+01
6.250000e+01
6.250000e+01
6.250000e+01
6.250000e+01
6.250000e+01
6.250000e+01
6.250000e+01
6.250000e+01
6.250000e+01
6.250000e+01
6.250000e+01
6.250000e+01
6.250000e+01
6.250000e+01
6.250000e+01
6.250000e+01
6.875000e+01
6.875000e+01
6.875000e+01
6.875000e+01
6.875000e+01
6.875000e+01
6.875000e+01
6.875000e+01
6.875000e+01
6.875000e+01
6.875000e+01
6.875000e+01
6.875000e+01
6.875000e+01
6.875000e+01
6.875000e+01
6.875000e+01
6.875000e+01
6.875000e+01
6.875000e+01
6.875000e+01
6.875000e+01
6.875000e+01
6.875000e+01
6.875000e+01
6.875000e+01
6.875000e+01
6.875000e+01
6.875000e+01
6.875000e+01
6.875000e+01
6.875000e+01
6.875000e+01
7.500000e+01
7.500000e+01
7.500000e+01
7.500000e+01
7.500000e+01
7.500000e+01
7.500000e+01
7.500000e+01
7.500000e+01
7.500000e+01
7.500000e+01
7.500000e+01
7.500000e+01
7.500000e+01
7.500000e+01
7.500000e+01
7.500000e+01
7.500000e+01
7.500000e+01
7.500000e+01
7.500000e+01
7.500000e+01
7.500000e+01
7.500000e+01
7.500000e+01
7.500000e+01
7.500000e+01
7.500000e+01
7.500000e+01
7.500000e+01
7.500000e+01
7.500000e+01
7.500000e+01
8.125000e+01
8.125000e+01
8.125000e+01
8.125000e+01
8.125000e+01
8.125000e+01
8.125000e+01
8.125000e+01
8.125000e+01
8.125000e+01
8.125000e+01
8.125000e+01
8.125000e+01
8.125000e+01
8.125000e+01
8.125000e+01
8.125000e+01
8.125000e+01
8.125000e+01
8.125000e+01
8.125000e+01
8.125000e+01
8.125000e+01
8.125000e+01
8.125000e+01
8.125000e+01
8.125000e+01
8.125000e+01
8.125000e+01
8.125000e+01
8.125000e+01
8.125000e+01
8.125000e+01
8.750000e+01
8.750000e+01
8.750000e+01
8.750000e+01
8.750000e+01
8.750000e+01
8.750000e+01
8.750000e+01
8.750000e+01
8.750000e+01
8.750000e+01
8.750000e+01
8.750000e+01
8.750000e+01
8.750000e+01
8.750000e+01
8.750000e+01
8.750000e+01
8.750000e+01
8.750000e+01
8.750000e+01
8.750000e+01
8.750000e+01
8.750000e+01
8.750000e+01
8.750000e+01
8.750000e+01
8.750000e+01
8.750000e+01
8.750000e+01
8.750000e+01
8.750000e+01
8.750000e+01
9.375000e+01
9.375000e+01
9.375000e+01
9.375000e+01
9.375000e+01
9.375000e+01
9.375000e+01
9.375000e+01
9.375000e+01
9.375000e+01
9.375000e+01
9.375000e+01
9.375000e+01
9.375000e+01
9.375000e+01
9.375000e+01
9.375000e+01
9.375000e+01
9.375000e+01
9.375000e+01
9.375000e+01
9.375000e+01
9.375000e+01
9.375000e+01
9.375000e+01
9.375000e+01
9.375000e+01
9.375000e+01
9.375000e+01
9.375000e+01
9.375000e+01
9.375000e+01
9.375000e+01
1.000000e+02
1.000000e+02
1.000000e+02
1.000000e+02
1.000000e+02
1.000000e+02
1.000000e+02
1.000000e+02
1.000000e+02
1.000000e+02
1.000000e+02
1.000000e+02
1.000000e+02
1.000000e+02
1.000000e+02
1.000000e+02
1.000000e+02
1.000000e+02
1.000000e+02
1.000000e+02
1.000000e+02
1.000000e+02
1.000000e+02
1.000000e+02
1.000000e+02
1.000000e+02
1.000000e+02
1.000000e+02
1.000000e+02
1.000000e+02
1.000000e+02
1.000000e+02
1.000000e+02
0.000000e+00
-4.812727e-02
-8.732053e-02
-1.236275e-01
-1.584721e-01
-1.921198e-01
-2.246382e-01
-2.560244e-01
-2.862587e-01
-3.153191e-01
-3.431873e-01
-3.698508e-01
-3.953031e-01
-4.195437e-01
-4.425781e-01
-4.644187e-01
-4.850849e-01
-5.046051e-01
-5.230186e-01
-5.403783e-01
-5.567550e-01
-5.722418e-01
-5.869621e-01
-6.010798e-01
-6.148139e-01
-6.284626e-01
-6.424398e-01
-6.573356e-01
-6.740160e-01
-6.937551e-01
-7.182061e-01
-7.473449e-01
-7.651280e-01
0.000000e+00
-3.226804e-02
-6.713711e-02
-1.000141e-01
-1.312623e-01
-1.611795e-01
-1.899235e-01
-2.175637e-01
-2.441276e-01
-2.696241e-01
-2.940548e-01
-3.174199e-01
-3.397205e-01
-3.609600e-01
-3.811457e-01
-4.002887e-01
-4.184053e-01
-4.355178e-01
-4.516560e-01
-4.668584e-01
-4.811740e-01
-4.946648e-01
-5.074077e-01
-5.194966e-01
-5.310440e-01
-5.421790e-01
-5.530382e-01
-5.637338e-01
-5.742652e-01
-5.842896e-01
-5.926427e-01
-5.975263e-01
-6.043251e-01
0.000000e+00
-2.559508e-02
-5.269363e-02
-8.028427e-02
-1.070938e-01
-1.329154e-01
-1.577325e-01
-1.815687e-01
-2.044449e-01
-2.263757e-01
-2.473704e-01
-2.674354e-01
-2.865764e-01
-3.047989e-01
-3.221098e-01
-3.385175e-01
-3.540325e-01
-3.686684e-01
-3.824414e-01
-3.953714e-01
-4.074808e-01
-4.187942e-01
-4.293357e-01
-4.391240e-01
-4.481629e-01
-4.564235e-01
-4.638113e-01
-4.701088e-01
-4.748901e-01
-4.774647e-01
-4.772389e-01
-4.757932e-01
-4.837324e-01
0.000000e+00
-2.030743e-02
-4.173639e-02
-6.375198e-02
-8.571599e-02
-1.071480e-01
-1.278644e-01
-1.477995e-01
-1.669353e-01
-1.852712e-01
-2.028118e-01
-2.195630e-01
-2.355305e-01
-2.507192e-01
-2.651337e-01
-2.787781e-01
-2.916560e-01
-3.037708e-01
-3.151249e-01
-3.257191e-01
-3.355505e-01
-3.446102e-01
-3.528782e-01
-3.603158e-01
-3.668545e-01
-3.723788e-01
-3.767059e-01
-3.795714e-01
-3.806655e-01
-3.798533e-01
-3.778807e-01
-3.777629e-01
-3.853270e-01
0.000000e+00
-1.576140e-02
-3.227397e-02
-4.931404e-02
-6.649253e-02
-8.346034e-02
-9.998334e-02
-1.159430e-01
-1.312854e-01
-1.459899e-01
-1.600510e-01
-1.734694e-01
-1.862477e-01
-1.983880e-01
-2.098912e-01
-2.207561e-01
-2.309795e-01
-2.405551e-01
-2.494730e-01
-2.577183e-01
-2.652689e-01
-2.720925e-01
-2.781424e-01
-2.833521e-01
-2.876296e-01
-2.908538e-01
-2.928828e-01
-2.935945e-01
-2.930106e-01
-2.915819e-01
-2.906550e-01
-2.927954e-01
-2.992479e-01
0.000000e+00
-1.158371e-02
-2.366372e-02
-3.613181e-02
-4.877257e-02
-6.135003e-02
-7.367686e-02
-8.563130e-02
-9.714652e-02
-1.081900e-01
-1.187481e-01
-1.288159e-01
-1.383917e-01
-1.474738e-01
-1.560588e-01
-1.641405e-01
-1.717094e-01
-1.787516e-01
-1.852481e-01
-1.911735e-01
-1.964944e-01
-2.011676e-01
-2.051386e-01
-2.083407e-01
-2.106979e-01
-2.121362e-01
-2.126134e-01
-2.121851e-01
-2.111297e-01
-2.101255e-01
-2.103700e-01
-2.130986e-01
-2.184376e-01
0.000000e+00
-7.623476e-03
-1.554850e-02
-2.372492e-02
-3.203615e-02
-4.034230e-02
-4.851809e-02
-5.647222e-02
-6.414755e-02
-7.151255e-02
-7.855129e-02
-8.525575e-02
-9.162081e-02
-9.764116e-02
-1.033095e-01
-1.086156e-01
-1.135449e-01
-1.180787e-01
-1.221926e-01
-1.258562e-01
-1.290328e-01
-1.316793e-01
-1.337475e-01
-1.351888e-01
-1.359632e-01
-1.360593e-01
-1.355298e-01
-1.345500e-01
-1.334928e-01
-1.329803e-01
-1.337799e-01
-1.364365e-01
-1.407462e-01
0.000000e+00
-3.786578e-03
-7.716311e-03
-1.176900e-02
-1.589347e-02
-2.002455e-02
-2.410037e-02
-2.807252e-02
-3.190828e-02
-3.558767e-02
-3.909885e-02
-4.243398e-02
-4.558625e-02
-4.854782e-02
-5.130862e-02
-5.385538e-02
-5.617102e-02
-5.823416e-02
-6.001886e-02
-6.149473e-02
-6.262766e-02
-6.338177e-02
-6.372338e-02
-6.362837e-02
-6.309486e-02
-6.216357e-02
-6.094720e-02
-5.966555e-02
-5.867062e-02
-5.842138e-02
-5.935952e-02
-6.167707e-02
-6.509673e-02
0.000000e+00
-6.109305e-06
-1.324671e-05
-2.101682e-05
-2.901092e-05
-3.667794e-05
-4.318737e-05
-4.727716e-05
-4.707590e-05
-3.988885e-05
-2.193955e-05
1.193741e-05
6.865206e-05
1.572553e-04
2.893569e-04
4.795285e-04
7.456299e-04
1.108957e-03
1.594054e-03
2.227938e-03
3.038389e-03
4.050760e-03
5.282615e-03
6.735288e-03
8.381568e-03
1.014934e-02
1.190326e-02
1.343133e-02
1.445138e-02
1.465824e-02
1.382532e-02
1.193903e-02
9.297172e-03
0.000000e+00
3.775071e-03
7.691310e-03
1.172926e-02
1.583847e-02
1.995482e-02
2.401797e-02
2.798184e-02
3.181722e-02
3.550916e-02
3.905290e-02
4.245031e-02
4.570754e-02
4.883383e-02
5.184099e-02
5.474331e-02
5.755755e-02
6.030283e-02
6.300006e-02
6.567081e-02
6.833502e-02
7.100739e-02
7.369170e-02
7.637306e-02
7.900789e-02
8.151303e-02
8.375736e-02
8.556247e-02
8.672231e-02
8.705068e-02
8.645598e-02
8.502306e-02
8.306228e-02
0.000000e+00
7.614075e-03
1.552793e-02
2.369199e-02
3.199024e-02
4.028354e-02
4.844783e-02
5.639367e-02
6.406669e-02
7.143941e-02
7.850160e-02
8.525312e-02
9.169942e-02
9.784919e-02
1.037132e-01
1.093040e-01
1.146355e-01
1.197230e-01
1.245822e-01
1.292282e-01
1.336731e-01
1.379224e-01
1.419704e-01
1.457938e-01
1.493444e-01
1.525436e-01
1.552800e-01
1.574173e-01
1.588162e-01
1.593755e-01
1.590879e-01
1.580964e-01
1.567279e-01
0.000000e+00
1.157772e-02
2.365036e-02
3.611006e-02
4.874168e-02
6.130971e-02
7.362753e-02
8.557452e-02
9.708557e-02
1.081307e-01
1.186999e-01
1.287934e-01
1.384162e-01
1.475760e-01
1.562813e-01
1.645414e-01
1.723659e-01
1.797649e-01
1.867478e-01
1.933227e-01
1.994942e-01
2.052608e-01
2.106114e-01
2.155208e-01
2.199455e-01
2.238212e-01
2.270645e-01
2.295816e-01
2.312886e-01
2.321440e-01
2.321921e-01
2.316104e-01
2.307456e-01
0.000000e+00
1.575991e-02
3.227025e-02
4.930737e-02
6.648223e-02
8.344581e-02
9.996421e-02
1.159192e-01
1.312575e-01
1.459591e-01
1.600196e-01
1.734415e-01
1.862297e-01
1.983895e-01
2.099260e-01
2.208439e-01
2.311473e-01
2.408397e-01
2.499233e-01
2.583985e-01
2.662629e-01
2.735092e-01
2.801234e-01
2.860827e-01
2.913536e-01
2.958918e-01
2.996455e-01
3.025628e-01
3.046074e-01
3.057820e-01
3.061630e-01
3.059446e-01
3.054890e-01
0.000000e+00
2.031120e-02
4.174406e-02
6.376339e-02
8.573081e-02
1.071658e-01
1.278846e-01
1.478210e-01
1.669566e-01
1.852896e-01
2.028233e-01
2.195619e-01
2.355083e-01
2.506644e-01
2.650305e-01
2.786053e-01
2.913864e-01
3.033696e-01
3.145489e-01
3.249164e-01
3.344616e-01
3.431713e-01
3.510289e-01
3.580145e-01
3.641060e-01
3.692804e-01
3.735184e-01
3.768104e-01
3.791664e-01
3.806306e-01
3.813041e-01
3.813844e-01
3.812332e-01
0.000000e+00
2.560429e-02
5.271329e-02
8.031506e-02
1.071363e-01
1.329701e-01
1.577996e-01
1.816472e-01
2.045328e-01
2.264684e-01
2.474599e-01
2.675089e-01
2.866142e-01
3.047720e-01
3.219767e-01
3.382206e-01
3.534936e-01
3.677832e-01
3.810744e-01
3.933494e-01
4.045881e-01
4.147686e-01
4.238688e-01
4.318683e-01
4.387520e-01
4.445145e-01
4.491664e-01
4.527403e-01
4.552982e-01
4.569365e-01
4.577939e-01
4.580732e-01
4.581066e-01
0.000000e+00
3.228186e-02
6.716732e-02
1.000626e-01
1.313317e-01
1.612719e-01
1.900412e-01
2.177076e-01
2.442972e-01
2.698160e-01
2.942612e-01
3.176260e-01
3.399016e-01
3.610778e-01
3.811426e-01
4.000817e-01
4.178779e-01
4.345101e-01
4.499535e-01
4.641788e-01
4.771533e-01
4.888421e-01
4.992105e-01
5.082290e-01
5.158787e-01
5.221601e-01
5.271029e-01
5.307767e-01
5.333003e-01
5.348467e-01
5.356367e-01
5.359231e-01
5.359933e-01
0.000000e+00
4.814240e-02
8.735584e-02
1.236881e-01
1.585626e-01
1.922453e-01
2.248038e-01
2.562350e-01
2.865181e-01
3.156289e-01
3.435449e-01
3.702467e-01
3.957171e-01
4.199399e-01
4.428983e-01
4.645729e-01
4.849408e-01
5.039736e-01
5.216365e-01
5.378877e-01
5.526782e-01
5.659535e-01
5.776569e-01
5.877344e-01
5.961446e-01
6.028705e-01
6.079361e-01
6.114257e-01
6.135056e-01
6.144429e-01
6.146132e-01
6.144721e-01
6.143927e-01
0.000000e+00
-2.974173e-02
-5.190575e-02
-7.609204e-02
-1.030249e-01
-1.334483e-01
-1.675736e-01
-2.054601e-01
-2.470701e-01
-2.923144e-01
-3.410732e-01
-3.932083e-01
-4.485711e-01
-5.070067e-01
-5.683570e-01
-6.324628e-01
-6.991660e-01
-7.683112e-01
-8.397481e-01
-9.133353e-01
-9.889448e-01
-1.066469e+00
-1.145830e+00
-1.226998e+00
-1.310014e+00
-1.395031e+00
-1.482387e+00
-1.572741e+00
-1.667356e+00
-1.768727e+00
-1.882245e+00
-2.020623e+00
-2.211795e+00
0.000000e+00
-1.848336e-02
-4.168324e-02
-6.603268e-02
-9.334095e-02
-1.240948e-01
-1.585517e-01
-1.967698e-01
-2.387148e-01
-2.842973e-01
-3.333968e-01
-3.858742e-01
-4.415795e-01
-5.003565e-01
-5.620457e-01
-6.264863e-01
-6.935182e-01
-7.629836e-01
-8.347295e-01
-9.086108e-01
-9.844951e-01
-1.062269e+00
-1.141848e+00
-1.223194e+00
-1.306335e+00
-1.391412e+00
-1.478744e+00
-1.568971e+00
-1.663327e+00
-1.764268e+00
-1.876909e+00
-2.012206e+00
-2.190811e+00
0.000000e+00
-1.357709e-02
-3.360483e-02
-5.762211e-02
-8.497808e-02
-1.159586e-01
-1.506874e-01
-1.891968e-01
-2.314405e-01
-2.773250e-01
-3.267277e-01
-3.795084e-01
-4.355164e-01
-4.945949e-01
-5.565840e-01
-6.213221e-01
-6.886484e-01
-7.584042e-01
-8.304354e-01
-9.045959e-01
-9.807519e-01
-1.058789e+00
-1.138624e+00
-1.220217e+00
-1.303602e+00
-1.388926e+00
-1.476524e+00
-1.567052e+00
-1.661728e+00
-1.762764e+00
-1.873939e+00
-1.999718e+00
-2.139245e+00
0.000000e+00
-1.087196e-02
-2.845652e-02
-5.119307e-02
-7.819748e-02
-1.091684e-01
-1.440458e-01
-1.827709e-01
-2.252604e-01
-2.714037e-01
-3.210703e-01
-3.741166e-01
-4.303907e-01
-4.897353e-01
-5.519907e-01
-6.169959e-01
-6.845904e-01
-7.546162e-01
-8.269201e-01
-9.013571e-01
-9.777952e-01
-1.056123e+00
-1.136260e+00
-1.218175e+00
-1.301909e+00
-1.387615e+00
-1.475626e+00
-1.566545e+00
-1.661371e+00
-1.761560e+00
-1.868507e+00
-1.981303e+00
-2.086305e+00
0.000000e+00
-9.199469e-03
-2.508970e-02
-4.662769e-02
-7.301651e-02
-1.037843e-01
-1.386749e-01
-1.775258e-01
-2.201969e-01
-2.665485e-01
-3.164359e-01
-3.697086e-01
-4.262120e-01
-4.857884e-01
-5.482787e-01
-6.135229e-01
-6.813623e-01
-7.516406e-01
-8.242066e-01
-8.989178e-01
-9.756452e-01
-1.054281e+00
-1.134748e+00
-1.217016e+00
-1.301124e+00
-1.387207e+00
-1.475536e+00
-1.566544e+00
-1.660805e+00
-1.758783e+00
-1.860010e+00
-1.960770e+00
-2.052215e+00
0.000000e+00
-8.135247e-03
-2.288065e-02
-4.348600e-02
-6.928080e-02
-9.976041e-02
-1.345751e-01
-1.734757e-01
-2.162663e-01
-2.627742e-01
-3.128364e-01
-3.662938e-01
-4.229880e-01
-4.827606e-01
-5.454531e-01
-6.109074e-01
-6.789666e-01
-7.494768e-01
-8.222892e-01
-8.972637e-01
-9.742730e-01
-1.053210e+00
-1.133995e+00
-1.216590e+00
-1.301008e+00
-1.387332e+00
-1.475713e+00
-1.566343e+00
-1.659326e+00
-1.754349e+00
-1.849964e+00
-1.942754e+00
-2.027564e+00
0.000000e+00
-7.473846e-03
-2.148398e-02
-4.144383e-02
-6.677814e-02
-9.699511e-02
-1.317064e-01
-1.706119e-01
-2.134731e-01
-2.600890e-01
-3.102802e-01
-3.638788e-01
-4.207227e-01
-4.806529e-01
-5.435119e-01
-6.091431e-01
-6.773920e-01
-7.481067e-01
-8.211402e-01
-8.963532e-01
-9.736174e-01
-1.052821e+00
-1.133875e+00
-1.216717e+00
-1.301319e+00
-1.387683e+00
-1.475817e+00
-1.565670e+00
-1.656982e+00
-1.749010e+00
-1.840164e+00
-1.927813e+00
-2.008738e+00
0.000000e+00
-7.110396e-03
-2.070900e-02
-4.029302e-02
-6.534308e-02
-9.538434e-02
-1.300160e-01
-1.689130e-01
-2.118123e-01
-2.584951e-01
-3.087707e-01
-3.624655e-01
-4.194153e-01
-4.794608e-01
-5.424457e-01
-6.082153e-01
-6.766169e-01
-7.474999e-01
-8.207178e-01
-8.961297e-01
-9.736030e-01
-1.053016e+00
-1.134260e+00
-1.217243e+00
-1.301880e+00
-1.388085e+00
-1.475730e+00
-1.564578e+00
-1.654152e+00
-1.743573e+00
-1.831405e+00
-1.915670e+00
-1.994172e+00
0.000000e+00
-6.993294e-03
-2.045897e-02
-3.992004e-02
-6.487538e-02
-9.485716e-02
-1.294622e-01
-1.683586e-01
-2.112760e-01
-2.579901e-01
-3.083069e-01
-3.620517e-01
-4.190604e-01
-4.791750e-01
-5.422404e-01
-6.081038e-01
-6.766135e-01
-7.476195e-01
-8.209742e-01
-8.965328e-01
-9.741550e-01
-1.053705e+00
-1.135050e+00
-1.218059e+00
-1.302592e+00
-1.388481e+00
-1.475493e+00
-1.563269e+00
-1.651241e+00
-1.738544e+00
-1.823961e+00
-1.905986e+00
-1.983008e+00
0.000000e+00
-7.107009e-03
-2.070430e-02
-4.028898e-02
-6.534186e-02
-9.538863e-02
-1.300293e-01
-1.689401e-01
-2.118595e-01
-2.585704e-01
-3.088847e-01
-3.626315e-01
-4.196494e-01
-4.797829e-01
-5.428787e-01
-6.087853e-01
-6.773518e-01
-7.484275e-01
-8.218624e-01
-8.975062e-01
-9.752084e-01
-1.054816e+00
-1.136171e+00
-1.219105e+00
-1.303426e+00
-1.388899e+00
-1.475218e+00
-1.561963e+00
-1.648550e+00
-1.734190e+00
-1.817881e+00
-1.898457e+00
-1.974688e+00
0.000000e+00
-7.467346e-03
-2.147496e-02
-4.143602e-02
-6.677569e-02
-9.700317e-02
-1.317318e-01
-1.706637e-01
-2.135632e-01
-2.602331e-01
-3.104985e-01
-3.641966e-01
-4.211715e-01
-4.812705e-01
-5.443426e-01
-6.102371e-01
-6.788032e-01
-7.498891e-01
-8.233412e-01
-8.990030e-01
-9.767126e-01
-1.056300e+00
-1.137583e+00
-1.220359e+00
-1.304392e+00
-1.389400e+00
-1.475032e+00
-1.560844e+00
-1.646275e+00
-1.730635e+00
-1.813113e+00
-1.892810e+00
-1.968782e+00
0.000000e+00
-8.126213e-03
-2.286811e-02
-4.347510e-02
-6.927727e-02
-9.977146e-02
-1.346102e-01
-1.735476e-01
-2.163917e-01
-2.629750e-01
-3.131410e-01
-3.667377e-01
-4.236153e-01
-4.836243e-01
-5.466156e-01
-6.124391e-01
-6.809436e-01
-7.519758e-01
-8.253782e-01
-9.009878e-01
-9.786325e-01
-1.058127e+00
-1.139267e+00
-1.221821e+00
-1.305522e+00
-1.390055e+00
-1.475044e+00
-1.560042e+00
-1.644528e+00
-1.727912e+00
-1.809553e+00
-1.888782e+00
-1.964910e+00
0.000000e+00
-9.188826e-03
-2.507494e-02
-4.661485e-02
-7.301243e-02
-1.037977e-01
-1.387172e-01
-1.776125e-01
-2.203483e-01
-2.667912e-01
-3.168040e-01
-3.702452e-01
-4.269705e-01
-4.868332e-01
-5.496853e-01
-6.153769e-01
-6.837563e-01
-7.546682e-01
-8.279518e-01
-9.034384e-01
-9.809471e-01
-1.060280e+00
-1.141216e+00
-1.223503e+00
-1.306851e+00
-1.390923e+00
-1.475331e+00
-1.559637e+00
-1.643361e+00
-1.726001e+00
-1.807068e+00
-1.886107e+00
-1.962694e+00
0.000000e+00
-1.086102e-02
-2.844136e-02
-5.118001e-02
-7.819397e-02
-1.091841e-01
-1.440935e-01
-1.828677e-01
-2.254288e-01
-2.716730e-01
-3.214783e-01
-3.747109e-01
-4.312301e-01
-4.908907e-01
-5.535453e-01
-6.190439e-01
-6.872337e-01
-7.579578e-01
-8.310528e-01
-9.063455e-01
-9.836485e-01
-1.062755e+00
-1.143433e+00
-1.225416e+00
-1.308400e+00
-1.392036e+00
-1.475932e+00
-1.559659e+00
-1.642772e+00
-1.724842e+00
-1.805506e+00
-1.884510e+00
-1.961728e+00
0.000000e+00
-1.356756e-02
-3.359156e-02
-5.761109e-02
-8.497703e-02
-1.159777e-01
-1.507401e-01
-1.893009e-01
-2.316194e-01
-2.776091e-01
-3.271560e-01
-3.801300e-01
-4.363918e-01
-4.957968e-01
-5.581973e-01
-6.234427e-01
-6.913794e-01
-7.618491e-01
-8.346861e-01
-9.097144e-01
-9.867427e-01
-1.065559e+00
-1.145924e+00
-1.227566e+00
-1.310174e+00
-1.393394e+00
-1.476836e+00
-1.560080e+00
-1.642706e+00
-1.724335e+00
-1.804696e+00
-1.883707e+00
-1.961560e+00
0.000000e+00
-1.847723e-02
-4.167421e-02
-6.602619e-02
-9.334496e-02
-1.241197e-01
-1.586111e-01
-1.968816e-01
-2.389021e-01
-2.845905e-01
-3.338343e-01
-3.865042e-01
-4.424608e-01
-5.015596e-01
-5.636520e-01
-6.285870e-01
-6.962098e-01
-7.663607e-01
-8.388727e-01
-9.135676e-01
-9.902519e-01
-1.068711e+00
-1.148705e+00
-1.229958e+00
-1.312161e+00
-1.394963e+00
-1.477978e+00
-1.560800e+00
-1.643028e+00
-1.724311e+00
-1.804432e+00
-1.883417e+00
-1.961703e+00
0.000000e+00
-2.974086e-02
-5.190274e-02
-7.609261e-02
-1.030371e-01
-1.334825e-01
-1.676434e-01
-2.055832e-01
-2.472694e-01
-2.926192e-01
-3.415205e-01
-3.938440e-01
-4.494506e-01
-5.081956e-01
-5.699299e-01
-6.345016e-01
-7.017547e-01
-7.715280e-01
-8.436525e-01
-9.179483e-01
-9.942202e-01
-1.072253e+00
-1.151804e+00