TITLE = "Solution"
VARIABLES = x, y, u, v, psiu, psiv, t, stress
ZONE T="structure" N=561 E=512 F=FEBLOCK ET=QUADRILATERAL VARLOCATION=([7,8]=cellcentered)
0.000000e+00
6.250000e+00
1.250000e+01
1.875000e+01
2.500000e+01
3.125000e+01
3.750000e+01
4.375000e+01
5.000000e+01
5.625000e+01
6.250000e+01
6.875000e+01
7.500000e+01
8.125000e+01
8.750000e+01
9.375000e+01
1.000000e+02
1.062500e+02
1.125000e+02
1.187500e+02
1.250000e+02
1.312500e+02
1.375000e+02
1.437500e+02
1.500000e+02
1.562500e+02
1.625000e+02
1.687500e+02
1.750000e+02
1.812500e+02
1.875000e+02
1.937500e+02
2.000000e+02
0.000000e+00
6.250000e+00
1.250000e+01
1.875000e+01
2.500000e+01
3.125000e+01
3.750000e+01
4.375000e+01
5.000000e+01
5.625000e+01
6.250000e+01
6.875000e+01
7.500000e+01
8.125000e+01
8.750000e+01
9.375000e+01
1.000000e+02
1.062500e+02
1.125000e+02
1.187500e+02
1.250000e+02
1.312500e+02
1.375000e+02
1.437500e+02
1.500000e+02
1.562500e+02
1.625000e+02
1.687500e+02
1.750000e+02
1.812500e+02
1.875000e+02
1.937500e+02
2.000000e+02
0.000000e+00
6.250000e+00
1.250000e+01
1.875000e+01
2.500000e+01
3.125000e+01
3.750000e+01
4.375000e+01
5.000000e+01
5.625000e+01
6.250000e+01
6.875000e+01
7.500000e+01
8.125000e+01
8.750000e+01
9.375000e+01
1.000000e+02
1.062500e+02
1.125000e+02
1.187500e+02
1.250000e+02
1.312500e+02
1.375000e+02
1.437500e+02
1.500000e+02
1.562500e+02
1.625000e+02
1.687500e+02
1.750000e+02
1.812500e+02
1.875000e+02
1.937500e+02
2.000000e+02
0.000000e+00
6.250000e+00
1.250000e+01
1.875000e+01
2.500000e+01
3.125000e+01
3.750000e+01
4.375000e+01
5.000000e+01
5.625000e+01
6.250000e+01
6.875000e+01
7.500000e+01
8.125000e+01
8.750000e+01
9.375000e+01
1.000000e+02
1.062500e+02
1.125000e+02
1.187500e+02
1.250000e+02
1.312500e+02
1.375000e+02
1.437500e+02
1.500000e+02
1.562500e+02
1.625000e+02
1.687500e+02
1.750000e+02
1.812500e+02
1.875000e+02
1.937500e+02
2.000000e+02
0.000000e+00
6.250000e+00
1.250000e+01
1.875000e+01
2.500000e+01
3.125000e+01
3.750000e+01
4.375000e+01
5.000000e+01
5.625000e+01
6.250000e+01
6.875000e+01
7.500000e+01
8.125000e+01
8.750000e+01
9.375000e+01
1.000000e+02
1.062500e+02
1.125000e+02
1.187500e+02
1.250000e+02
1.312500e+02
1.375000e+02
1.437500e+02
1.500000e+02
1.562500e+02
1.625000e+02
1.687500e+02
1.750000e+02
1.812500e+02
1.875000e+02
1.937500e+02
2.000000e+02
0.000000e+00
6.250000e+00
1.250000e+01
1.875000e+01
2.500000e+01
3.125000e+01
3.750000e+01
4.375000e+01
5.000000e+01
5.625000e+01
6.250000e+01
6.875000e+01
7.500000e+01
8.125000e+01
8.750000e+01
9.375000e+01
1.000000e+02
1.062500e+02
1.125000e+02
1.187500e+02
1.250000e+02
1.312500e+02
1.375000e+02
1.437500e+02
1.500000e+02
1.562500e+02
1.625000e+02
1.687500e+02
1.750000e+02
1.812500e+02
1.875000e+02
1.937500e+02
2.000000e+02
0.000000e+00
6.250000e+00
1.250000e+01
1.875000e+01
2.500000e+01
3.125000e+01
3.750000e+01
4.375000e+01
5.000000e+01
5.625000e+01
6.250000e+01
6.875000e+01
7.500000e+01
8.125000e+01
8.750000e+01
9.375000e+01
1.000000e+02
1.062500e+02
1.125000e+02
1.187500e+02
1.250000e+02
1.312500e+02
1.375000e+02
1.437500e+02
1.500000e+02
1.562500e+02
1.625000e+02
1.687500e+02
1.750000e+02
1.812500e+02
1.875000e+02
1.937500e+02
2.000000e+02
0.000000e+00
6.250000e+00
1.250000e+01
1.875000e+01
2.500000e+01
3.125000e+01
3.750000e+01
4.375000e+01
5.000000e+01
5.625000e+01
6.250000e+01
6.875000e+01
7.500000e+01
8.125000e+01
8.750000e+01
9.375000e+01
1.000000e+02
1.062500e+02
1.125000e+02
1.187500e+02
1.250000e+02
1.312500e+02
1.375000e+02
1.437500e+02
1.500000e+02
1.562500e+02
1.625000e+02
1.687500e+02
1.750000e+02
1.812500e+02
1.875000e+02
1.937500e+02
2.000000e+02
0.000000e+00
6.250000e+00
1.250000e+01
1.875000e+01
2.500000e+01
3.125000e+01
3.750000e+01
4.375000e+01
5.000000e+01
5.625000e+01
6.250000e+01
6.875000e+01
7.500000e+01
8.125000e+01
8.750000e+01
9.375000e+01
1.000000e+02
1.062500e+02
1.125000e+02
1.187500e+02
1.250000e+02
1.312500e+02
1.375000e+02
1.437500e+02
1.500000e+02
1.562500e+02
1.625000e+02
1.687500e+02
1.750000e+02
1.812500e+02
1.875000e+02
1.937500e+02
2.000000e+02
0.000000e+00
6.250000e+00
1.250000e+01
1.875000e+01
2.500000e+01
3.125000e+01
3.750000e+01
4.375000e+01
5.000000e+01
5.625000e+01
6.250000e+01
6.875000e+01
7.500000e+01
8.125000e+01
8.750000e+01
9.375000e+01
1.000000e+02
1.062500e+02
1.125000e+02
1.187500e+02
1.250000e+02
1.312500e+02
1.375000e+02
1.437500e+02
1.500000e+02
1.562500e+02
1.625000e+02
1.687500e+02
1.750000e+02
1.812500e+02
1.875000e+02
1.937500e+02
2.000000e+02
0.000000e+00
6.250000e+00
1.250000e+01
1.875000e+01
2.500000e+01
3.125000e+01
3.750000e+01
4.375000e+01
5.000000e+01
5.625000e+01
6.250000e+01
6.875000e+01
7.500000e+01
8.125000e+01
8.750000e+01
9.375000e+01
1.000000e+02
1.062500e+02
1.125000e+02
1.187500e+02
1.250000e+02
1.312500e+02
1.375000e+02
1.437500e+02
1.500000e+02
1.562500e+02
1.625000e+02
1.687500e+02
1.750000e+02
1.812500e+02
1.875000e+02
1.937500e+02
2.000000e+02
0.000000e+00
6.250000e+00
1.250000e+01
1.875000e+01
2.500000e+01
3.125000e+01
3.750000e+01
4.375000e+01
5.000000e+01
5.625000e+01
6.250000e+01
6.875000e+01
7.500000e+01
8.125000e+01
8.750000e+01
9.375000e+01
1.000000e+02
1.062500e+02
1.125000e+02
1.187500e+02
1.250000e+02
1.312500e+02
1.375000e+02
1.437500e+02
1.500000e+02
1.562500e+02
1.625000e+02
1.687500e+02
1.750000e+02
1.812500e+02
1.875000e+02
1.937500e+02
2.000000e+02
0.000000e+00
6.250000e+00
1.250000e+01
1.875000e+01
2.500000e+01
3.125000e+01
3.750000e+01
4.375000e+01
5.000000e+01
5.625000e+01
6.250000e+01
6.875000e+01
7.500000e+01
8.125000e+01
8.750000e+01
9.375000e+01
1.000000e+02
1.062500e+02
1.125000e+02
1.187500e+02
1.250000e+02
1.312500e+02
1.375000e+02
1.437500e+02
1.500000e+02
1.562500e+02
1.625000e+02
1.687500e+02
1.750000e+02
1.812500e+02
1.875000e+02
1.937500e+02
2.000000e+02
0.000000e+00
6.250000e+00
1.250000e+01
1.875000e+01
2.500000e+01
3.125000e+01
3.750000e+01
4.375000e+01
5.000000e+01
5.625000e+01
6.250000e+01
6.875000e+01
7.500000e+01
8.125000e+01
8.750000e+01
9.375000e+01
1.000000e+02
1.062500e+02
1.125000e+02
1.187500e+02
1.250000e+02
1.312500e+02
1.375000e+02
1.437500e+02
1.500000e+02
1.562500e+02
1.625000e+02
1.687500e+02
1.750000e+02
1.812500e+02
1.875000e+02
1.937500e+02
2.000000e+02
0.000000e+00
6.250000e+00
1.250000e+01
1.875000e+01
2.500000e+01
3.125000e+01
3.750000e+01
4.375000e+01
5.000000e+01
5.625000e+01
6.250000e+01
6.875000e+01
7.500000e+01
8.125000e+01
8.750000e+01
9.375000e+01
1.000000e+02
1.062500e+02
1.125000e+02
1.187500e+02
1.250000e+02
1.312500e+02
1.375000e+02
1.437500e+02
1.500000e+02
1.562500e+02
1.625000e+02
1.687500e+02
1.750000e+02
1.812500e+02
1.875000e+02
1.937500e+02
2.000000e+02
0.000000e+00
6.250000e+00
1.250000e+01
1.875000e+01
2.500000e+01
3.125000e+01
3.750000e+01
4.375000e+01
5.000000e+01
5.625000e+01
6.250000e+01
6.875000e+01
7.500000e+01
8.125000e+01
8.750000e+01
9.375000e+01
1.000000e+02
1.062500e+02
1.125000e+02
1.187500e+02
1.250000e+02
1.312500e+02
1.375000e+02
1.437500e+02
1.500000e+02
1.562500e+02
1.625000e+02
1.687500e+02
1.750000e+02
1.812500e+02
1.875000e+02
1.937500e+02
2.000000e+02
0.000000e+00
6.250000e+00
1.250000e+01
1.875000e+01
2.500000e+01
3.125000e+01
3.750000e+01
4.375000e+01
5.000000e+01
5.625000e+01
6.250000e+01
6.875000e+01
7.500000e+01
8.125000e+01
8.750000e+01
9.375000e+01
1.000000e+02
1.062500e+02
1.125000e+02
1.187500e+02
1.250000e+02
1.312500e+02
1.375000e+02
1.437500e+02
1.500000e+02
1.562500e+02
1.625000e+02
1.687500e+02
1.750000e+02
1.812500e+02
1.875000e+02
1.937500e+02
2.000000e+02
0.000000e+00
0.000000e+00
0.000000e+00
0.000000e+00
0.000000e+00
0.000000e+00
0.000000e+00
0.000000e+00
0.000000e+00
0.000000e+00
0.000000e+00
0.000000e+00
0.000000e+00
0.000000e+00
0.000000e+00
0.000000e+00
0.000000e+00
0.000000e+00
0.000000e+00
0.000000e+00
0.000000e+00
0.000000e+00
0.000000e+00
0.000000e+00
0.000000e+00
0.000000e+00
0.000000e+00
0.000000e+00
0.000000e+00
0.000000e+00
0.000000e+00
0.000000e+00
0.000000e+00
6.250000e+00
6.250000e+00
6.250000e+00
6.250000e+00
6.250000e+00
6.250000e+00
6.250000e+00
6.250000e+00
6.250000e+00
6.250000e+00
6.250000e+00
6.250000e+00
6.250000e+00
6.250000e+00
6.250000e+00
6.250000e+00
6.250000e+00
6.250000e+00
6.250000e+00
6.250000e+00
6.250000e+00
6.250000e+00
6.250000e+00
6.250000e+00
6.250000e+00
6.250000e+00
6.250000e+00
6.250000e+00
6.250000e+00
6.250000e+00
6.250000e+00
6.250000e+00
6.250000e+00
1.250000e+01
1.250000e+01
1.250000e+01
1.250000e+01
1.250000e+01
1.250000e+01
1.250000e+01
1.250000e+01
1.250000e+01
1.250000e+01
1.250000e+01
1.250000e+01
1.250000e+01
1.250000e+01
1.250000e+01
1.250000e+01
1.250000e+01
1.250000e+01
1.250000e+01
1.250000e+01
1.250000e+01
1.250000e+01
1.250000e+01
1.250000e+01
1.250000e+01
1.250000e+01
1.250000e+01
1.250000e+01
1.250000e+01
1.250000e+01
1.250000e+01
1.250000e+01
1.250000e+01
1.875000e+01
1.875000e+01
1.875000e+01
1.875000e+01
1.875000e+01
1.875000e+01
1.875000e+01
1.875000e+01
1.875000e+01
1.875000e+01
1.875000e+01
1.875000e+01
1.875000e+01
1.875000e+01
1.875000e+01
1.875000e+01
1.875000e+01
1.875000e+01
1.875000e+01
1.875000e+01
1.875000e+01
1.875000e+01
1.875000e+01
1.875000e+01
1.875000e+01
1.875000e+01
1.875000e+01
1.875000e+01
1.875000e+01
1.875000e+01
1.875000e+01
1.875000e+01
1.875000e+01
2.500000e+01
2.500000e+01
2.500000e+01
2.500000e+01
2.500000e+01
2.500000e+01
2.500000e+01
2.500000e+01
2.500000e+01
2.500000e+01
2.500000e+01
2.500000e+01
2.500000e+01
2.500000e+01
2.500000e+01
2.500000e+01
2.500000e+01
2.500000e+01
2.500000e+01
2.500000e+01
2.500000e+01
2.500000e+01
2.500000e+01
2.500000e+01
2.500000e+01
2.500000e+01
2.500000e+01
2.500000e+01
2.500000e+01
2.500000e+01
2.500000e+01
2.500000e+01
2.500000e+01
3.125000e+01
3.125000e+01
3.125000e+01
3.125000e+01
3.125000e+01
3.125000e+01
3.125000e+01
3.125000e+01
3.125000e+01
3.125000e+01
3.125000e+01
3.125000e+01
3.125000e+01
3.125000e+01
3.125000e+01
3.125000e+01
3.125000e+01
3.125000e+01
3.125000e+01
3.125000e+01
3.125000e+01
3.125000e+01
3.125000e+01
3.125000e+01
3.125000e+01
3.125000e+01
3.125000e+01
3.125000e+01
3.125000e+01
3.125000e+01
3.125000e+01
3.125000e+01
3.125000e+01
3.750000e+01
3.750000e+01
3.750000e+01
3.750000e+01
3.750000e+01
3.750000e+01
3.750000e+01
3.750000e+01
3.750000e+01
3.750000e+01
3.750000e+01
3.750000e+01
3.750000e+01
3.750000e+01
3.750000e+01
3.750000e+01
3.750000e+01
3.750000e+01
3.750000e+01
3.750000e+01
3.750000e+01
3.750000e+01
3.750000e+01
3.750000e+01
3.750000e+01
3.750000e+01
3.750000e+01
3.750000e+01
3.750000e+01
3.750000e+01
3.750000e+01
3.750000e+01
3.750000e+01
4.375000e+01
4.375000e+01
4.375000e+01
4.375000e+01
4.375000e+01
4.375000e+01
4.375000e+01
4.375000e+01
4.375000e+01
4.375000e+01
4.375000e+01
4.375000e+01
4.375000e+01
4.375000e+01
4.375000e+01
4.375000e+01
4.375000e+01
4.375000e+01
4.375000e+01
4.375000e+01
4.375000e+01
4.375000e+01
4.375000e+01
4.375000e+01
4.375000e+01
4.375000e+01
4.375000e+01
4.375000e+01
4.375000e+01
4.375000e+01
4.375000e+01
4.375000e+01
4.375000e+01
5.000000e+01
5.000000e+01
5.000000e+01
5.000000e+01
5.000000e+01
5.000000e+01
5.000000e+01
5.000000e+01
5.000000e+01
5.000000e+01
5.000000e+01
5.000000e+01
5.000000e+01
5.000000e+01
5.000000e+01
5.000000e+01
5.000000e+01
5.000000e+01
5.000000e+01
5.000000e+01
5.000000e+01
5.000000e+01
5.000000e+01
5.000000e+01
5.000000e+01
5.000000e+01
5.000000e+01
5.000000e+01
5.000000e+01
5.000000e+01
5.000000e+01
5.000000e+01
5.000000e+01
5.625000e+01
5.625000e+01
5.625000e+01
5.625000e+01
5.625000e+01
5.625000e+01
5.625000e+01
5.625000e+01
5.625000e+01
5.625000e+01
5.625000e+01
5.625000e+01
5.625000e+01
5.625000e+01
5.625000e+01
5.625000e+01
5.625000e+01
5.625000e+01
5.625000e+01
5.625000e+01
5.625000e+01
5.625000e+01
5.625000e+01
5.625000e+01
5.625000e+01
5.625000e+01
5.625000e+01
5.625000e+01
5.625000e+01
5.625000e+01
5.625000e+01
5.625000e+01
5.625000e+01
6.250000e+01
6.250000e+01
6.250000e+01
6.250000e+01
6.250000e+01
6.250000e+01
6.250000e+01
6.250000e+01
6.250000e+01
6.250000e+01
6.250000e+01
6.250000e+01
6.250000e+01
6.250000e+01
6.250000e+01
6.250000e+01
6.250000e+01
6.250000e+01
6.250000e+01
6.250000e+01
6.250000e+01
6.250000e+01
6.250000e+01
6.250000e+01
6.250000e+01
6.250000e+01
6.250000e+01
6.250000e+01
6.250000e+01
6.250000e+01
6.250000e+01
6.250000e+01
6.250000e+01
6.875000e+01
6.875000e+01
6.875000e+01
6.875000e+01
6.875000e+01
6.875000e+01
6.875000e+01
6.875000e+01
6.875000e+01
6.875000e+01
6.875000e+01
6.875000e+01
6.875000e+01
6.875000e+01
6.875000e+01
6.875000e+01
6.875000e+01
6.875000e+01
6.875000e+01
6.875000e+01
6.875000e+01
6.875000e+01
6.875000e+01
6.875000e+01
6.875000e+01
6.875000e+01
6.875000e+01
6.875000e+01
6.875000e+01
6.875000e+01
6.875000e+01
6.875000e+01
6.875000e+01
7.500000e+01
7.500000e+01
7.500000e+01
7.500000e+01
7.500000e+01
7.500000e+01
7.500000e+01
7.500000e+01
7.500000e+01
7.500000e+01
7.500000e+01
7.500000e+01
7.500000e+01
7.500000e+01
7.500000e+01
7.500000e+01
7.500000e+01
7.500000e+01
7.500000e+01
7.500000e+01
7.500000e+01
7.500000e+01
7.500000e+01
7.500000e+01
7.500000e+01
7.500000e+01
7.500000e+01
7.500000e+01
7.500000e+01
7.500000e+01
7.500000e+01
7.500000e+01
7.500000e+01
8.125000e+01
8.125000e+01
8.125000e+01
8.125000e+01
8.125000e+01
8.125000e+01
8.125000e+01
8.125000e+01
8.125000e+01
8.125000e+01
8.125000e+01
8.125000e+01
8.125000e+01
8.125000e+01
8.125000e+01
8.125000e+01
8.125000e+01
8.125000e+01
8.125000e+01
8.125000e+01
8.125000e+01
8.125000e+01
8.125000e+01
8.125000e+01
8.125000e+01
8.125000e+01
8.125000e+01
8.125000e+01
8.125000e+01
8.125000e+01
8.125000e+01
8.125000e+01
8.125000e+01
8.750000e+01
8.750000e+01
8.750000e+01
8.750000e+01
8.750000e+01
8.750000e+01
8.750000e+01
8.750000e+01
8.750000e+01
8.750000e+01
8.750000e+01
8.750000e+01
8.750000e+01
8.750000e+01
8.750000e+01
8.750000e+01
8.750000e+01
8.750000e+01
8.750000e+01
8.750000e+01
8.750000e+01
8.750000e+01
8.750000e+01
8.750000e+01
8.750000e+01
8.750000e+01
8.750000e+01
8.750000e+01
8.750000e+01
8.750000e+01
8.750000e+01
8.750000e+01
8.750000e+01
9.375000e+01
9.375000e+01
9.375000e+01
9.375000e+01
9.375000e+01
9.375000e+01
9.375000e+01
9.375000e+01
9.375000e+01
9.375000e+01
9.375000e+01
9.375000e+01
9.375000e+01
9.375000e+01
9.375000e+01
9.375000e+01
9.375000e+01
9.375000e+01
9.375000e+01
9.375000e+01
9.375000e+01
9.375000e+01
9.375000e+01
9.375000e+01
9.375000e+01
9.375000e+01
9.375000e+01
9.375000e+01
9.375000e+01
9.375000e+01
9.375000e+01
9.375000e+01
9.375000e+01
1.000000e+02
1.000000e+02
1.000000e+02
1.000000e+02
1.000000e+02
1.000000e+02
1.000000e+02
1.000000e+02
1.000000e+02
1.000000e+02
1.000000e+02
1.000000e+02
1.000000e+02
1.000000e+02
1.000000e+02
1.000000e+02
1.000000e+02
1.000000e+02
1.000000e+02
1.000000e+02
1.000000e+02
1.000000e+02
1.000000e+02
1.000000e+02
1.000000e+02
1.000000e+02
1.000000e+02
1.000000e+02
1.000000e+02
1.000000e+02
1.000000e+02
1.000000e+02
1.000000e+02
0.000000e+00
-3.979097e-02
-7.219542e-02
-1.022136e-01
-1.310225e-01
-1.588420e-01
-1.857277e-01
-2.116774e-01
-2.366746e-01
-2.607013e-01
-2.837423e-01
-3.057873e-01
-3.268309e-01
-3.468726e-01
-3.659172e-01
-3.839746e-01
-4.010611e-01
-4.172001e-01
-4.324240e-01
-4.467768e-01
-4.603168e-01
-4.731210e-01
-4.852916e-01
-4.969638e-01
-5.083190e-01
-5.196035e-01
-5.311596e-01
-5.434752e-01
-5.572663e-01
-5.735864e-01
-5.938020e-01
-6.178936e-01
-6.325963e-01
0.000000e+00
-2.667878e-02
-5.550806e-02
-8.269027e-02
-1.085259e-01
-1.332610e-01
-1.570261e-01
-1.798786e-01
-2.018413e-01
-2.229214e-01
-2.431203e-01
-2.624383e-01
-2.808760e-01
-2.984365e-01
-3.151257e-01
-3.309528e-01
-3.459313e-01
-3.600797e-01
-3.734226e-01
-3.859916e-01
-3.978276e-01
-4.089816e-01
-4.195172e-01
-4.295121e-01
-4.390593e-01
-4.482655e-01
-4.572437e-01
-4.660867e-01
-4.747939e-01
-4.830819e-01
-4.899881e-01
-4.940258e-01
-4.996469e-01
0.000000e+00
-2.116167e-02
-4.356639e-02
-6.637795e-02
-8.854373e-02
-1.098926e-01
-1.304111e-01
-1.501185e-01
-1.690322e-01
-1.871643e-01
-2.045223e-01
-2.211118e-01
-2.369372e-01
-2.520033e-01
-2.663157e-01
-2.798813e-01
-2.927089e-01
-3.048096e-01
-3.161970e-01
-3.268872e-01
-3.368991e-01
-3.462529e-01
-3.549684e-01
-3.630612e-01
-3.705344e-01
-3.773642e-01
-3.834723e-01
-3.886789e-01
-3.926320e-01
-3.947607e-01
-3.945740e-01
-3.933787e-01
-3.999427e-01
0.000000e+00
-1.678991e-02
-3.450709e-02
-5.270928e-02
-7.086881e-02
-8.858848e-02
-1.057165e-01
-1.221985e-01
-1.380198e-01
-1.531796e-01
-1.676819e-01
-1.815316e-01
-1.947332e-01
-2.072911e-01
-2.192087e-01
-2.304897e-01
-2.411369e-01
-2.511532e-01
-2.605406e-01
-2.692997e-01
-2.774282e-01
-2.849186e-01
-2.917544e-01
-2.979038e-01
-3.033099e-01
-3.078773e-01
-3.114548e-01
-3.138240e-01
-3.147286e-01
-3.140571e-01
-3.124261e-01
-3.123287e-01
-3.185826e-01
0.000000e+00
-1.303131e-02
-2.668369e-02
-4.077218e-02
-5.497512e-02
-6.900387e-02
-8.266485e-02
-9.586006e-02
-1.085450e-01
-1.207024e-01
-1.323279e-01
-1.434220e-01
-1.539869e-01
-1.640244e-01
-1.735350e-01
-1.825180e-01
-1.909705e-01
-1.988874e-01
-2.062606e-01
-2.130777e-01
-2.193204e-01
-2.249621e-01
-2.299640e-01
-2.342713e-01
-2.378079e-01
-2.404736e-01
-2.421511e-01
-2.427395e-01
-2.422568e-01
-2.410756e-01
-2.403092e-01
-2.420789e-01
-2.474137e-01
0.000000e+00
-9.577257e-03
-1.956484e-02
-2.987329e-02
-4.032450e-02
-5.072336e-02
-6.091501e-02
-7.079877e-02
-8.031938e-02
-8.944998e-02
-9.817923e-02
-1.065031e-01
-1.144202e-01
-1.219292e-01
-1.290271e-01
-1.357090e-01
-1.419668e-01
-1.477892e-01
-1.531604e-01
-1.580595e-01
-1.624587e-01
-1.663224e-01
-1.696055e-01
-1.722530e-01
-1.742019e-01
-1.753911e-01
-1.757856e-01
-1.754315e-01
-1.745589e-01
-1.737286e-01
-1.739308e-01
-1.761868e-01
-1.806010e-01
0.000000e+00
-6.302986e-03
-1.285529e-02
-1.961544e-02
-2.648705e-02
-3.335446e-02
-4.011408e-02
-4.669045e-02
-5.303630e-02
-5.912557e-02
-6.494509e-02
-7.048824e-02
-7.575077e-02
-8.072830e-02
-8.541483e-02
-8.980177e-02
-9.387731e-02
-9.762576e-02
-1.010270e-01
-1.040561e-01
-1.066824e-01
-1.088705e-01
-1.105805e-01
-1.117721e-01
-1.124124e-01
-1.124918e-01
-1.120541e-01
-1.112440e-01
-1.103698e-01
-1.099461e-01
-1.106072e-01
-1.128037e-01
-1.163669e-01
0.000000e+00
-3.130691e-03
-6.379741e-03
-9.730450e-03
-1.314050e-02
-1.655602e-02
-1.992585e-02
-2.320997e-02
-2.638132e-02
-2.942338e-02
-3.232637e-02
-3.508381e-02
-3.769005e-02
-4.013864e-02
-4.242123e-02
-4.452685e-02
-4.644138e-02
-4.814715e-02
-4.962272e-02
-5.084294e-02
-5.177963e-02
-5.240312e-02
-5.268555e-02
-5.260700e-02
-5.216590e-02
-5.139593e-02
-5.039025e-02
-4.933061e-02
-4.850801e-02
-4.830195e-02
-4.907758e-02
-5.099370e-02
-5.382102e-02
0.000000e+00
-5.051056e-06
-1.095213e-05
-1.737632e-05
-2.398569e-05
-3.032465e-05
-3.570653e-05
-3.908789e-05
-3.892148e-05
-3.297933e-05
-1.813913e-05
9.869815e-06
5.676060e-05
1.300164e-04
2.392359e-04
3.964667e-04
6.164752e-04
9.168687e-04
1.317939e-03
1.842024e-03
2.512092e-03
3.349105e-03
4.367582e-03
5.568630e-03
6.929748e-03
8.391312e-03
9.841423e-03
1.110481e-02
1.194817e-02
1.211920e-02
1.143055e-02
9.870997e-03
7.686753e-03
0.000000e+00
3.121178e-03
6.359070e-03
9.697588e-03
1.309503e-02
1.649837e-02
1.985772e-02
2.313499e-02
2.630603e-02
2.935847e-02
3.228838e-02
3.509731e-02
3.779034e-02
4.037511e-02
4.286138e-02
4.526098e-02
4.758775e-02
4.985749e-02
5.208752e-02
5.429566e-02
5.649839e-02
5.870786e-02
6.092721e-02
6.314411e-02
6.532255e-02
6.739376e-02
6.924933e-02
7.074177e-02
7.170071e-02
7.197219e-02
7.148051e-02
7.029579e-02
6.867465e-02
0.000000e+00
6.295214e-03
1.283828e-02
1.958821e-02
2.644909e-02
3.330588e-02
4.005600e-02
4.662550e-02
5.296944e-02
5.906510e-02
6.490401e-02
7.048606e-02
7.581577e-02
8.090030e-02
8.574859e-02
9.037095e-02
9.477897e-02
9.898523e-02
1.030028e-01
1.068440e-01
1.105189e-01
1.140322e-01
1.173790e-01
1.205401e-01
1.234757e-01
1.261208e-01
1.283832e-01
1.301503e-01
1.313068e-01
1.317693e-01
1.315315e-01
1.307117e-01
1.295803e-01
0.000000e+00
9.572299e-03
1.955379e-02
2.985531e-02
4.029896e-02
5.069003e-02
6.087422e-02
7.075182e-02
8.026899e-02
8.940096e-02
9.813941e-02
1.064845e-01
1.144405e-01
1.220137e-01
1.292111e-01
1.360404e-01
1.425096e-01
1.486270e-01
1.544004e-01
1.598364e-01
1.649389e-01
1.697066e-01
1.741304e-01
1.781894e-01
1.818476e-01
1.850520e-01
1.877336e-01
1.898147e-01
1.912260e-01
1.919332e-01
1.919730e-01
1.914921e-01
1.907770e-01
0.000000e+00
1.303008e-02
2.668061e-02
4.076666e-02
5.496660e-02
6.899185e-02
8.264903e-02
9.584041e-02
1.085219e-01
1.206769e-01
1.323019e-01
1.433990e-01
1.539721e-01
1.640256e-01
1.735638e-01
1.825905e-01
1.911092e-01
1.991227e-01
2.066329e-01
2.136401e-01
2.201422e-01
2.261333e-01
2.316019e-01
2.365289e-01
2.408868e-01
2.446390e-01
2.477425e-01
2.501545e-01
2.518448e-01
2.528160e-01
2.531310e-01
2.529505e-01
2.525738e-01
0.000000e+00
1.679303e-02
3.451343e-02
5.271871e-02
7.088107e-02
8.860321e-02
1.057332e-01
1.222164e-01
1.380374e-01
1.531948e-01
1.676915e-01
1.815306e-01
1.947149e-01
2.072457e-01
2.191233e-01
2.303468e-01
2.409140e-01
2.508215e-01
2.600644e-01
2.686361e-01
2.765279e-01
2.837290e-01
2.902255e-01
2.960011e-01
3.010374e-01
3.053155e-01
3.088194e-01
3.115412e-01
3.134892e-01
3.146997e-01
3.152566e-01
3.153230e-01
3.151980e-01
0.000000e+00
2.116929e-02
4.358264e-02
6.640341e-02
8.857887e-02
1.099379e-01
1.304665e-01
1.501834e-01
1.691049e-01
1.872409e-01
2.045963e-01
2.211725e-01
2.369685e-01
2.519811e-01
2.662057e-01
2.796359e-01
2.922634e-01
3.040778e-01
3.150667e-01
3.252155e-01
3.345075e-01
3.429246e-01
3.504484e-01
3.570623e-01
3.627536e-01
3.675180e-01
3.713641e-01
3.743190e-01
3.764338e-01
3.777883e-01
3.784972e-01
3.787281e-01
3.787557e-01
0.000000e+00
2.669020e-02
5.553303e-02
8.273044e-02
1.085832e-01
1.333374e-01
1.571234e-01
1.799976e-01
2.019815e-01
2.230801e-01
2.432910e-01
2.626086e-01
2.810257e-01
2.985339e-01
3.151232e-01
3.307817e-01
3.454953e-01
3.592466e-01
3.720149e-01
3.837762e-01
3.945033e-01
4.041674e-01
4.127399e-01
4.201962e-01
4.265208e-01
4.317142e-01
4.358008e-01
4.388382e-01
4.409248e-01
4.422033e-01
4.428564e-01
4.430933e-01
4.431513e-01
0.000000e+00
3.980348e-02
7.222462e-02
1.022636e-01
1.310974e-01
1.589458e-01
1.858647e-01
2.118515e-01
2.368892e-01
2.609575e-01
2.840380e-01
3.061146e-01
3.271732e-01
3.472003e-01
3.661819e-01
3.841021e-01
4.009420e-01
4.166780e-01
4.312814e-01
4.447176e-01
4.569461e-01
4.679220e-01
4.775981e-01
4.859301e-01
4.928835e-01
4.984444e-01
5.026325e-01
5.055177e-01
5.072373e-01
5.080122e-01
5.081530e-01
5.080364e-01
5.079707e-01
0.000000e+00
-2.459006e-02
-4.291496e-02
-6.291184e-02
-8.517955e-02
-1.103332e-01
-1.385475e-01
-1.698715e-01
-2.042741e-01
-2.416814e-01
-2.819944e-01
-3.250990e-01
-3.708722e-01
-4.191858e-01
-4.699093e-01
-5.229111e-01
-5.780603e-01
-6.352285e-01
-6.942915e-01
-7.551323e-01
-8.176451e-01
-8.817408e-01
-9.473556e-01
-1.014464e+00
-1.083101e+00
-1.153391e+00
-1.225616e+00
-1.300319e+00
-1.378545e+00
-1.462357e+00
-1.556212e+00
-1.670621e+00
-1.828680e+00
0.000000e+00
-1.528179e-02
-3.446313e-02
-5.459490e-02
-7.717298e-02
-1.025999e-01
-1.310883e-01
-1.626865e-01
-1.973660e-01
-2.350529e-01
-2.756477e-01
-3.190353e-01
-3.650916e-01
-4.136876e-01
-4.646913e-01
-5.179698e-01
-5.733908e-01
-6.308238e-01
-6.901422e-01
-7.512262e-01
-8.139662e-01
-8.782685e-01
-9.440636e-01
-1.011319e+00
-1.080059e+00
-1.150399e+00
-1.222604e+00
-1.297202e+00
-1.375214e+00
-1.458671e+00
-1.551801e+00
-1.663662e+00
-1.811330e+00
0.000000e+00
-1.122535e-02
-2.778401e-02
-4.764115e-02
-7.025868e-02
-9.587293e-02
-1.245862e-01
-1.564253e-01
-1.913517e-01
-2.292883e-01
-2.701338e-01
-3.137721e-01
-3.600787e-01
-4.089240e-01
-4.601756e-01
-5.137001e-01
-5.693645e-01
-6.270376e-01
-6.865919e-01
-7.479067e-01
-8.108713e-01
-8.753915e-01
-9.413974e-01
-1.008857e+00
-1.077799e+00
-1.148344e+00
-1.220769e+00
-1.295615e+00
-1.373892e+00
-1.457427e+00
-1.549345e+00
-1.653338e+00
-1.768696e+00
0.000000e+00
-8.988785e-03
-2.352745e-02
-4.232571e-02
-6.465257e-02
-9.025886e-02
-1.190950e-01
-1.511124e-01
-1.862421e-01
-2.243927e-01
-2.654563e-01
-3.093143e-01
-3.558408e-01
-4.049061e-01
-4.563780e-01
-5.101233e-01
-5.660094e-01
-6.239057e-01
-6.836855e-01
-7.452289e-01
-8.084268e-01
-8.731871e-01
-9.394435e-01
-1.007170e+00
-1.076399e+00
-1.147260e+00
-1.220026e+00
-1.295197e+00
-1.373597e+00
-1.456432e+00
-1.544854e+00
-1.638112e+00
-1.724926e+00
0.000000e+00
-7.605990e-03
-2.074381e-02
-3.855112e-02
-6.036902e-02
-8.580743e-02
-1.146544e-01
-1.467758e-01
-1.820557e-01
-2.203785e-01
-2.616247e-01
-3.056698e-01
-3.523859e-01
-4.016429e-01
-4.533089e-01
-5.072519e-01
-5.633405e-01
-6.214455e-01
-6.814420e-01
-7.432121e-01
-8.066492e-01
-8.716640e-01
-9.381930e-01
-1.006211e+00
-1.075750e+00
-1.146923e+00
-1.219951e+00
-1.295195e+00
-1.373129e+00
-1.454136e+00
-1.537829e+00
-1.621136e+00
-1.696741e+00
0.000000e+00
-6.726105e-03
-1.891739e-02
-3.595361e-02
-5.728039e-02
-8.248050e-02
-1.112648e-01
-1.434273e-01
-1.788059e-01
-2.172579e-01
-2.586487e-01
-3.028465e-01
-3.497204e-01
-3.991396e-01
-4.509728e-01
-5.050894e-01
-5.613597e-01
-6.196565e-01
-6.798568e-01
-7.418446e-01
-8.055147e-01
-8.707785e-01
-9.375704e-01
-1.005858e+00
-1.075654e+00
-1.147026e+00
-1.220098e+00
-1.295030e+00
-1.371906e+00
-1.450470e+00
-1.529523e+00
-1.606240e+00
-1.676360e+00
0.000000e+00
-6.179267e-03
-1.776265e-02
-3.426517e-02
-5.521122e-02
-8.019418e-02
-1.088930e-01
-1.410595e-01
-1.764965e-01
-2.150379e-01
-2.565353e-01
-3.008498e-01
-3.478475e-01
-3.973970e-01
-4.493678e-01
-5.036307e-01
-5.600579e-01
-6.185238e-01
-6.789068e-01
-7.410918e-01
-8.049727e-01
-8.704571e-01
-9.374709e-01
-1.005964e+00
-1.075912e+00
-1.147316e+00
-1.220184e+00
-1.294473e+00
-1.369968e+00
-1.446056e+00
-1.521420e+00
-1.593887e+00
-1.660795e+00
0.000000e+00
-5.878771e-03
-1.712190e-02
-3.331370e-02
-5.402474e-02
-7.886242e-02
-1.074954e-01
-1.396548e-01
-1.751234e-01
-2.137201e-01
-2.552872e-01
-2.996813e-01
-3.467665e-01
-3.964113e-01
-4.484863e-01
-5.028637e-01
-5.594170e-01
-6.180221e-01
-6.785575e-01
-7.409070e-01
-8.049608e-01
-8.706182e-01
-9.377900e-01
-1.006399e+00
-1.076375e+00
-1.147648e+00
-1.220112e+00
-1.293570e+00
-1.367629e+00
-1.441561e+00
-1.514179e+00
-1.583848e+00
-1.648752e+00
0.000000e+00
-5.781953e-03
-1.691518e-02
-3.300532e-02
-5.363805e-02
-7.842656e-02
-1.070375e-01
-1.391965e-01
-1.746800e-01
-2.133025e-01
-2.549038e-01
-2.993392e-01
-3.464732e-01
-3.961750e-01
-4.483166e-01
-5.027714e-01
-5.594142e-01
-6.181210e-01
-6.787695e-01
-7.412403e-01
-8.054171e-01
-8.711876e-01
-9.384426e-01
-1.007073e+00
-1.076964e+00
-1.147976e+00
-1.219916e+00
-1.292487e+00
-1.365222e+00
-1.437402e+00
-1.508024e+00
-1.575841e+00
-1.639522e+00
0.000000e+00
-5.875971e-03
-1.711802e-02
-3.331035e-02
-5.402373e-02
-7.886597e-02
-1.075064e-01
-1.396773e-01
-1.751624e-01
-2.137824e-01
-2.553815e-01
-2.998185e-01
-3.469601e-01
-3.966776e-01
-4.488443e-01
-5.033349e-01
-5.600246e-01
-6.187890e-01
-6.795039e-01
-7.420451e-01
-8.062880e-01
-8.721065e-01
-9.393699e-01
-1.007938e+00
-1.077653e+00
-1.148321e+00
-1.219688e+00
-1.291408e+00
-1.362997e+00
-1.433803e+00
-1.502997e+00
-1.569616e+00
-1.632643e+00
0.000000e+00
-6.173893e-03
-1.775519e-02
-3.425872e-02
-5.520920e-02
-8.020085e-02
-1.089140e-01
-1.411023e-01
-1.765710e-01
-2.151570e-01
-2.567157e-01
-3.011125e-01
-3.482186e-01
-3.979076e-01
-4.500546e-01
-5.045352e-01
-5.612246e-01
-6.199974e-01
-6.807265e-01
-7.432826e-01
-8.075318e-01
-8.733337e-01
-9.405374e-01
-1.008975e+00
-1.078452e+00
-1.148735e+00
-1.219535e+00
-1.290483e+00
-1.361116e+00
-1.430863e+00
-1.499055e+00
-1.564947e+00
-1.627760e+00
0.000000e+00
-6.718636e-03
-1.890703e-02
-3.594460e-02
-5.727747e-02
-8.248963e-02
-1.112938e-01
-1.434867e-01
-1.789096e-01
-2.174240e-01
-2.589005e-01
-3.032135e-01
-3.502390e-01
-3.998537e-01
-4.519339e-01
-5.063558e-01
-5.629943e-01
-6.217226e-01
-6.824107e-01
-7.449236e-01
-8.091191e-01
-8.748439e-01
-9.419290e-01
-1.010184e+00
-1.079387e+00
-1.149277e+00
-1.219544e+00
-1.289820e+00
-1.359672e+00
-1.428612e+00
-1.496112e+00
-1.561617e+00
-1.624558e+00
0.000000e+00
-7.597191e-03
-2.073161e-02
-3.854050e-02
-6.036565e-02
-8.581849e-02
-1.146894e-01
-1.468475e-01
-1.821808e-01
-2.205791e-01
-2.619290e-01
-3.061135e-01
-3.530131e-01
-4.025067e-01
-4.544719e-01
-5.087848e-01
-5.653198e-01
-6.239487e-01
-6.845385e-01
-7.469497e-01
-8.110327e-01
-8.766239e-01
-9.435405e-01
-1.011574e+00
-1.080485e+00
-1.149995e+00
-1.219782e+00
-1.289485e+00
-1.358706e+00
-1.427032e+00
-1.494057e+00
-1.559405e+00
-1.622727e+00
0.000000e+00
-8.979742e-03
-2.351492e-02
-4.231492e-02
-6.464968e-02
-9.027185e-02
-1.191345e-01
-1.511924e-01
-1.863813e-01
-2.246153e-01
-2.657937e-01
-3.098056e-01
-3.565348e-01
-4.058614e-01
-4.576633e-01
-5.118165e-01
-5.681949e-01
-6.266685e-01
-6.871024e-01
-7.493532e-01
-8.132662e-01
-8.786704e-01
-9.453734e-01
-1.013156e+00
-1.081766e+00
-1.150915e+00
-1.220279e+00
-1.289503e+00
-1.358220e+00
-1.426074e+00
-1.492766e+00
-1.558085e+00
-1.621928e+00
0.000000e+00
-1.121747e-02
-2.777303e-02
-4.763204e-02
-7.025782e-02
-9.588873e-02
-1.246298e-01
-1.565113e-01
-1.914996e-01
-2.295232e-01
-2.704879e-01
-3.142861e-01
-3.608025e-01
-4.099177e-01
-4.615095e-01
-5.154534e-01
-5.716225e-01
-6.298857e-01
-6.901063e-01
-7.521386e-01
-8.158245e-01
-8.809886e-01
-9.474335e-01
-1.014934e+00
-1.083233e+00
-1.152038e+00
-1.221026e+00
-1.289851e+00
-1.358165e+00
-1.425655e+00
-1.492096e+00
-1.557421e+00
-1.621789e+00
0.000000e+00
-1.527672e-02
-3.445566e-02
-5.458954e-02
-7.717630e-02
-1.026205e-01
-1.311374e-01
-1.627789e-01
-1.975209e-01
-2.352954e-01
-2.760095e-01
-3.195561e-01
-3.658203e-01
-4.146822e-01
-4.660193e-01
-5.197066e-01
-5.756162e-01
-6.336159e-01
-6.935677e-01
-7.553243e-01
-8.187258e-01
-8.835949e-01
-9.497323e-01
-1.016912e+00
-1.084876e+00
-1.153335e+00
-1.221971e+00
-1.290447e+00
-1.358431e+00
-1.425635e+00
-1.491878e+00
-1.557182e+00
-1.621907e+00
0.000000e+00
-2.458934e-02
-4.291247e-02
-6.291231e-02
-8.518960e-02
-1.103614e-01
-1.386052e-01
-1.699733e-01
-2.044388e-01
-2.419334e-01
-2.823642e-01
-3.256245e-01
-3.715993e-01
-4.201688e-01
-4.712098e-01
-5.245968e-01
-5.802006e-01
-6.378881e-01
-6.975196e-01
-7.589463e-01
-8.220067e-01
-8.865227e-01
-9.522948e-01