TITLE = "Solution"
VARIABLES = x, y, u, v, psiu, psiv, t, stress
ZONE T="structure" N=561 E=512 F=FEBLOCK ET=QUADRILATERAL VARLOCATION=([7,8]=cellcentered)
0.000000e+00
6.250000e+00
1.250000e+01
1.875000e+01
2.500000e+01
3.125000e+01
3.750000e+01
4.375000e+01
5.000000e+01
5.625000e+01
6.250000e+01
6.875000e+01
7.500000e+01
8.125000e+01
8.750000e+01
9.375000e+01
1.000000e+02
1.062500e+02
1.125000e+02
1.187500e+02
1.250000e+02
1.312500e+02
1.375000e+02
1.437500e+02
1.500000e+02
1.562500e+02
1.625000e+02
1.687500e+02
1.750000e+02
1.812500e+02
1.875000e+02
1.937500e+02
2.000000e+02
0.000000e+00
6.250000e+00
1.250000e+01
1.875000e+01
2.500000e+01
3.125000e+01
3.750000e+01
4.375000e+01
5.000000e+01
5.625000e+01
6.250000e+01
6.875000e+01
7.500000e+01
8.125000e+01
8.750000e+01
9.375000e+01
1.000000e+02
1.062500e+02
1.125000e+02
1.187500e+02
1.250000e+02
1.312500e+02
1.375000e+02
1.437500e+02
1.500000e+02
1.562500e+02
1.625000e+02
1.687500e+02
1.750000e+02
1.812500e+02
1.875000e+02
1.937500e+02
2.000000e+02
0.000000e+00
6.250000e+00
1.250000e+01
1.875000e+01
2.500000e+01
3.125000e+01
3.750000e+01
4.375000e+01
5.000000e+01
5.625000e+01
6.250000e+01
6.875000e+01
7.500000e+01
8.125000e+01
8.750000e+01
9.375000e+01
1.000000e+02
1.062500e+02
1.125000e+02
1.187500e+02
1.250000e+02
1.312500e+02
1.375000e+02
1.437500e+02
1.500000e+02
1.562500e+02
1.625000e+02
1.687500e+02
1.750000e+02
1.812500e+02
1.875000e+02
1.937500e+02
2.000000e+02
0.000000e+00
6.250000e+00
1.250000e+01
1.875000e+01
2.500000e+01
3.125000e+01
3.750000e+01
4.375000e+01
5.000000e+01
5.625000e+01
6.250000e+01
6.875000e+01
7.500000e+01
8.125000e+01
8.750000e+01
9.375000e+01
1.000000e+02
1.062500e+02
1.125000e+02
1.187500e+02
1.250000e+02
1.312500e+02
1.375000e+02
1.437500e+02
1.500000e+02
1.562500e+02
1.625000e+02
1.687500e+02
1.750000e+02
1.812500e+02
1.875000e+02
1.937500e+02
2.000000e+02
0.000000e+00
6.250000e+00
1.250000e+01
1.875000e+01
2.500000e+01
3.125000e+01
3.750000e+01
4.375000e+01
5.000000e+01
5.625000e+01
6.250000e+01
6.875000e+01
7.500000e+01
8.125000e+01
8.750000e+01
9.375000e+01
1.000000e+02
1.062500e+02
1.125000e+02
1.187500e+02
1.250000e+02
1.312500e+02
1.375000e+02
1.437500e+02
1.500000e+02
1.562500e+02
1.625000e+02
1.687500e+02
1.750000e+02
1.812500e+02
1.875000e+02
1.937500e+02
2.000000e+02
0.000000e+00
6.250000e+00
1.250000e+01
1.875000e+01
2.500000e+01
3.125000e+01
3.750000e+01
4.375000e+01
5.000000e+01
5.625000e+01
6.250000e+01
6.875000e+01
7.500000e+01
8.125000e+01
8.750000e+01
9.375000e+01
1.000000e+02
1.062500e+02
1.125000e+02
1.187500e+02
1.250000e+02
1.312500e+02
1.375000e+02
1.437500e+02
1.500000e+02
1.562500e+02
1.625000e+02
1.687500e+02
1.750000e+02
1.812500e+02
1.875000e+02
1.937500e+02
2.000000e+02
0.000000e+00
6.250000e+00
1.250000e+01
1.875000e+01
2.500000e+01
3.125000e+01
3.750000e+01
4.375000e+01
5.000000e+01
5.625000e+01
6.250000e+01
6.875000e+01
7.500000e+01
8.125000e+01
8.750000e+01
9.375000e+01
1.000000e+02
1.062500e+02
1.125000e+02
1.187500e+02
1.250000e+02
1.312500e+02
1.375000e+02
1.437500e+02
1.500000e+02
1.562500e+02
1.625000e+02
1.687500e+02
1.750000e+02
1.812500e+02
1.875000e+02
1.937500e+02
2.000000e+02
0.000000e+00
6.250000e+00
1.250000e+01
1.875000e+01
2.500000e+01
3.125000e+01
3.750000e+01
4.375000e+01
5.000000e+01
5.625000e+01
6.250000e+01
6.875000e+01
7.500000e+01
8.125000e+01
8.750000e+01
9.375000e+01
1.000000e+02
1.062500e+02
1.125000e+02
1.187500e+02
1.250000e+02
1.312500e+02
1.375000e+02
1.437500e+02
1.500000e+02
1.562500e+02
1.625000e+02
1.687500e+02
1.750000e+02
1.812500e+02
1.875000e+02
1.937500e+02
2.000000e+02
0.000000e+00
6.250000e+00
1.250000e+01
1.875000e+01
2.500000e+01
3.125000e+01
3.750000e+01
4.375000e+01
5.000000e+01
5.625000e+01
6.250000e+01
6.875000e+01
7.500000e+01
8.125000e+01
8.750000e+01
9.375000e+01
1.000000e+02
1.062500e+02
1.125000e+02
1.187500e+02
1.250000e+02
1.312500e+02
1.375000e+02
1.437500e+02
1.500000e+02
1.562500e+02
1.625000e+02
1.687500e+02
1.750000e+02
1.812500e+02
1.875000e+02
1.937500e+02
2.000000e+02
0.000000e+00
6.250000e+00
1.250000e+01
1.875000e+01
2.500000e+01
3.125000e+01
3.750000e+01
4.375000e+01
5.000000e+01
5.625000e+01
6.250000e+01
6.875000e+01
7.500000e+01
8.125000e+01
8.750000e+01
9.375000e+01
1.000000e+02
1.062500e+02
1.125000e+02
1.187500e+02
1.250000e+02
1.312500e+02
1.375000e+02
1.437500e+02
1.500000e+02
1.562500e+02
1.625000e+02
1.687500e+02
1.750000e+02
1.812500e+02
1.875000e+02
1.937500e+02
2.000000e+02
0.000000e+00
6.250000e+00
1.250000e+01
1.875000e+01
2.500000e+01
3.125000e+01
3.750000e+01
4.375000e+01
5.000000e+01
5.625000e+01
6.250000e+01
6.875000e+01
7.500000e+01
8.125000e+01
8.750000e+01
9.375000e+01
1.000000e+02
1.062500e+02
1.125000e+02
1.187500e+02
1.250000e+02
1.312500e+02
1.375000e+02
1.437500e+02
1.500000e+02
1.562500e+02
1.625000e+02
1.687500e+02
1.750000e+02
1.812500e+02
1.875000e+02
1.937500e+02
2.000000e+02
0.000000e+00
6.250000e+00
1.250000e+01
1.875000e+01
2.500000e+01
3.125000e+01
3.750000e+01
4.375000e+01
5.000000e+01
5.625000e+01
6.250000e+01
6.875000e+01
7.500000e+01
8.125000e+01
8.750000e+01
9.375000e+01
1.000000e+02
1.062500e+02
1.125000e+02
1.187500e+02
1.250000e+02
1.312500e+02
1.375000e+02
1.437500e+02
1.500000e+02
1.562500e+02
1.625000e+02
1.687500e+02
1.750000e+02
1.812500e+02
1.875000e+02
1.937500e+02
2.000000e+02
0.000000e+00
6.250000e+00
1.250000e+01
1.875000e+01
2.500000e+01
3.125000e+01
3.750000e+01
4.375000e+01
5.000000e+01
5.625000e+01
6.250000e+01
6.875000e+01
7.500000e+01
8.125000e+01
8.750000e+01
9.375000e+01
1.000000e+02
1.062500e+02
1.125000e+02
1.187500e+02
1.250000e+02
1.312500e+02
1.375000e+02
1.437500e+02
1.500000e+02
1.562500e+02
1.625000e+02
1.687500e+02
1.750000e+02
1.812500e+02
1.875000e+02
1.937500e+02
2.000000e+02
0.000000e+00
6.250000e+00
1.250000e+01
1.875000e+01
2.500000e+01
3.125000e+01
3.750000e+01
4.375000e+01
5.000000e+01
5.625000e+01
6.250000e+01
6.875000e+01
7.500000e+01
8.125000e+01
8.750000e+01
9.375000e+01
1.000000e+02
1.062500e+02
1.125000e+02
1.187500e+02
1.250000e+02
1.312500e+02
1.375000e+02
1.437500e+02
1.500000e+02
1.562500e+02
1.625000e+02
1.687500e+02
1.750000e+02
1.812500e+02
1.875000e+02
1.937500e+02
2.000000e+02
0.000000e+00
6.250000e+00
1.250000e+01
1.875000e+01
2.500000e+01
3.125000e+01
3.750000e+01
4.375000e+01
5.000000e+01
5.625000e+01
6.250000e+01
6.875000e+01
7.500000e+01
8.125000e+01
8.750000e+01
9.375000e+01
1.000000e+02
1.062500e+02
1.125000e+02
1.187500e+02
1.250000e+02
1.312500e+02
1.375000e+02
1.437500e+02
1.500000e+02
1.562500e+02
1.625000e+02
1.687500e+02
1.750000e+02
1.812500e+02
1.875000e+02
1.937500e+02
2.000000e+02
0.000000e+00
6.250000e+00
1.250000e+01
1.875000e+01
2.500000e+01
3.125000e+01
3.750000e+01
4.375000e+01
5.000000e+01
5.625000e+01
6.250000e+01
6.875000e+01
7.500000e+01
8.125000e+01
8.750000e+01
9.375000e+01
1.000000e+02
1.062500e+02
1.125000e+02
1.187500e+02
1.250000e+02
1.312500e+02
1.375000e+02
1.437500e+02
1.500000e+02
1.562500e+02
1.625000e+02
1.687500e+02
1.750000e+02
1.812500e+02
1.875000e+02
1.937500e+02
2.000000e+02
0.000000e+00
6.250000e+00
1.250000e+01
1.875000e+01
2.500000e+01
3.125000e+01
3.750000e+01
4.375000e+01
5.000000e+01
5.625000e+01
6.250000e+01
6.875000e+01
7.500000e+01
8.125000e+01
8.750000e+01
9.375000e+01
1.000000e+02
1.062500e+02
1.125000e+02
1.187500e+02
1.250000e+02
1.312500e+02
1.375000e+02
1.437500e+02
1.500000e+02
1.562500e+02
1.625000e+02
1.687500e+02
1.750000e+02
1.812500e+02
1.875000e+02
1.937500e+02
2.000000e+02
0.000000e+00
0.000000e+00
0.000000e+00
0.000000e+00
0.000000e+00
0.000000e+00
0.000000e+00
0.000000e+00
0.000000e+00
0.000000e+00
0.000000e+00
0.000000e+00
0.000000e+00
0.000000e+00
0.000000e+00
0.000000e+00
0.000000e+00
0.000000e+00
0.000000e+00
0.000000e+00
0.000000e+00
0.000000e+00
0.000000e+00
0.000000e+00
0.000000e+00
0.000000e+00
0.000000e+00
0.000000e+00
0.000000e+00
0.000000e+00
0.000000e+00
0.000000e+00
0.000000e+00
6.250000e+00
6.250000e+00
6.250000e+00
6.250000e+00
6.250000e+00
6.250000e+00
6.250000e+00
6.250000e+00
6.250000e+00
6.250000e+00
6.250000e+00
6.250000e+00
6.250000e+00
6.250000e+00
6.250000e+00
6.250000e+00
6.250000e+00
6.250000e+00
6.250000e+00
6.250000e+00
6.250000e+00
6.250000e+00
6.250000e+00
6.250000e+00
6.250000e+00
6.250000e+00
6.250000e+00
6.250000e+00
6.250000e+00
6.250000e+00
6.250000e+00
6.250000e+00
6.250000e+00
1.250000e+01
1.250000e+01
1.250000e+01
1.250000e+01
1.250000e+01
1.250000e+01
1.250000e+01
1.250000e+01
1.250000e+01
1.250000e+01
1.250000e+01
1.250000e+01
1.250000e+01
1.250000e+01
1.250000e+01
1.250000e+01
1.250000e+01
1.250000e+01
1.250000e+01
1.250000e+01
1.250000e+01
1.250000e+01
1.250000e+01
1.250000e+01
1.250000e+01
1.250000e+01
1.250000e+01
1.250000e+01
1.250000e+01
1.250000e+01
1.250000e+01
1.250000e+01
1.250000e+01
1.875000e+01
1.875000e+01
1.875000e+01
1.875000e+01
1.875000e+01
1.875000e+01
1.875000e+01
1.875000e+01
1.875000e+01
1.875000e+01
1.875000e+01
1.875000e+01
1.875000e+01
1.875000e+01
1.875000e+01
1.875000e+01
1.875000e+01
1.875000e+01
1.875000e+01
1.875000e+01
1.875000e+01
1.875000e+01
1.875000e+01
1.875000e+01
1.875000e+01
1.875000e+01
1.875000e+01
1.875000e+01
1.875000e+01
1.875000e+01
1.875000e+01
1.875000e+01
1.875000e+01
2.500000e+01
2.500000e+01
2.500000e+01
2.500000e+01
2.500000e+01
2.500000e+01
2.500000e+01
2.500000e+01
2.500000e+01
2.500000e+01
2.500000e+01
2.500000e+01
2.500000e+01
2.500000e+01
2.500000e+01
2.500000e+01
2.500000e+01
2.500000e+01
2.500000e+01
2.500000e+01
2.500000e+01
2.500000e+01
2.500000e+01
2.500000e+01
2.500000e+01
2.500000e+01
2.500000e+01
2.500000e+01
2.500000e+01
2.500000e+01
2.500000e+01
2.500000e+01
2.500000e+01
3.125000e+01
3.125000e+01
3.125000e+01
3.125000e+01
3.125000e+01
3.125000e+01
3.125000e+01
3.125000e+01
3.125000e+01
3.125000e+01
3.125000e+01
3.125000e+01
3.125000e+01
3.125000e+01
3.125000e+01
3.125000e+01
3.125000e+01
3.125000e+01
3.125000e+01
3.125000e+01
3.125000e+01
3.125000e+01
3.125000e+01
3.125000e+01
3.125000e+01
3.125000e+01
3.125000e+01
3.125000e+01
3.125000e+01
3.125000e+01
3.125000e+01
3.125000e+01
3.125000e+01
3.750000e+01
3.750000e+01
3.750000e+01
3.750000e+01
3.750000e+01
3.750000e+01
3.750000e+01
3.750000e+01
3.750000e+01
3.750000e+01
3.750000e+01
3.750000e+01
3.750000e+01
3.750000e+01
3.750000e+01
3.750000e+01
3.750000e+01
3.750000e+01
3.750000e+01
3.750000e+01
3.750000e+01
3.750000e+01
3.750000e+01
3.750000e+01
3.750000e+01
3.750000e+01
3.750000e+01
3.750000e+01
3.750000e+01
3.750000e+01
3.750000e+01
3.750000e+01
3.750000e+01
4.375000e+01
4.375000e+01
4.375000e+01
4.375000e+01
4.375000e+01
4.375000e+01
4.375000e+01
4.375000e+01
4.375000e+01
4.375000e+01
4.375000e+01
4.375000e+01
4.375000e+01
4.375000e+01
4.375000e+01
4.375000e+01
4.375000e+01
4.375000e+01
4.375000e+01
4.375000e+01
4.375000e+01
4.375000e+01
4.375000e+01
4.375000e+01
4.375000e+01
4.375000e+01
4.375000e+01
4.375000e+01
4.375000e+01
4.375000e+01
4.375000e+01
4.375000e+01
4.375000e+01
5.000000e+01
5.000000e+01
5.000000e+01
5.000000e+01
5.000000e+01
5.000000e+01
5.000000e+01
5.000000e+01
5.000000e+01
5.000000e+01
5.000000e+01
5.000000e+01
5.000000e+01
5.000000e+01
5.000000e+01
5.000000e+01
5.000000e+01
5.000000e+01
5.000000e+01
5.000000e+01
5.000000e+01
5.000000e+01
5.000000e+01
5.000000e+01
5.000000e+01
5.000000e+01
5.000000e+01
5.000000e+01
5.000000e+01
5.000000e+01
5.000000e+01
5.000000e+01
5.000000e+01
5.625000e+01
5.625000e+01
5.625000e+01
5.625000e+01
5.625000e+01
5.625000e+01
5.625000e+01
5.625000e+01
5.625000e+01
5.625000e+01
5.625000e+01
5.625000e+01
5.625000e+01
5.625000e+01
5.625000e+01
5.625000e+01
5.625000e+01
5.625000e+01
5.625000e+01
5.625000e+01
5.625000e+01
5.625000e+01
5.625000e+01
5.625000e+01
5.625000e+01
5.625000e+01
5.625000e+01
5.625000e+01
5.625000e+01
5.625000e+01
5.625000e+01
5.625000e+01
5.625000e+01
6.250000e+01
6.250000e+01
6.250000e+01
6.250000e+01
6.250000e+01
6.250000e+01
6.250000e+01
6.250000e+01
6.250000e+01
6.250000e+01
6.250000e+01
6.250000e+01
6.250000e+01
6.250000e+01
6.250000e+01
6.250000e+01
6.250000e+01
6.250000e+01
6.250000e+01
6.250000e+01
6.250000e+01
6.250000e+01
6.250000e+01
6.250000e+01
6.250000e+01
6.250000e+01
6.250000e+01
6.250000e+01
6.250000e+01
6.250000e+01
6.250000e+01
6.250000e+01
6.250000e+01
6.875000e+01
6.875000e+01
6.875000e+01
6.875000e+01
6.875000e+01
6.875000e+01
6.875000e+01
6.875000e+01
6.875000e+01
6.875000e+01
6.875000e+01
6.875000e+01
6.875000e+01
6.875000e+01
6.875000e+01
6.875000e+01
6.875000e+01
6.875000e+01
6.875000e+01
6.875000e+01
6.875000e+01
6.875000e+01
6.875000e+01
6.875000e+01
6.875000e+01
6.875000e+01
6.875000e+01
6.875000e+01
6.875000e+01
6.875000e+01
6.875000e+01
6.875000e+01
6.875000e+01
7.500000e+01
7.500000e+01
7.500000e+01
7.500000e+01
7.500000e+01
7.500000e+01
7.500000e+01
7.500000e+01
7.500000e+01
7.500000e+01
7.500000e+01
7.500000e+01
7.500000e+01
7.500000e+01
7.500000e+01
7.500000e+01
7.500000e+01
7.500000e+01
7.500000e+01
7.500000e+01
7.500000e+01
7.500000e+01
7.500000e+01
7.500000e+01
7.500000e+01
7.500000e+01
7.500000e+01
7.500000e+01
7.500000e+01
7.500000e+01
7.500000e+01
7.500000e+01
7.500000e+01
8.125000e+01
8.125000e+01
8.125000e+01
8.125000e+01
8.125000e+01
8.125000e+01
8.125000e+01
8.125000e+01
8.125000e+01
8.125000e+01
8.125000e+01
8.125000e+01
8.125000e+01
8.125000e+01
8.125000e+01
8.125000e+01
8.125000e+01
8.125000e+01
8.125000e+01
8.125000e+01
8.125000e+01
8.125000e+01
8.125000e+01
8.125000e+01
8.125000e+01
8.125000e+01
8.125000e+01
8.125000e+01
8.125000e+01
8.125000e+01
8.125000e+01
8.125000e+01
8.125000e+01
8.750000e+01
8.750000e+01
8.750000e+01
8.750000e+01
8.750000e+01
8.750000e+01
8.750000e+01
8.750000e+01
8.750000e+01
8.750000e+01
8.750000e+01
8.750000e+01
8.750000e+01
8.750000e+01
8.750000e+01
8.750000e+01
8.750000e+01
8.750000e+01
8.750000e+01
8.750000e+01
8.750000e+01
8.750000e+01
8.750000e+01
8.750000e+01
8.750000e+01
8.750000e+01
8.750000e+01
8.750000e+01
8.750000e+01
8.750000e+01
8.750000e+01
8.750000e+01
8.750000e+01
9.375000e+01
9.375000e+01
9.375000e+01
9.375000e+01
9.375000e+01
9.375000e+01
9.375000e+01
9.375000e+01
9.375000e+01
9.375000e+01
9.375000e+01
9.375000e+01
9.375000e+01
9.375000e+01
9.375000e+01
9.375000e+01
9.375000e+01
9.375000e+01
9.375000e+01
9.375000e+01
9.375000e+01
9.375000e+01
9.375000e+01
9.375000e+01
9.375000e+01
9.375000e+01
9.375000e+01
9.375000e+01
9.375000e+01
9.375000e+01
9.375000e+01
9.375000e+01
9.375000e+01
1.000000e+02
1.000000e+02
1.000000e+02
1.000000e+02
1.000000e+02
1.000000e+02
1.000000e+02
1.000000e+02
1.000000e+02
1.000000e+02
1.000000e+02
1.000000e+02
1.000000e+02
1.000000e+02
1.000000e+02
1.000000e+02
1.000000e+02
1.000000e+02
1.000000e+02
1.000000e+02
1.000000e+02
1.000000e+02
1.000000e+02
1.000000e+02
1.000000e+02
1.000000e+02
1.000000e+02
1.000000e+02
1.000000e+02
1.000000e+02
1.000000e+02
1.000000e+02
1.000000e+02
0.000000e+00
-3.804646e-01
-6.828367e-01
-9.787980e-01
-1.280917e+00
-1.573679e+00
-1.866477e+00
-2.160822e+00
-2.453323e+00
-2.744696e+00
-3.035763e+00
-3.325962e+00
-3.614973e+00
-3.902793e+00
-4.189220e+00
-4.473909e+00
-4.756478e+00
-5.036389e+00
-5.312813e+00
-5.584610e+00
-5.850468e+00
-6.109205e+00
-6.360130e+00
-6.603361e+00
-6.840060e+00
-7.072578e+00
-7.304571e+00
-7.541259e+00
-7.790302e+00
-8.062915e+00
-8.365708e+00
-8.682658e+00
-8.865332e+00
0.000000e+00
-2.383397e-01
-4.932015e-01
-7.500218e-01
-1.014003e+00
-1.270516e+00
-1.526787e+00
-1.784568e+00
-2.040771e+00
-2.295812e+00
-2.550488e+00
-2.804360e+00
-3.057125e+00
-3.308786e+00
-3.559185e+00
-3.808024e+00
-4.054962e+00
-4.299528e+00
-4.540977e+00
-4.778247e+00
-5.010047e+00
-5.235062e+00
-5.452222e+00
-5.660921e+00
-5.861127e+00
-6.053366e+00
-6.238577e+00
-6.417769e+00
-6.590861e+00
-6.751459e+00
-6.874547e+00
-6.937510e+00
-7.019490e+00
0.000000e+00
-1.742053e-01
-3.618127e-01
-5.705856e-01
-7.899667e-01
-1.007162e+00
-1.226076e+00
-1.446699e+00
-1.666631e+00
-1.885998e+00
-2.105107e+00
-2.323547e+00
-2.541044e+00
-2.757499e+00
-2.972683e+00
-3.186254e+00
-3.397799e+00
-3.606758e+00
-3.812329e+00
-4.013434e+00
-4.208763e+00
-4.396891e+00
-4.576431e+00
-4.746135e+00
-4.904906e+00
-5.051658e+00
-5.184992e+00
-5.302474e+00
-5.398990e+00
-5.463391e+00
-5.481665e+00
-5.476553e+00
-5.558936e+00
0.000000e+00
-1.333415e-01
-2.768049e-01
-4.381775e-01
-6.113521e-01
-7.880134e-01
-9.685679e-01
-1.151281e+00
-1.334446e+00
-1.517822e+00
-1.701150e+00
-1.883980e+00
-2.066016e+00
-2.247011e+00
-2.426628e+00
-2.604446e+00
-2.779948e+00
-2.952468e+00
-3.121139e+00
-3.284875e+00
-3.442376e+00
-3.592173e+00
-3.732686e+00
-3.862251e+00
-3.979075e+00
-4.081102e+00
-4.165742e+00
-4.229482e+00
-4.267575e+00
-4.275444e+00
-4.260910e+00
-4.263580e+00
-4.338871e+00
0.000000e+00
-1.076702e-01
-2.198397e-01
-3.424273e-01
-4.731310e-01
-6.103408e-01
-7.518704e-01
-8.959238e-01
-1.041439e+00
-1.187708e+00
-1.334142e+00
-1.480286e+00
-1.625773e+00
-1.770232e+00
-1.913253e+00
-2.054358e+00
-2.192962e+00
-2.328347e+00
-2.459633e+00
-2.585759e+00
-2.705469e+00
-2.817318e+00
-2.919682e+00
-3.010759e+00
-3.088556e+00
-3.150857e+00
-3.195224e+00
-3.219249e+00
-3.221663e+00
-3.206308e+00
-3.192422e+00
-3.215812e+00
-3.289813e+00
0.000000e+00
-8.140454e-02
-1.657169e-01
-2.548289e-01
-3.499587e-01
-4.501590e-01
-5.541758e-01
-6.607628e-01
-7.689777e-01
-8.780837e-01
-9.874892e-01
-1.096727e+00
-1.205393e+00
-1.313086e+00
-1.419374e+00
-1.523759e+00
-1.625649e+00
-1.724335e+00
-1.818970e+00
-1.908554e+00
-1.991922e+00
-2.067734e+00
-2.134486e+00
-2.190536e+00
-2.234159e+00
-2.263671e+00
-2.277728e+00
-2.276063e+00
-2.261188e+00
-2.241948e+00
-2.238196e+00
-2.271144e+00
-2.344347e+00
0.000000e+00
-5.444930e-02
-1.105627e-01
-1.694679e-01
-2.317894e-01
-2.974440e-01
-3.657841e-01
-4.360794e-01
-5.076602e-01
-5.799571e-01
-6.524987e-01
-7.248887e-01
-7.967670e-01
-8.677718e-01
-9.375081e-01
-1.005519e+00
-1.071264e+00
-1.134098e+00
-1.193259e+00
-1.247859e+00
-1.296878e+00
-1.339175e+00
-1.373518e+00
-1.398658e+00
-1.413456e+00
-1.417140e+00
-1.409766e+00
-1.393075e+00
-1.371914e+00
-1.356198e+00
-1.360743e+00
-1.397639e+00
-1.465260e+00
0.000000e+00
-2.729066e-02
-5.540413e-02
-8.478388e-02
-1.157347e-01
-1.482576e-01
-1.821204e-01
-2.169760e-01
-2.524738e-01
-2.882952e-01
-3.241595e-01
-3.598122e-01
-3.950054e-01
-4.294747e-01
-4.629185e-01
-4.949766e-01
-5.252129e-01
-5.531015e-01
-5.780187e-01
-5.992428e-01
-6.159666e-01
-6.273295e-01
-6.324810e-01
-6.306926e-01
-6.215424e-01
-6.052119e-01
-5.829475e-01
-5.577269e-01
-5.350640e-01
-5.234208e-01
-5.326147e-01
-5.683744e-01
-6.263654e-01
0.000000e+00
-1.557489e-04
-2.949610e-04
-4.096231e-04
-4.872932e-04
-5.118255e-04
-4.630743e-04
-3.156757e-04
-3.712799e-05
4.147754e-04
1.095284e-03
2.077073e-03
3.456062e-03
5.359079e-03
7.953605e-03
1.145924e-02
1.615950e-02
2.241110e-02
3.064641e-02
4.136364e-02
5.509850e-02
7.237034e-02
9.359445e-02
1.189495e-01
1.481857e-01
1.803587e-01
2.134854e-01
2.441701e-01
2.673834e-01
2.768398e-01
2.668217e-01
2.357113e-01
1.889908e-01
0.000000e+00
2.697880e-02
5.481136e-02
8.395779e-02
1.147477e-01
1.472137e-01
1.811623e-01
2.162955e-01
2.523256e-01
2.890155e-01
3.261907e-01
3.637359e-01
4.015854e-01
4.397147e-01
4.781367e-01
5.169028e-01
5.561076e-01
5.958947e-01
6.364545e-01
6.780088e-01
7.207714e-01
7.648834e-01
8.103181e-01
8.567560e-01
9.034242e-01
9.489063e-01
9.909455e-01
1.026326e+00
1.051007e+00
1.060811e+00
1.052983e+00
1.028387e+00
9.929694e-01
0.000000e+00
5.413638e-02
1.099616e-01
1.686221e-01
2.307665e-01
2.963402e-01
3.647303e-01
4.352499e-01
5.072859e-01
5.803417e-01
6.540395e-01
7.281043e-01
8.023317e-01
8.765604e-01
9.506534e-01
1.024487e+00
1.097948e+00
1.170932e+00
1.243345e+00
1.315080e+00
1.385983e+00
1.455788e+00
1.524045e+00
1.590022e+00
1.652606e+00
1.710196e+00
1.760622e+00
1.801183e+00
1.828933e+00
1.841391e+00
1.837761e+00
1.820345e+00
1.795373e+00
0.000000e+00
8.109103e-02
1.651051e-01
2.539565e-01
3.488855e-01
4.489666e-01
5.529721e-01
6.596911e-01
7.682268e-01
8.779008e-01
9.881962e-01
1.098739e+00
1.209242e+00
1.319447e+00
1.429098e+00
1.537916e+00
1.645583e+00
1.751734e+00
1.855949e+00
1.957741e+00
2.056524e+00
2.151586e+00
2.242055e+00
2.326867e+00
2.404734e+00
2.474098e+00
2.533120e+00
2.579763e+00
2.612095e+00
2.628892e+00
2.630569e+00
2.620225e+00
2.604357e+00
0.000000e+00
1.073625e-01
2.192303e-01
3.415482e-01
4.720278e-01
6.090733e-01
7.505125e-01
8.945716e-01
1.040221e+00
1.186791e+00
1.333744e+00
1.480684e+00
1.627314e+00
1.773344e+00
1.918449e+00
2.062242e+00
2.204236e+00
2.343814e+00
2.480206e+00
2.612470e+00
2.739494e+00
2.860031e+00
2.972749e+00
3.076298e+00
3.169327e+00
3.250481e+00
3.318397e+00
3.371774e+00
3.409601e+00
3.431599e+00
3.438918e+00
3.435027e+00
3.426629e+00
0.000000e+00
1.330713e-01
2.762609e-01
4.373869e-01
6.103402e-01
7.868073e-01
9.672022e-01
1.149795e+00
1.332892e+00
1.516273e+00
1.699701e+00
1.882750e+00
2.065147e+00
2.246659e+00
2.426955e+00
2.605596e+00
2.781996e+00
2.955334e+00
3.124472e+00
3.287929e+00
3.443927e+00
3.590539e+00
3.725891e+00
3.848326e+00
3.956480e+00
4.049279e+00
4.125914e+00
4.185870e+00
4.229047e+00
4.256019e+00
4.268475e+00
4.269972e+00
4.267158e+00
0.000000e+00
1.740514e-01
3.614954e-01
5.701128e-01
7.893419e-01
1.006381e+00
1.225139e+00
1.445599e+00
1.665351e+00
1.884525e+00
2.103419e+00
2.321613e+00
2.538810e+00
2.754866e+00
2.969488e+00
3.182233e+00
3.392495e+00
3.599326e+00
3.801251e+00
3.996190e+00
4.181571e+00
4.354634e+00
4.512829e+00
4.654104e+00
4.777024e+00
4.880749e+00
4.964997e+00
5.030047e+00
5.076795e+00
5.106831e+00
5.122582e+00
5.127708e+00
5.128294e+00
0.000000e+00
2.383535e-01
4.932116e-01
7.500233e-01
1.013987e+00
1.270463e+00
1.526689e+00
1.784401e+00
2.040492e+00
2.295362e+00
2.549789e+00
2.803295e+00
3.055522e+00
3.306389e+00
3.555619e+00
3.802753e+00
4.047161e+00
4.287779e+00
4.522801e+00
4.749543e+00
4.964608e+00
5.164354e+00
5.345467e+00
5.505378e+00
5.642404e+00
5.755729e+00
5.845389e+00
5.912325e+00
5.958482e+00
5.986858e+00
6.001398e+00
6.006683e+00
6.007972e+00
0.000000e+00
3.806239e-01
6.831555e-01
9.792886e-01
1.281571e+00
1.574482e+00
1.867441e+00
2.161951e+00
2.454599e+00
2.746096e+00
3.037243e+00
3.327444e+00
3.616322e+00
3.903788e+00
4.189512e+00
4.472962e+00
4.753383e+00
5.029458e+00
5.298941e+00
5.558522e+00
5.804041e+00
6.031058e+00
6.235515e+00
6.414190e+00
6.564853e+00
6.686276e+00
6.778310e+00
6.842087e+00
6.880340e+00
6.897737e+00
6.901030e+00
6.898520e+00
6.897078e+00
0.000000e+00
-2.334769e-01
-4.360485e-01
-6.781909e-01
-9.517299e-01
-1.257721e+00
-1.600347e+00
-1.978873e+00
-2.393244e+00
-2.844417e+00
-3.332553e+00
-3.857559e+00
-4.419501e+00
-5.018358e+00
-5.653947e+00
-6.326011e+00
-7.034197e+00
-7.777989e+00
-8.556671e+00
-9.369336e+00
-1.021495e+01
-1.109251e+01
-1.200124e+01
-1.294091e+01
-1.391217e+01
-1.491711e+01
-1.595995e+01
-1.704804e+01
-1.819322e+01
-1.941542e+01
-2.076134e+01
-2.235934e+01
-2.453655e+01
0.000000e+00
-1.451187e-01
-3.570174e-01
-5.950922e-01
-8.688196e-01
-1.175867e+00
-1.517999e+00
-1.896478e+00
-2.311258e+00
-2.762608e+00
-3.250901e+00
-3.776211e+00
-4.338506e+00
-4.937748e+00
-5.573806e+00
-6.246448e+00
-6.955344e+00
-7.700045e+00
-8.479929e+00
-9.294168e+00
-1.014176e+01
-1.102163e+01
-1.193287e+01
-1.287502e+01
-1.384850e+01
-1.485512e+01
-1.589888e+01
-1.698699e+01
-1.813170e+01
-1.935521e+01
-2.070364e+01
-2.227337e+01
-2.427423e+01
0.000000e+00
-1.092121e-01
-2.964859e-01
-5.293753e-01
-8.003414e-01
-1.106413e+00
-1.447771e+00
-1.825813e+00
-2.240562e+00
-2.691982e+00
-3.180409e+00
-3.705976e+00
-4.268627e+00
-4.868308e+00
-5.504913e+00
-6.178235e+00
-6.887980e+00
-7.633754e+00
-8.415009e+00
-9.230997e+00
-1.008076e+01
-1.096323e+01
-1.187745e+01
-1.282286e+01
-1.379977e+01
-1.480994e+01
-1.585740e+01
-1.694976e+01
-1.810087e+01
-1.933491e+01
-2.068262e+01
-2.215760e+01
-2.373719e+01
0.000000e+00
-9.759048e-02
-2.644544e-01
-4.846164e-01
-7.491083e-01
-1.051478e+00
-1.390798e+00
-1.767606e+00
-2.181691e+00
-2.632870e+00
-3.121311e+00
-3.647086e+00
-4.210127e+00
-4.810367e+00
-5.447705e+00
-6.121961e+00
-6.832873e+00
-7.580089e+00
-8.363115e+00
-9.181255e+00
-1.003361e+01
-1.091915e+01
-1.183693e+01
-1.278639e+01
-1.376780e+01
-1.478286e+01
-1.583550e+01
-1.693327e+01
-1.808952e+01
-1.932388e+01
-2.064044e+01
-2.199418e+01
-2.324796e+01
0.000000e+00
-9.714966e-02
-2.516161e-01
-4.598426e-01
-7.149614e-01
-1.011687e+00
-1.347626e+00
-1.722269e+00
-2.135063e+00
-2.585643e+00
-3.073930e+00
-3.599864e+00
-4.163343e+00
-4.764278e+00
-5.402558e+00
-6.078020e+00
-6.790431e+00
-7.539462e+00
-8.324645e+00
-9.145321e+00
-1.000064e+01
-1.088961e+01
-1.181132e+01
-1.276518e+01
-1.375134e+01
-1.477119e+01
-1.582800e+01
-1.692785e+01
-1.808026e+01
-1.929453e+01
-2.055513e+01
-2.179062e+01
-2.289370e+01
0.000000e+00
-9.649259e-02
-2.455940e-01
-4.457012e-01
-6.933079e-01
-9.844113e-01
-1.316720e+00
-1.688931e+00
-2.100215e+00
-2.550038e+00
-3.038091e+00
-3.564178e+00
-4.128147e+00
-4.729877e+00
-5.369250e+00
-6.046112e+00
-6.760247e+00
-7.511341e+00
-8.298935e+00
-9.122387e+00
-9.980862e+00
-1.087339e+01
-1.179901e+01
-1.275699e+01
-1.374715e+01
-1.477019e+01
-1.582800e+01
-1.692384e+01
-1.806138e+01
-1.923920e+01
-2.042997e+01
-2.156993e+01
-2.257693e+01
0.000000e+00
-9.563983e-02
-2.418836e-01
-4.374041e-01
-6.799566e-01
-9.669236e-01
-1.296200e+00
-1.666336e+00
-2.076324e+00
-2.525478e+00
-3.013346e+00
-3.539630e+00
-4.104128e+00
-4.706697e+00
-5.347213e+00
-6.025535e+00
-6.741461e+00
-7.494686e+00
-8.284753e+00
-9.111012e+00
-9.972602e+00
-1.086849e+01
-1.179757e+01
-1.275882e+01
-1.375146e+01
-1.477513e+01
-1.582984e+01
-1.691549e+01
-1.803004e+01
-1.916400e+01
-2.028784e+01
-2.135009e+01
-2.228968e+01
0.000000e+00
-9.507965e-02
-2.397752e-01
-4.329053e-01
-6.727274e-01
-9.572391e-01
-1.284628e+00
-1.653450e+00
-2.062635e+00
-2.511414e+00
-2.999258e+00
-3.525815e+00
-4.090859e+00
-4.694238e+00
-5.335837e+00
-6.015532e+00
-6.733141e+00
-7.488370e+00
-8.280756e+00
-9.109618e+00
-9.974023e+00
-1.087279e+01
-1.180455e+01
-1.276781e+01
-1.376101e+01
-1.478254e+01
-1.583041e+01
-1.690143e+01
-1.798932e+01
-1.908050e+01
-2.014763e+01
-2.115049e+01
-2.204481e+01
0.000000e+00
-9.490205e-02
-2.391204e-01
-4.315335e-01
-6.705328e-01
-9.542996e-01
-1.281126e+00
-1.649599e+00
-2.058635e+00
-2.507448e+00
-2.995494e+00
-3.522415e+00
-4.087988e+00
-4.692077e+00
-5.334592e+00
-6.015437e+00
-6.734458e+00
-7.491378e+00
-8.285729e+00
-9.116778e+00
-9.983474e+00
-1.088442e+01
-1.181787e+01
-1.278175e+01
-1.377364e+01
-1.479065e+01
-1.582903e+01
-1.688330e+01
-1.794468e+01
-1.899843e+01
-2.002099e+01
-2.098149e+01
-2.184747e+01
0.000000e+00
-9.512429e-02
-2.398812e-01
-4.331043e-01
-6.730614e-01
-9.577585e-01
-1.285392e+00
-1.654529e+00
-2.064114e+00
-2.513399e+00
-3.001879e+00
-3.529236e+00
-4.095283e+00
-4.699922e+00
-5.343100e+00
-6.024762e+00
-6.744793e+00
-7.502942e+00
-8.298739e+00
-9.131391e+00
-9.999700e+00
-1.090199e+01
-1.183610e+01
-1.279930e+01
-1.378832e+01
-1.479916e+01
-1.582671e+01
-1.686404e+01
-1.790135e+01
-1.892448e+01
-1.991389e+01
-2.084608e+01
-2.169672e+01
0.000000e+00
-9.571850e-02
-2.420768e-01
-4.377768e-01
-6.805920e-01
-9.679197e-01
-1.297671e+00
-1.668418e+00
-2.079181e+00
-2.529313e+00
-3.018408e+00
-3.546230e+00
-4.112657e+00
-4.717642e+00
-5.361178e+00
-6.043258e+00
-6.763810e+00
-7.522626e+00
-8.319240e+00
-9.152805e+00
-1.002196e+01
-1.092475e+01
-1.185852e+01
-1.281996e+01
-1.380501e+01
-1.480879e+01
-1.582524e+01
-1.684674e+01
-1.786341e+01
-1.886253e+01
-1.982836e+01
-2.074310e+01
-2.158852e+01
0.000000e+00
-9.658366e-02
-2.458375e-01
-4.461991e-01
-6.941821e-01
-9.858004e-01
-1.318786e+00
-1.691866e+00
-2.104249e+00
-2.555454e+00
-3.045241e+00
-3.573494e+00
-4.140170e+00
-4.745279e+00
-5.388859e+00
-6.070943e+00
-6.791509e+00
-7.550392e+00
-8.347150e+00
-9.180892e+00
-1.005010e+01
-1.095252e+01
-1.188506e+01
-1.284387e+01
-1.382427e+01
-1.482070e+01
-1.582657e+01
-1.683400e+01
-1.783359e+01
-1.881435e+01
-1.976391e+01
-2.066924e+01
-2.151723e+01
0.000000e+00
-9.722162e-02
-2.518597e-01
-4.604016e-01
-7.159895e-01
-1.013353e+00
-1.350127e+00
-1.725841e+00
-2.139987e+00
-2.592262e+00
-3.082670e+00
-3.611247e+00
-4.178016e+00
-4.783038e+00
-5.426386e+00
-6.108117e+00
-6.828241e+00
-7.586636e+00
-8.382884e+00
-9.216057e+00
-1.008450e+01
-1.098567e+01
-1.191614e+01
-1.287160e+01
-1.384691e+01
-1.483610e+01
-1.583229e+01
-1.682763e+01
-1.781339e+01
-1.878022e+01
-1.971871e+01
-2.062009e+01
-2.147628e+01
0.000000e+00
-9.760950e-02
-2.646545e-01
-4.851739e-01
-7.502002e-01
-1.053289e+00
-1.393549e+00
-1.771560e+00
-2.187162e+00
-2.640240e+00
-3.131052e+00
-3.659774e+00
-4.226471e+00
-4.831235e+00
-5.474157e+00
-6.155291e+00
-6.874647e+00
-7.632115e+00
-8.427277e+00
-9.259155e+00
-1.012596e+01
-1.102495e+01
-1.195241e+01
-1.290377e+01
-1.387364e+01
-1.485583e+01
-1.584335e+01
-1.682852e+01
-1.780320e+01
-1.875942e+01
-1.969022e+01
-2.059070e+01
-2.145831e+01
0.000000e+00
-1.091807e-01
-2.966427e-01
-5.299054e-01
-8.014334e-01
-1.108262e+00
-1.450606e+00
-1.829912e+00
-2.246253e+00
-2.699666e+00
-3.190579e+00
-3.719231e+00
-4.285701e+00
-4.890092e+00
-5.532490e+00
-6.212918e+00
-6.931349e+00
-7.687621e+00
-8.481242e+00
-9.311131e+00
-1.017537e+01
-1.107109e+01
-1.199448e+01
-1.294086e+01
-1.390481e+01
-1.488010e+01
-1.585980e+01
-1.683641e+01
-1.780226e+01
-1.875032e+01
-1.967543e+01
-2.057591e+01
-2.145505e+01
0.000000e+00
-1.450812e-01
-3.571638e-01
-5.956098e-01
-8.699026e-01
-1.177715e+00
-1.520846e+00
-1.900601e+00
-2.316989e+00
-2.770350e+00
-3.261149e+00
-3.789564e+00
-4.355693e+00
-4.959650e+00
-5.601488e+00
-6.281190e+00
-6.998652e+00
-7.753585e+00
-8.545318e+00
-9.372579e+00
-1.023331e+01
-1.112460e+01
-1.204267e+01
-1.298298e+01
-1.394023e+01
-1.490835e+01
-1.588057e+01
-1.684963e+01
-1.780825e+01
-1.874996e+01
-1.967062e+01
-2.057055e+01
-2.145761e+01
0.000000e+00
-2.334792e-01
-4.362220e-01
-6.787354e-01
-9.528354e-01
-1.259592e+00
-1.603219e+00
-1.983018e+00
-2.398993e+00
-2.852169e+00
-3.342795e+00
-3.870880e+00
-4.436610e+00
-5.040107e+00
-5.681365e+00
-6.360311e+00
-7.076749e+00
-7.830189e+00
-8.619686e+00
-9.443698e+00
-1.030000e+01
-1.118567e+01
-1.209712e+01