TITLE = "Solution"
VARIABLES = x, y, u, v, psiu, psiv, t, stress
ZONE T="structure" N=561 E=512 F=FEBLOCK ET=QUADRILATERAL VARLOCATION=([7,8]=cellcentered)
0.000000e+00
6.250000e+00
1.250000e+01
1.875000e+01
2.500000e+01
3.125000e+01
3.750000e+01
4.375000e+01
5.000000e+01
5.625000e+01
6.250000e+01
6.875000e+01
7.500000e+01
8.125000e+01
8.750000e+01
9.375000e+01
1.000000e+02
1.062500e+02
1.125000e+02
1.187500e+02
1.250000e+02
1.312500e+02
1.375000e+02
1.437500e+02
1.500000e+02
1.562500e+02
1.625000e+02
1.687500e+02
1.750000e+02
1.812500e+02
1.875000e+02
1.937500e+02
2.000000e+02
0.000000e+00
6.250000e+00
1.250000e+01
1.875000e+01
2.500000e+01
3.125000e+01
3.750000e+01
4.375000e+01
5.000000e+01
5.625000e+01
6.250000e+01
6.875000e+01
7.500000e+01
8.125000e+01
8.750000e+01
9.375000e+01
1.000000e+02
1.062500e+02
1.125000e+02
1.187500e+02
1.250000e+02
1.312500e+02
1.375000e+02
1.437500e+02
1.500000e+02
1.562500e+02
1.625000e+02
1.687500e+02
1.750000e+02
1.812500e+02
1.875000e+02
1.937500e+02
2.000000e+02
0.000000e+00
6.250000e+00
1.250000e+01
1.875000e+01
2.500000e+01
3.125000e+01
3.750000e+01
4.375000e+01
5.000000e+01
5.625000e+01
6.250000e+01
6.875000e+01
7.500000e+01
8.125000e+01
8.750000e+01
9.375000e+01
1.000000e+02
1.062500e+02
1.125000e+02
1.187500e+02
1.250000e+02
1.312500e+02
1.375000e+02
1.437500e+02
1.500000e+02
1.562500e+02
1.625000e+02
1.687500e+02
1.750000e+02
1.812500e+02
1.875000e+02
1.937500e+02
2.000000e+02
0.000000e+00
6.250000e+00
1.250000e+01
1.875000e+01
2.500000e+01
3.125000e+01
3.750000e+01
4.375000e+01
5.000000e+01
5.625000e+01
6.250000e+01
6.875000e+01
7.500000e+01
8.125000e+01
8.750000e+01
9.375000e+01
1.000000e+02
1.062500e+02
1.125000e+02
1.187500e+02
1.250000e+02
1.312500e+02
1.375000e+02
1.437500e+02
1.500000e+02
1.562500e+02
1.625000e+02
1.687500e+02
1.750000e+02
1.812500e+02
1.875000e+02
1.937500e+02
2.000000e+02
0.000000e+00
6.250000e+00
1.250000e+01
1.875000e+01
2.500000e+01
3.125000e+01
3.750000e+01
4.375000e+01
5.000000e+01
5.625000e+01
6.250000e+01
6.875000e+01
7.500000e+01
8.125000e+01
8.750000e+01
9.375000e+01
1.000000e+02
1.062500e+02
1.125000e+02
1.187500e+02
1.250000e+02
1.312500e+02
1.375000e+02
1.437500e+02
1.500000e+02
1.562500e+02
1.625000e+02
1.687500e+02
1.750000e+02
1.812500e+02
1.875000e+02
1.937500e+02
2.000000e+02
0.000000e+00
6.250000e+00
1.250000e+01
1.875000e+01
2.500000e+01
3.125000e+01
3.750000e+01
4.375000e+01
5.000000e+01
5.625000e+01
6.250000e+01
6.875000e+01
7.500000e+01
8.125000e+01
8.750000e+01
9.375000e+01
1.000000e+02
1.062500e+02
1.125000e+02
1.187500e+02
1.250000e+02
1.312500e+02
1.375000e+02
1.437500e+02
1.500000e+02
1.562500e+02
1.625000e+02
1.687500e+02
1.750000e+02
1.812500e+02
1.875000e+02
1.937500e+02
2.000000e+02
0.000000e+00
6.250000e+00
1.250000e+01
1.875000e+01
2.500000e+01
3.125000e+01
3.750000e+01
4.375000e+01
5.000000e+01
5.625000e+01
6.250000e+01
6.875000e+01
7.500000e+01
8.125000e+01
8.750000e+01
9.375000e+01
1.000000e+02
1.062500e+02
1.125000e+02
1.187500e+02
1.250000e+02
1.312500e+02
1.375000e+02
1.437500e+02
1.500000e+02
1.562500e+02
1.625000e+02
1.687500e+02
1.750000e+02
1.812500e+02
1.875000e+02
1.937500e+02
2.000000e+02
0.000000e+00
6.250000e+00
1.250000e+01
1.875000e+01
2.500000e+01
3.125000e+01
3.750000e+01
4.375000e+01
5.000000e+01
5.625000e+01
6.250000e+01
6.875000e+01
7.500000e+01
8.125000e+01
8.750000e+01
9.375000e+01
1.000000e+02
1.062500e+02
1.125000e+02
1.187500e+02
1.250000e+02
1.312500e+02
1.375000e+02
1.437500e+02
1.500000e+02
1.562500e+02
1.625000e+02
1.687500e+02
1.750000e+02
1.812500e+02
1.875000e+02
1.937500e+02
2.000000e+02
0.000000e+00
6.250000e+00
1.250000e+01
1.875000e+01
2.500000e+01
3.125000e+01
3.750000e+01
4.375000e+01
5.000000e+01
5.625000e+01
6.250000e+01
6.875000e+01
7.500000e+01
8.125000e+01
8.750000e+01
9.375000e+01
1.000000e+02
1.062500e+02
1.125000e+02
1.187500e+02
1.250000e+02
1.312500e+02
1.375000e+02
1.437500e+02
1.500000e+02
1.562500e+02
1.625000e+02
1.687500e+02
1.750000e+02
1.812500e+02
1.875000e+02
1.937500e+02
2.000000e+02
0.000000e+00
6.250000e+00
1.250000e+01
1.875000e+01
2.500000e+01
3.125000e+01
3.750000e+01
4.375000e+01
5.000000e+01
5.625000e+01
6.250000e+01
6.875000e+01
7.500000e+01
8.125000e+01
8.750000e+01
9.375000e+01
1.000000e+02
1.062500e+02
1.125000e+02
1.187500e+02
1.250000e+02
1.312500e+02
1.375000e+02
1.437500e+02
1.500000e+02
1.562500e+02
1.625000e+02
1.687500e+02
1.750000e+02
1.812500e+02
1.875000e+02
1.937500e+02
2.000000e+02
0.000000e+00
6.250000e+00
1.250000e+01
1.875000e+01
2.500000e+01
3.125000e+01
3.750000e+01
4.375000e+01
5.000000e+01
5.625000e+01
6.250000e+01
6.875000e+01
7.500000e+01
8.125000e+01
8.750000e+01
9.375000e+01
1.000000e+02
1.062500e+02
1.125000e+02
1.187500e+02
1.250000e+02
1.312500e+02
1.375000e+02
1.437500e+02
1.500000e+02
1.562500e+02
1.625000e+02
1.687500e+02
1.750000e+02
1.812500e+02
1.875000e+02
1.937500e+02
2.000000e+02
0.000000e+00
6.250000e+00
1.250000e+01
1.875000e+01
2.500000e+01
3.125000e+01
3.750000e+01
4.375000e+01
5.000000e+01
5.625000e+01
6.250000e+01
6.875000e+01
7.500000e+01
8.125000e+01
8.750000e+01
9.375000e+01
1.000000e+02
1.062500e+02
1.125000e+02
1.187500e+02
1.250000e+02
1.312500e+02
1.375000e+02
1.437500e+02
1.500000e+02
1.562500e+02
1.625000e+02
1.687500e+02
1.750000e+02
1.812500e+02
1.875000e+02
1.937500e+02
2.000000e+02
0.000000e+00
6.250000e+00
1.250000e+01
1.875000e+01
2.500000e+01
3.125000e+01
3.750000e+01
4.375000e+01
5.000000e+01
5.625000e+01
6.250000e+01
6.875000e+01
7.500000e+01
8.125000e+01
8.750000e+01
9.375000e+01
1.000000e+02
1.062500e+02
1.125000e+02
1.187500e+02
1.250000e+02
1.312500e+02
1.375000e+02
1.437500e+02
1.500000e+02
1.562500e+02
1.625000e+02
1.687500e+02
1.750000e+02
1.812500e+02
1.875000e+02
1.937500e+02
2.000000e+02
0.000000e+00
6.250000e+00
1.250000e+01
1.875000e+01
2.500000e+01
3.125000e+01
3.750000e+01
4.375000e+01
5.000000e+01
5.625000e+01
6.250000e+01
6.875000e+01
7.500000e+01
8.125000e+01
8.750000e+01
9.375000e+01
1.000000e+02
1.062500e+02
1.125000e+02
1.187500e+02
1.250000e+02
1.312500e+02
1.375000e+02
1.437500e+02
1.500000e+02
1.562500e+02
1.625000e+02
1.687500e+02
1.750000e+02
1.812500e+02
1.875000e+02
1.937500e+02
2.000000e+02
0.000000e+00
6.250000e+00
1.250000e+01
1.875000e+01
2.500000e+01
3.125000e+01
3.750000e+01
4.375000e+01
5.000000e+01
5.625000e+01
6.250000e+01
6.875000e+01
7.500000e+01
8.125000e+01
8.750000e+01
9.375000e+01
1.000000e+02
1.062500e+02
1.125000e+02
1.187500e+02
1.250000e+02
1.312500e+02
1.375000e+02
1.437500e+02
1.500000e+02
1.562500e+02
1.625000e+02
1.687500e+02
1.750000e+02
1.812500e+02
1.875000e+02
1.937500e+02
2.000000e+02
0.000000e+00
6.250000e+00
1.250000e+01
1.875000e+01
2.500000e+01
3.125000e+01
3.750000e+01
4.375000e+01
5.000000e+01
5.625000e+01
6.250000e+01
6.875000e+01
7.500000e+01
8.125000e+01
8.750000e+01
9.375000e+01
1.000000e+02
1.062500e+02
1.125000e+02
1.187500e+02
1.250000e+02
1.312500e+02
1.375000e+02
1.437500e+02
1.500000e+02
1.562500e+02
1.625000e+02
1.687500e+02
1.750000e+02
1.812500e+02
1.875000e+02
1.937500e+02
2.000000e+02
0.000000e+00
6.250000e+00
1.250000e+01
1.875000e+01
2.500000e+01
3.125000e+01
3.750000e+01
4.375000e+01
5.000000e+01
5.625000e+01
6.250000e+01
6.875000e+01
7.500000e+01
8.125000e+01
8.750000e+01
9.375000e+01
1.000000e+02
1.062500e+02
1.125000e+02
1.187500e+02
1.250000e+02
1.312500e+02
1.375000e+02
1.437500e+02
1.500000e+02
1.562500e+02
1.625000e+02
1.687500e+02
1.750000e+02
1.812500e+02
1.875000e+02
1.937500e+02
2.000000e+02
0.000000e+00
0.000000e+00
0.000000e+00
0.000000e+00
0.000000e+00
0.000000e+00
0.000000e+00
0.000000e+00
0.000000e+00
0.000000e+00
0.000000e+00
0.000000e+00
0.000000e+00
0.000000e+00
0.000000e+00
0.000000e+00
0.000000e+00
0.000000e+00
0.000000e+00
0.000000e+00
0.000000e+00
0.000000e+00
0.000000e+00
0.000000e+00
0.000000e+00
0.000000e+00
0.000000e+00
0.000000e+00
0.000000e+00
0.000000e+00
0.000000e+00
0.000000e+00
0.000000e+00
6.250000e+00
6.250000e+00
6.250000e+00
6.250000e+00
6.250000e+00
6.250000e+00
6.250000e+00
6.250000e+00
6.250000e+00
6.250000e+00
6.250000e+00
6.250000e+00
6.250000e+00
6.250000e+00
6.250000e+00
6.250000e+00
6.250000e+00
6.250000e+00
6.250000e+00
6.250000e+00
6.250000e+00
6.250000e+00
6.250000e+00
6.250000e+00
6.250000e+00
6.250000e+00
6.250000e+00
6.250000e+00
6.250000e+00
6.250000e+00
6.250000e+00
6.250000e+00
6.250000e+00
1.250000e+01
1.250000e+01
1.250000e+01
1.250000e+01
1.250000e+01
1.250000e+01
1.250000e+01
1.250000e+01
1.250000e+01
1.250000e+01
1.250000e+01
1.250000e+01
1.250000e+01
1.250000e+01
1.250000e+01
1.250000e+01
1.250000e+01
1.250000e+01
1.250000e+01
1.250000e+01
1.250000e+01
1.250000e+01
1.250000e+01
1.250000e+01
1.250000e+01
1.250000e+01
1.250000e+01
1.250000e+01
1.250000e+01
1.250000e+01
1.250000e+01
1.250000e+01
1.250000e+01
1.875000e+01
1.875000e+01
1.875000e+01
1.875000e+01
1.875000e+01
1.875000e+01
1.875000e+01
1.875000e+01
1.875000e+01
1.875000e+01
1.875000e+01
1.875000e+01
1.875000e+01
1.875000e+01
1.875000e+01
1.875000e+01
1.875000e+01
1.875000e+01
1.875000e+01
1.875000e+01
1.875000e+01
1.875000e+01
1.875000e+01
1.875000e+01
1.875000e+01
1.875000e+01
1.875000e+01
1.875000e+01
1.875000e+01
1.875000e+01
1.875000e+01
1.875000e+01
1.875000e+01
2.500000e+01
2.500000e+01
2.500000e+01
2.500000e+01
2.500000e+01
2.500000e+01
2.500000e+01
2.500000e+01
2.500000e+01
2.500000e+01
2.500000e+01
2.500000e+01
2.500000e+01
2.500000e+01
2.500000e+01
2.500000e+01
2.500000e+01
2.500000e+01
2.500000e+01
2.500000e+01
2.500000e+01
2.500000e+01
2.500000e+01
2.500000e+01
2.500000e+01
2.500000e+01
2.500000e+01
2.500000e+01
2.500000e+01
2.500000e+01
2.500000e+01
2.500000e+01
2.500000e+01
3.125000e+01
3.125000e+01
3.125000e+01
3.125000e+01
3.125000e+01
3.125000e+01
3.125000e+01
3.125000e+01
3.125000e+01
3.125000e+01
3.125000e+01
3.125000e+01
3.125000e+01
3.125000e+01
3.125000e+01
3.125000e+01
3.125000e+01
3.125000e+01
3.125000e+01
3.125000e+01
3.125000e+01
3.125000e+01
3.125000e+01
3.125000e+01
3.125000e+01
3.125000e+01
3.125000e+01
3.125000e+01
3.125000e+01
3.125000e+01
3.125000e+01
3.125000e+01
3.125000e+01
3.750000e+01
3.750000e+01
3.750000e+01
3.750000e+01
3.750000e+01
3.750000e+01
3.750000e+01
3.750000e+01
3.750000e+01
3.750000e+01
3.750000e+01
3.750000e+01
3.750000e+01
3.750000e+01
3.750000e+01
3.750000e+01
3.750000e+01
3.750000e+01
3.750000e+01
3.750000e+01
3.750000e+01
3.750000e+01
3.750000e+01
3.750000e+01
3.750000e+01
3.750000e+01
3.750000e+01
3.750000e+01
3.750000e+01
3.750000e+01
3.750000e+01
3.750000e+01
3.750000e+01
4.375000e+01
4.375000e+01
4.375000e+01
4.375000e+01
4.375000e+01
4.375000e+01
4.375000e+01
4.375000e+01
4.375000e+01
4.375000e+01
4.375000e+01
4.375000e+01
4.375000e+01
4.375000e+01
4.375000e+01
4.375000e+01
4.375000e+01
4.375000e+01
4.375000e+01
4.375000e+01
4.375000e+01
4.375000e+01
4.375000e+01
4.375000e+01
4.375000e+01
4.375000e+01
4.375000e+01
4.375000e+01
4.375000e+01
4.375000e+01
4.375000e+01
4.375000e+01
4.375000e+01
5.000000e+01
5.000000e+01
5.000000e+01
5.000000e+01
5.000000e+01
5.000000e+01
5.000000e+01
5.000000e+01
5.000000e+01
5.000000e+01
5.000000e+01
5.000000e+01
5.000000e+01
5.000000e+01
5.000000e+01
5.000000e+01
5.000000e+01
5.000000e+01
5.000000e+01
5.000000e+01
5.000000e+01
5.000000e+01
5.000000e+01
5.000000e+01
5.000000e+01
5.000000e+01
5.000000e+01
5.000000e+01
5.000000e+01
5.000000e+01
5.000000e+01
5.000000e+01
5.000000e+01
5.625000e+01
5.625000e+01
5.625000e+01
5.625000e+01
5.625000e+01
5.625000e+01
5.625000e+01
5.625000e+01
5.625000e+01
5.625000e+01
5.625000e+01
5.625000e+01
5.625000e+01
5.625000e+01
5.625000e+01
5.625000e+01
5.625000e+01
5.625000e+01
5.625000e+01
5.625000e+01
5.625000e+01
5.625000e+01
5.625000e+01
5.625000e+01
5.625000e+01
5.625000e+01
5.625000e+01
5.625000e+01
5.625000e+01
5.625000e+01
5.625000e+01
5.625000e+01
5.625000e+01
6.250000e+01
6.250000e+01
6.250000e+01
6.250000e+01
6.250000e+01
6.250000e+01
6.250000e+01
6.250000e+01
6.250000e+01
6.250000e+01
6.250000e+01
6.250000e+01
6.250000e+01
6.250000e+01
6.250000e+01
6.250000e+01
6.250000e+01
6.250000e+01
6.250000e+01
6.250000e+01
6.250000e+01
6.250000e+01
6.250000e+01
6.250000e+01
6.250000e+01
6.250000e+01
6.250000e+01
6.250000e+01
6.250000e+01
6.250000e+01
6.250000e+01
6.250000e+01
6.250000e+01
6.875000e+01
6.875000e+01
6.875000e+01
6.875000e+01
6.875000e+01
6.875000e+01
6.875000e+01
6.875000e+01
6.875000e+01
6.875000e+01
6.875000e+01
6.875000e+01
6.875000e+01
6.875000e+01
6.875000e+01
6.875000e+01
6.875000e+01
6.875000e+01
6.875000e+01
6.875000e+01
6.875000e+01
6.875000e+01
6.875000e+01
6.875000e+01
6.875000e+01
6.875000e+01
6.875000e+01
6.875000e+01
6.875000e+01
6.875000e+01
6.875000e+01
6.875000e+01
6.875000e+01
7.500000e+01
7.500000e+01
7.500000e+01
7.500000e+01
7.500000e+01
7.500000e+01
7.500000e+01
7.500000e+01
7.500000e+01
7.500000e+01
7.500000e+01
7.500000e+01
7.500000e+01
7.500000e+01
7.500000e+01
7.500000e+01
7.500000e+01
7.500000e+01
7.500000e+01
7.500000e+01
7.500000e+01
7.500000e+01
7.500000e+01
7.500000e+01
7.500000e+01
7.500000e+01
7.500000e+01
7.500000e+01
7.500000e+01
7.500000e+01
7.500000e+01
7.500000e+01
7.500000e+01
8.125000e+01
8.125000e+01
8.125000e+01
8.125000e+01
8.125000e+01
8.125000e+01
8.125000e+01
8.125000e+01
8.125000e+01
8.125000e+01
8.125000e+01
8.125000e+01
8.125000e+01
8.125000e+01
8.125000e+01
8.125000e+01
8.125000e+01
8.125000e+01
8.125000e+01
8.125000e+01
8.125000e+01
8.125000e+01
8.125000e+01
8.125000e+01
8.125000e+01
8.125000e+01
8.125000e+01
8.125000e+01
8.125000e+01
8.125000e+01
8.125000e+01
8.125000e+01
8.125000e+01
8.750000e+01
8.750000e+01
8.750000e+01
8.750000e+01
8.750000e+01
8.750000e+01
8.750000e+01
8.750000e+01
8.750000e+01
8.750000e+01
8.750000e+01
8.750000e+01
8.750000e+01
8.750000e+01
8.750000e+01
8.750000e+01
8.750000e+01
8.750000e+01
8.750000e+01
8.750000e+01
8.750000e+01
8.750000e+01
8.750000e+01
8.750000e+01
8.750000e+01
8.750000e+01
8.750000e+01
8.750000e+01
8.750000e+01
8.750000e+01
8.750000e+01
8.750000e+01
8.750000e+01
9.375000e+01
9.375000e+01
9.375000e+01
9.375000e+01
9.375000e+01
9.375000e+01
9.375000e+01
9.375000e+01
9.375000e+01
9.375000e+01
9.375000e+01
9.375000e+01
9.375000e+01
9.375000e+01
9.375000e+01
9.375000e+01
9.375000e+01
9.375000e+01
9.375000e+01
9.375000e+01
9.375000e+01
9.375000e+01
9.375000e+01
9.375000e+01
9.375000e+01
9.375000e+01
9.375000e+01
9.375000e+01
9.375000e+01
9.375000e+01
9.375000e+01
9.375000e+01
9.375000e+01
1.000000e+02
1.000000e+02
1.000000e+02
1.000000e+02
1.000000e+02
1.000000e+02
1.000000e+02
1.000000e+02
1.000000e+02
1.000000e+02
1.000000e+02
1.000000e+02
1.000000e+02
1.000000e+02
1.000000e+02
1.000000e+02
1.000000e+02
1.000000e+02
1.000000e+02
1.000000e+02
1.000000e+02
1.000000e+02
1.000000e+02
1.000000e+02
1.000000e+02
1.000000e+02
1.000000e+02
1.000000e+02
1.000000e+02
1.000000e+02
1.000000e+02
1.000000e+02
1.000000e+02
0.000000e+00
-4.350550e-01
-7.656834e-01
-1.091127e+00
-1.403514e+00
-1.702131e+00
-2.008454e+00
-2.306983e+00
-2.605622e+00
-2.907640e+00
-3.205637e+00
-3.505452e+00
-3.805867e+00
-4.104143e+00
-4.403981e+00
-4.703522e+00
-5.002116e+00
-5.302115e+00
-5.601896e+00
-5.901347e+00
-6.202546e+00
-6.504218e+00
-6.805790e+00
-7.110006e+00
-7.415879e+00
-7.722627e+00
-8.037307e+00
-8.358686e+00
-8.684248e+00
-9.051199e+00
-9.518012e+00
-9.939164e+00
-1.014586e+01
0.000000e+00
-2.329215e-01
-4.826385e-01
-7.441385e-01
-1.009689e+00
-1.265856e+00
-1.533042e+00
-1.794877e+00
-2.056555e+00
-2.321662e+00
-2.582958e+00
-2.845757e+00
-3.109225e+00
-3.370691e+00
-3.633479e+00
-3.895959e+00
-4.157387e+00
-4.419804e+00
-4.681689e+00
-4.942720e+00
-5.204612e+00
-5.466146e+00
-5.726555e+00
-5.988096e+00
-6.249417e+00
-6.508765e+00
-6.770868e+00
-7.031722e+00
-7.286475e+00
-7.549396e+00
-7.794126e+00
-7.892236e+00
-7.997800e+00
0.000000e+00
-1.258847e-01
-2.738423e-01
-4.659017e-01
-6.758938e-01
-8.852096e-01
-1.109489e+00
-1.331510e+00
-1.554688e+00
-1.781263e+00
-2.005399e+00
-2.231163e+00
-2.457820e+00
-2.683291e+00
-2.909929e+00
-3.136458e+00
-3.362219e+00
-3.588543e+00
-3.814199e+00
-4.038747e+00
-4.263185e+00
-4.486485e+00
-4.707847e+00
-4.928342e+00
-5.146411e+00
-5.359430e+00
-5.567521e+00
-5.765269e+00
-5.944370e+00
-6.095505e+00
-6.176298e+00
-6.180851e+00
-6.272877e+00
0.000000e+00
-8.128321e-02
-1.682234e-01
-2.971608e-01
-4.408344e-01
-6.000081e-01
-7.763102e-01
-9.545330e-01
-1.137737e+00
-1.325100e+00
-1.512025e+00
-1.701332e+00
-1.891823e+00
-2.082065e+00
-2.273600e+00
-2.465232e+00
-2.656459e+00
-2.847938e+00
-3.038646e+00
-3.228143e+00
-3.416661e+00
-3.603282e+00
-3.786973e+00
-3.967110e+00
-4.141474e+00
-4.306373e+00
-4.458110e+00
-4.590551e+00
-4.693767e+00
-4.756399e+00
-4.767931e+00
-4.780838e+00
-4.861426e+00
0.000000e+00
-8.348491e-02
-1.608522e-01
-2.546384e-01
-3.598631e-01
-4.816465e-01
-6.143739e-01
-7.522975e-01
-8.965447e-01
-1.042926e+00
-1.190369e+00
-1.339797e+00
-1.489679e+00
-1.640315e+00
-1.791807e+00
-1.943211e+00
-2.094514e+00
-2.245385e+00
-2.395150e+00
-2.543369e+00
-2.689319e+00
-2.831961e+00
-2.969846e+00
-3.101128e+00
-3.223382e+00
-3.333424e+00
-3.427506e+00
-3.500829e+00
-3.547928e+00
-3.564310e+00
-3.558425e+00
-3.585543e+00
-3.659674e+00
0.000000e+00
-6.987446e-02
-1.376568e-01
-2.078742e-01
-2.878138e-01
-3.753720e-01
-4.706194e-01
-5.717653e-01
-6.758482e-01
-7.823783e-01
-8.904245e-01
-9.994135e-01
-1.109604e+00
-1.220609e+00
-1.332091e+00
-1.443821e+00
-1.555258e+00
-1.665958e+00
-1.775403e+00
-1.882732e+00
-1.986885e+00
-2.086564e+00
-2.180042e+00
-2.265253e+00
-2.340005e+00
-2.401976e+00
-2.448838e+00
-2.477989e+00
-2.486062e+00
-2.473818e+00
-2.466304e+00
-2.494944e+00
-2.564036e+00
0.000000e+00
-4.946016e-02
-9.783945e-02
-1.474072e-01
-2.004093e-01
-2.581330e-01
-3.200877e-01
-3.853773e-01
-4.529738e-01
-5.221134e-01
-5.924527e-01
-6.637238e-01
-7.357245e-01
-8.082654e-01
-8.810350e-01
-9.536795e-01
-1.025809e+00
-1.096941e+00
-1.166459e+00
-1.233518e+00
-1.297006e+00
-1.355551e+00
-1.407507e+00
-1.451009e+00
-1.484102e+00
-1.504891e+00
-1.511424e+00
-1.501099e+00
-1.474782e+00
-1.442763e+00
-1.431084e+00
-1.459743e+00
-1.528614e+00
0.000000e+00
-2.620705e-02
-5.207319e-02
-7.821254e-02
-1.056477e-01
-1.349184e-01
-1.660430e-01
-1.986271e-01
-2.322435e-01
-2.665696e-01
-3.013338e-01
-3.363051e-01
-3.712875e-01
-4.060875e-01
-4.404792e-01
-4.741924e-01
-5.069098e-01
-5.382410e-01
-5.676747e-01
-5.945229e-01
-6.178645e-01
-6.365153e-01
-6.490460e-01
-6.538312e-01
-6.490572e-01
-6.325564e-01
-6.017643e-01
-5.566629e-01
-5.054470e-01
-4.616637e-01
-4.474399e-01
-4.769944e-01
-5.478267e-01
0.000000e+00
-1.930047e-03
-3.859990e-03
-5.743585e-03
-7.537690e-03
-9.196861e-03
-1.066162e-02
-1.185608e-02
-1.269917e-02
-1.311093e-02
-1.299791e-02
-1.223616e-02
-1.067602e-02
-8.155285e-03
-4.500685e-03
4.799399e-04
7.011960e-03
1.536721e-02
2.588462e-02
3.901373e-02
5.537647e-02
7.584372e-02
1.015978e-01
1.341707e-01
1.754629e-01
2.273694e-01
2.901375e-01
3.590348e-01
4.230564e-01
4.684678e-01
4.795357e-01
4.461659e-01
3.754103e-01
0.000000e+00
2.239929e-02
4.446652e-02
6.691467e-02
9.085110e-02
1.168976e-01
1.451710e-01
1.754078e-01
2.073275e-01
2.407622e-01
2.756344e-01
3.119728e-01
3.498869e-01
3.895128e-01
4.309835e-01
4.744323e-01
5.200080e-01
5.678782e-01
6.182315e-01
6.712894e-01
7.273572e-01
7.869645e-01
8.510375e-01
9.208883e-01
9.975852e-01
1.080596e+00
1.166492e+00
1.247951e+00
1.314381e+00
1.353938e+00
1.356256e+00
1.320357e+00
1.259216e+00
0.000000e+00
4.583481e-02
9.062309e-02
1.367385e-01
1.865329e-01
2.413688e-01
3.008304e-01
3.640829e-01
4.301585e-01
4.984119e-01
5.687270e-01
6.411379e-01
7.157427e-01
7.926520e-01
8.719125e-01
9.536027e-01
1.037840e+00
1.124745e+00
1.214469e+00
1.307154e+00
1.402959e+00
1.502148e+00
1.604884e+00
1.710806e+00
1.818477e+00
1.924852e+00
2.024983e+00
2.111362e+00
2.174623e+00
2.206490e+00
2.204322e+00
2.174206e+00
2.128999e+00
0.000000e+00
6.659965e-02
1.311421e-01
1.983388e-01
2.755584e-01
3.608654e-01
4.544447e-01
5.545266e-01
6.580890e-01
7.646519e-01
8.735102e-01
9.844337e-01
1.097945e+00
1.213890e+00
1.332218e+00
1.453053e+00
1.576335e+00
1.702173e+00
1.830719e+00
1.961991e+00
2.095957e+00
2.232276e+00
2.369613e+00
2.505466e+00
2.636680e+00
2.759347e+00
2.868150e+00
2.956516e+00
3.018145e+00
3.049971e+00
3.053537e+00
3.035013e+00
3.006044e+00
0.000000e+00
8.064361e-02
1.553996e-01
2.466068e-01
3.497883e-01
4.700575e-01
6.019853e-01
7.400152e-01
8.851307e-01
1.033091e+00
1.183086e+00
1.336324e+00
1.491573e+00
1.649383e+00
1.810026e+00
1.972773e+00
2.137837e+00
2.304976e+00
2.473510e+00
2.642986e+00
2.812579e+00
2.981013e+00
3.146204e+00
3.305328e+00
3.455301e+00
3.592148e+00
3.710708e+00
3.805747e+00
3.873751e+00
3.913682e+00
3.927249e+00
3.920387e+00
3.905040e+00
0.000000e+00
7.909718e-02
1.639942e-01
2.909295e-01
4.330572e-01
5.912140e-01
7.668910e-01
9.451003e-01
1.129066e+00
1.317958e+00
1.507503e+00
1.700842e+00
1.897027e+00
2.095054e+00
2.296688e+00
2.500821e+00
2.706999e+00
2.915367e+00
3.124094e+00
3.331771e+00
3.537138e+00
3.737755e+00
3.931273e+00
4.115900e+00
4.289055e+00
4.446018e+00
4.580637e+00
4.688132e+00
4.766317e+00
4.815450e+00
4.838329e+00
4.841221e+00
4.836066e+00
0.000000e+00
1.246999e-01
2.713822e-01
4.620941e-01
6.711125e-01
8.798195e-01
1.103593e+00
1.325279e+00
1.548407e+00
1.775219e+00
2.000055e+00
2.227171e+00
2.455971e+00
2.684623e+00
2.915680e+00
3.147948e+00
3.380796e+00
3.615223e+00
3.849421e+00
4.082224e+00
4.313159e+00
4.539649e+00
4.759567e+00
4.972304e+00
5.174122e+00
5.355530e+00
5.507157e+00
5.625159e+00
5.710094e+00
5.764753e+00
5.793504e+00
5.802905e+00
5.803949e+00
0.000000e+00
2.330172e-01
4.826576e-01
7.438821e-01
1.009251e+00
1.265374e+00
1.532308e+00
1.793779e+00
2.055083e+00
2.319700e+00
2.580381e+00
2.842416e+00
3.104924e+00
3.365179e+00
3.626440e+00
3.887019e+00
4.146014e+00
4.405291e+00
4.663323e+00
4.919673e+00
5.175373e+00
5.428476e+00
5.677014e+00
5.919747e+00
6.148809e+00
6.349348e+00
6.510952e+00
6.631969e+00
6.715465e+00
6.766869e+00
6.793282e+00
6.802919e+00
6.805260e+00
0.000000e+00
4.361653e-01
7.679193e-01
1.094437e+00
1.407774e+00
1.707260e+00
2.014037e+00
2.312708e+00
2.611332e+00
2.912978e+00
3.210145e+00
3.508516e+00
3.806629e+00
4.101504e+00
4.396526e+00
4.689630e+00
4.979932e+00
5.269701e+00
5.557815e+00
5.844617e+00
6.132163e+00
6.418850e+00
6.702133e+00
6.977760e+00
7.231974e+00
7.446158e+00
7.610380e+00
7.724528e+00
7.793199e+00
7.824607e+00
7.830688e+00
7.826247e+00
7.823662e+00
0.000000e+00
-2.640399e-01
-5.472689e-01
-9.066197e-01
-1.310213e+00
-1.755316e+00
-2.241089e+00
-2.760646e+00
-3.317525e+00
-3.910315e+00
-4.538515e+00
-5.204202e+00
-5.906181e+00
-6.644952e+00
-7.421342e+00
-8.234634e+00
-9.085519e+00
-9.974449e+00
-1.090111e+01
-1.186638e+01
-1.287092e+01
-1.391475e+01
-1.499907e+01
-1.612521e+01
-1.729371e+01
-1.850750e+01
-1.977085e+01
-2.108757e+01
-2.246796e+01
-2.392969e+01
-2.548908e+01
-2.730229e+01
-2.985480e+01
0.000000e+00
-1.658162e-01
-4.644238e-01
-8.200866e-01
-1.226869e+00
-1.671299e+00
-2.156656e+00
-2.677245e+00
-3.233299e+00
-3.826259e+00
-4.454739e+00
-5.119944e+00
-5.822204e+00
-6.561005e+00
-7.337186e+00
-8.150729e+00
-9.001546e+00
-9.890362e+00
-1.081725e+01
-1.178240e+01
-1.278676e+01
-1.383078e+01
-1.491489e+01
-1.604064e+01
-1.720930e+01
-1.842231e+01
-1.968441e+01
-2.100139e+01
-2.237981e+01
-2.383479e+01
-2.541357e+01
-2.721286e+01
-2.947726e+01
0.000000e+00
-1.382868e-01
-4.075282e-01
-7.587782e-01
-1.161237e+00
-1.602428e+00
-2.086797e+00
-2.606604e+00
-3.161916e+00
-3.754810e+00
-4.382939e+00
-5.047801e+00
-5.750057e+00
-6.488672e+00
-7.264799e+00
-8.078461e+00
-8.929263e+00
-9.818230e+00
-1.074543e+01
-1.171079e+01
-1.271550e+01
-1.376005e+01
-1.484453e+01
-1.597077e+01
-1.714038e+01
-1.835425e+01
-1.961789e+01
-2.093792e+01
-2.232117e+01
-2.379668e+01
-2.541321e+01
-2.710931e+01
-2.887228e+01
0.000000e+00
-1.594771e-01
-3.984065e-01
-7.349455e-01
-1.122465e+00
-1.555670e+00
-2.036498e+00
-2.552454e+00
-3.106209e+00
-3.698087e+00
-4.324822e+00
-4.989138e+00
-5.690860e+00
-6.428991e+00
-7.205092e+00
-8.018716e+00
-8.869625e+00
-9.758993e+00
-1.068673e+01
-1.165284e+01
-1.265853e+01
-1.370427e+01
-1.479018e+01
-1.591816e+01
-1.708998e+01
-1.830708e+01
-1.957490e+01
-2.090031e+01
-2.229294e+01
-2.378624e+01
-2.539427e+01
-2.695673e+01
-2.837443e+01
0.000000e+00
-1.902045e-01
-4.268670e-01
-7.457627e-01
-1.115985e+00
-1.538304e+00
-2.009980e+00
-2.519756e+00
-3.070161e+00
-3.659049e+00
-4.283822e+00
-4.946901e+00
-5.647394e+00
-6.384985e+00
-7.160825e+00
-7.974320e+00
-8.825618e+00
-9.715558e+00
-1.064417e+01
-1.161174e+01
-1.261910e+01
-1.366681e+01
-1.475534e+01
-1.588612e+01
-1.706096e+01
-1.828205e+01
-1.955425e+01
-2.088363e+01
-2.227839e+01
-2.375992e+01
-2.530315e+01
-2.675248e+01
-2.801914e+01
0.000000e+00
-2.008067e-01
-4.485543e-01
-7.552463e-01
-1.117702e+00
-1.531302e+00
-1.993704e+00
-2.499237e+00
-3.045647e+00
-3.631625e+00
-4.255439e+00
-4.917231e+00
-5.616940e+00
-6.354393e+00
-7.129979e+00
-7.943676e+00
-8.795632e+00
-9.686388e+00
-1.061632e+01
-1.158582e+01
-1.259549e+01
-1.364595e+01
-1.473782e+01
-1.587208e+01
-1.705010e+01
-1.827407e+01
-1.954810e+01
-2.087647e+01
-2.225787e+01
-2.370108e+01
-2.515470e+01
-2.652525e+01
-2.771551e+01
0.000000e+00
-2.052224e-01
-4.576978e-01
-7.621331e-01
-1.119516e+00
-1.528126e+00
-1.984989e+00
-2.486737e+00
-3.030539e+00
-3.614570e+00
-4.237627e+00
-4.898988e+00
-5.598413e+00
-6.335958e+00
-7.111730e+00
-7.925857e+00
-8.778633e+00
-9.670498e+00
-1.060197e+01
-1.157357e+01
-1.258585e+01
-1.363933e+01
-1.473455e+01
-1.587206e+01
-1.705257e+01
-1.827723e+01
-1.954904e+01
-2.086808e+01
-2.222322e+01
-2.361629e+01
-2.499512e+01
-2.629531e+01
-2.742819e+01
0.000000e+00
-2.070312e-01
-4.614110e-01
-7.657106e-01
-1.121167e+00
-1.527141e+00
-1.981452e+00
-2.481116e+00
-3.023510e+00
-3.606809e+00
-4.229707e+00
-4.891269e+00
-5.591071e+00
-6.329111e+00
-7.105483e+00
-7.920366e+00
-8.774123e+00
-9.667235e+00
-1.060027e+01
-1.157385e+01
-1.258851e+01
-1.364466e+01
-1.474258e+01
-1.588241e+01
-1.706395e+01
-1.828667e+01
-1.955080e+01
-2.085175e+01
-2.217512e+01
-2.351791e+01
-2.483482e+01
-2.606607e+01
-2.713755e+01
0.000000e+00
-2.074932e-01
-4.624826e-01
-7.669808e-01
-1.122173e+00
-1.527706e+00
-1.981650e+00
-2.481191e+00
-3.023745e+00
-3.607477e+00
-4.231041e+00
-4.893437e+00
-5.594189e+00
-6.333235e+00
-7.110638e+00
-7.926600e+00
-8.781512e+00
-9.675872e+00
-1.061029e+01
-1.158542e+01
-1.260180e+01
-1.365972e+01
-1.475920e+01
-1.589979e+01
-1.707996e+01
-1.829693e+01
-1.954787e+01
-2.082623e+01
-2.211831e+01
-2.341289e+01
-2.467317e+01
-2.583617e+01
-2.684297e+01
0.000000e+00
-2.069996e-01
-4.615791e-01
-7.663355e-01
-1.122521e+00
-1.529512e+00
-1.985171e+00
-2.486538e+00
-3.030890e+00
-3.616255e+00
-4.241293e+00
-4.905131e+00
-5.607352e+00
-6.347875e+00
-7.126720e+00
-7.944052e+00
-8.800236e+00
-9.695749e+00
-1.063119e+01
-1.160720e+01
-1.262425e+01
-1.368258e+01
-1.478188e+01
-1.592074e+01
-1.709608e+01
-1.830360e+01
-1.953905e+01
-2.079491e+01
-2.205740e+01
-2.330845e+01
-2.451405e+01
-2.562017e+01
-2.658289e+01
0.000000e+00
-2.051675e-01
-4.580625e-01
-7.634249e-01
-1.122272e+00
-1.532901e+00
-1.992420e+00
-2.497494e+00
-3.045096e+00
-3.633128e+00
-4.260348e+00
-4.926160e+00
-5.630304e+00
-6.372693e+00
-7.153302e+00
-7.972201e+00
-8.829683e+00
-9.726166e+00
-1.066215e+01
-1.163814e+01
-1.265449e+01
-1.371134e+01
-1.480793e+01
-1.594194e+01
-1.710968e+01
-1.830654e+01
-1.952709e+01
-2.076256e+01
-2.199782e+01
-2.321078e+01
-2.437092e+01
-2.544027e+01
-2.638573e+01
0.000000e+00
-2.007551e-01
-4.491779e-01
-7.572987e-01
-1.121968e+00
-1.538613e+00
-2.004939e+00
-2.515277e+00
-3.067110e+00
-3.658777e+00
-4.288557e+00
-4.956749e+00
-5.663210e+00
-6.407578e+00
-7.190067e+00
-8.010512e+00
-8.869037e+00
-9.766092e+00
-1.070189e+01
-1.167668e+01
-1.269073e+01
-1.374400e+01
-1.483537e+01
-1.596245e+01
-1.712194e+01
-1.830917e+01
-1.951721e+01
-2.073527e+01
-2.194635e+01
-2.312836e+01
-2.425712e+01
-2.530739e+01
-2.625435e+01
0.000000e+00
-1.902121e-01
-4.278336e-01
-7.486706e-01
-1.121917e+00
-1.548308e+00
-2.025148e+00
-2.541033e+00
-3.098238e+00
-3.694321e+00
-4.326701e+00
-4.997913e+00
-5.706916e+00
-6.453170e+00
-7.237564e+00
-8.059246e+00
-8.918247e+00
-9.815129e+00
-1.074959e+01
-1.172174e+01
-1.273197e+01
-1.378003e+01
-1.486472e+01
-1.598448e+01
-1.713703e+01
-1.831741e+01
-1.951640e+01
-2.071998e+01
-2.191022e+01
-2.306823e+01
-2.417642e+01
-2.521844e+01
-2.617871e+01
0.000000e+00
-1.595529e-01
-3.996614e-01
-7.386608e-01
-1.129868e+00
-1.568047e+00
-2.054988e+00
-2.577956e+00
-3.139575e+00
-3.739941e+00
-4.375734e+00
-5.049735e+00
-5.761502e+00
-6.509762e+00
-7.295760e+00
-8.118539e+00
-8.977528e+00
-9.873429e+00
-1.080561e+01
-1.177398e+01
-1.277941e+01
-1.382160e+01
-1.489964e+01
-1.601345e+01
-1.716191e+01
-1.833852e+01
-1.953006e+01
-2.072009e+01
-2.189219e+01
-2.303150e+01
-2.412552e+01
-2.516521e+01
-2.614533e+01
0.000000e+00
-1.381259e-01
-4.086884e-01
-7.625664e-01
-1.169033e+00
-1.615515e+00
-2.106310e+00
-2.633449e+00
-3.196994e+00
-3.798964e+00
-4.436852e+00
-5.112186e+00
-5.825386e+00
-6.575009e+00
-7.361900e+00
-8.185407e+00
-9.044466e+00
-9.939519e+00
-1.086984e+01
-1.183512e+01
-1.283641e+01
-1.387372e+01
-1.494689e+01
-1.605720e+01
-1.720335e+01
-1.837554e+01
-1.955776e+01
-2.073422e+01
-2.189093e+01
-2.301560e+01
-2.409914e+01
-2.513841e+01
-2.613901e+01
0.000000e+00
-1.655977e-01
-4.655096e-01
-8.238345e-01
-1.234726e+00
-1.684521e+00
-2.176340e+00
-2.704333e+00
-3.268709e+00
-3.870888e+00
-4.509331e+00
-5.185227e+00
-5.898676e+00
-6.648741e+00
-7.435906e+00
-8.259423e+00
-9.118391e+00
-1.001286e+01
-1.094203e+01
-1.190568e+01
-1.290470e+01
-1.393934e+01
-1.501019e+01
-1.611847e+01
-1.726059e+01
-1.842452e+01
-1.959497e+01
-2.075828e+01
-2.190204e+01
-2.301524e+01
-2.409062e+01
-2.512871e+01
-2.614349e+01
0.000000e+00
-2.640769e-01
-5.485217e-01
-9.105266e-01
-1.318231e+00
-1.768667e+00
-2.260819e+00
-2.787749e+00
-3.352920e+00
-3.954868e+00
-4.592965e+00
-5.269237e+00
-5.982255e+00
-6.732090e+00
-7.519192e+00
-8.342116e+00
-9.200702e+00
-1.009477e+01
-1.102323e+01
-1.198638e+01
-1.298482e+01
-1.401841e+01