TITLE = "Solution"
VARIABLES = x, y, u, v, psiu, psiv, t, stress
ZONE T="structure" N=561 E=512 F=FEBLOCK ET=QUADRILATERAL VARLOCATION=([7,8]=cellcentered)
0.000000e+00
6.250000e+00
1.250000e+01
1.875000e+01
2.500000e+01
3.125000e+01
3.750000e+01
4.375000e+01
5.000000e+01
5.625000e+01
6.250000e+01
6.875000e+01
7.500000e+01
8.125000e+01
8.750000e+01
9.375000e+01
1.000000e+02
1.062500e+02
1.125000e+02
1.187500e+02
1.250000e+02
1.312500e+02
1.375000e+02
1.437500e+02
1.500000e+02
1.562500e+02
1.625000e+02
1.687500e+02
1.750000e+02
1.812500e+02
1.875000e+02
1.937500e+02
2.000000e+02
0.000000e+00
6.250000e+00
1.250000e+01
1.875000e+01
2.500000e+01
3.125000e+01
3.750000e+01
4.375000e+01
5.000000e+01
5.625000e+01
6.250000e+01
6.875000e+01
7.500000e+01
8.125000e+01
8.750000e+01
9.375000e+01
1.000000e+02
1.062500e+02
1.125000e+02
1.187500e+02
1.250000e+02
1.312500e+02
1.375000e+02
1.437500e+02
1.500000e+02
1.562500e+02
1.625000e+02
1.687500e+02
1.750000e+02
1.812500e+02
1.875000e+02
1.937500e+02
2.000000e+02
0.000000e+00
6.250000e+00
1.250000e+01
1.875000e+01
2.500000e+01
3.125000e+01
3.750000e+01
4.375000e+01
5.000000e+01
5.625000e+01
6.250000e+01
6.875000e+01
7.500000e+01
8.125000e+01
8.750000e+01
9.375000e+01
1.000000e+02
1.062500e+02
1.125000e+02
1.187500e+02
1.250000e+02
1.312500e+02
1.375000e+02
1.437500e+02
1.500000e+02
1.562500e+02
1.625000e+02
1.687500e+02
1.750000e+02
1.812500e+02
1.875000e+02
1.937500e+02
2.000000e+02
0.000000e+00
6.250000e+00
1.250000e+01
1.875000e+01
2.500000e+01
3.125000e+01
3.750000e+01
4.375000e+01
5.000000e+01
5.625000e+01
6.250000e+01
6.875000e+01
7.500000e+01
8.125000e+01
8.750000e+01
9.375000e+01
1.000000e+02
1.062500e+02
1.125000e+02
1.187500e+02
1.250000e+02
1.312500e+02
1.375000e+02
1.437500e+02
1.500000e+02
1.562500e+02
1.625000e+02
1.687500e+02
1.750000e+02
1.812500e+02
1.875000e+02
1.937500e+02
2.000000e+02
0.000000e+00
6.250000e+00
1.250000e+01
1.875000e+01
2.500000e+01
3.125000e+01
3.750000e+01
4.375000e+01
5.000000e+01
5.625000e+01
6.250000e+01
6.875000e+01
7.500000e+01
8.125000e+01
8.750000e+01
9.375000e+01
1.000000e+02
1.062500e+02
1.125000e+02
1.187500e+02
1.250000e+02
1.312500e+02
1.375000e+02
1.437500e+02
1.500000e+02
1.562500e+02
1.625000e+02
1.687500e+02
1.750000e+02
1.812500e+02
1.875000e+02
1.937500e+02
2.000000e+02
0.000000e+00
6.250000e+00
1.250000e+01
1.875000e+01
2.500000e+01
3.125000e+01
3.750000e+01
4.375000e+01
5.000000e+01
5.625000e+01
6.250000e+01
6.875000e+01
7.500000e+01
8.125000e+01
8.750000e+01
9.375000e+01
1.000000e+02
1.062500e+02
1.125000e+02
1.187500e+02
1.250000e+02
1.312500e+02
1.375000e+02
1.437500e+02
1.500000e+02
1.562500e+02
1.625000e+02
1.687500e+02
1.750000e+02
1.812500e+02
1.875000e+02
1.937500e+02
2.000000e+02
0.000000e+00
6.250000e+00
1.250000e+01
1.875000e+01
2.500000e+01
3.125000e+01
3.750000e+01
4.375000e+01
5.000000e+01
5.625000e+01
6.250000e+01
6.875000e+01
7.500000e+01
8.125000e+01
8.750000e+01
9.375000e+01
1.000000e+02
1.062500e+02
1.125000e+02
1.187500e+02
1.250000e+02
1.312500e+02
1.375000e+02
1.437500e+02
1.500000e+02
1.562500e+02
1.625000e+02
1.687500e+02
1.750000e+02
1.812500e+02
1.875000e+02
1.937500e+02
2.000000e+02
0.000000e+00
6.250000e+00
1.250000e+01
1.875000e+01
2.500000e+01
3.125000e+01
3.750000e+01
4.375000e+01
5.000000e+01
5.625000e+01
6.250000e+01
6.875000e+01
7.500000e+01
8.125000e+01
8.750000e+01
9.375000e+01
1.000000e+02
1.062500e+02
1.125000e+02
1.187500e+02
1.250000e+02
1.312500e+02
1.375000e+02
1.437500e+02
1.500000e+02
1.562500e+02
1.625000e+02
1.687500e+02
1.750000e+02
1.812500e+02
1.875000e+02
1.937500e+02
2.000000e+02
0.000000e+00
6.250000e+00
1.250000e+01
1.875000e+01
2.500000e+01
3.125000e+01
3.750000e+01
4.375000e+01
5.000000e+01
5.625000e+01
6.250000e+01
6.875000e+01
7.500000e+01
8.125000e+01
8.750000e+01
9.375000e+01
1.000000e+02
1.062500e+02
1.125000e+02
1.187500e+02
1.250000e+02
1.312500e+02
1.375000e+02
1.437500e+02
1.500000e+02
1.562500e+02
1.625000e+02
1.687500e+02
1.750000e+02
1.812500e+02
1.875000e+02
1.937500e+02
2.000000e+02
0.000000e+00
6.250000e+00
1.250000e+01
1.875000e+01
2.500000e+01
3.125000e+01
3.750000e+01
4.375000e+01
5.000000e+01
5.625000e+01
6.250000e+01
6.875000e+01
7.500000e+01
8.125000e+01
8.750000e+01
9.375000e+01
1.000000e+02
1.062500e+02
1.125000e+02
1.187500e+02
1.250000e+02
1.312500e+02
1.375000e+02
1.437500e+02
1.500000e+02
1.562500e+02
1.625000e+02
1.687500e+02
1.750000e+02
1.812500e+02
1.875000e+02
1.937500e+02
2.000000e+02
0.000000e+00
6.250000e+00
1.250000e+01
1.875000e+01
2.500000e+01
3.125000e+01
3.750000e+01
4.375000e+01
5.000000e+01
5.625000e+01
6.250000e+01
6.875000e+01
7.500000e+01
8.125000e+01
8.750000e+01
9.375000e+01
1.000000e+02
1.062500e+02
1.125000e+02
1.187500e+02
1.250000e+02
1.312500e+02
1.375000e+02
1.437500e+02
1.500000e+02
1.562500e+02
1.625000e+02
1.687500e+02
1.750000e+02
1.812500e+02
1.875000e+02
1.937500e+02
2.000000e+02
0.000000e+00
6.250000e+00
1.250000e+01
1.875000e+01
2.500000e+01
3.125000e+01
3.750000e+01
4.375000e+01
5.000000e+01
5.625000e+01
6.250000e+01
6.875000e+01
7.500000e+01
8.125000e+01
8.750000e+01
9.375000e+01
1.000000e+02
1.062500e+02
1.125000e+02
1.187500e+02
1.250000e+02
1.312500e+02
1.375000e+02
1.437500e+02
1.500000e+02
1.562500e+02
1.625000e+02
1.687500e+02
1.750000e+02
1.812500e+02
1.875000e+02
1.937500e+02
2.000000e+02
0.000000e+00
6.250000e+00
1.250000e+01
1.875000e+01
2.500000e+01
3.125000e+01
3.750000e+01
4.375000e+01
5.000000e+01
5.625000e+01
6.250000e+01
6.875000e+01
7.500000e+01
8.125000e+01
8.750000e+01
9.375000e+01
1.000000e+02
1.062500e+02
1.125000e+02
1.187500e+02
1.250000e+02
1.312500e+02
1.375000e+02
1.437500e+02
1.500000e+02
1.562500e+02
1.625000e+02
1.687500e+02
1.750000e+02
1.812500e+02
1.875000e+02
1.937500e+02
2.000000e+02
0.000000e+00
6.250000e+00
1.250000e+01
1.875000e+01
2.500000e+01
3.125000e+01
3.750000e+01
4.375000e+01
5.000000e+01
5.625000e+01
6.250000e+01
6.875000e+01
7.500000e+01
8.125000e+01
8.750000e+01
9.375000e+01
1.000000e+02
1.062500e+02
1.125000e+02
1.187500e+02
1.250000e+02
1.312500e+02
1.375000e+02
1.437500e+02
1.500000e+02
1.562500e+02
1.625000e+02
1.687500e+02
1.750000e+02
1.812500e+02
1.875000e+02
1.937500e+02
2.000000e+02
0.000000e+00
6.250000e+00
1.250000e+01
1.875000e+01
2.500000e+01
3.125000e+01
3.750000e+01
4.375000e+01
5.000000e+01
5.625000e+01
6.250000e+01
6.875000e+01
7.500000e+01
8.125000e+01
8.750000e+01
9.375000e+01
1.000000e+02
1.062500e+02
1.125000e+02
1.187500e+02
1.250000e+02
1.312500e+02
1.375000e+02
1.437500e+02
1.500000e+02
1.562500e+02
1.625000e+02
1.687500e+02
1.750000e+02
1.812500e+02
1.875000e+02
1.937500e+02
2.000000e+02
0.000000e+00
6.250000e+00
1.250000e+01
1.875000e+01
2.500000e+01
3.125000e+01
3.750000e+01
4.375000e+01
5.000000e+01
5.625000e+01
6.250000e+01
6.875000e+01
7.500000e+01
8.125000e+01
8.750000e+01
9.375000e+01
1.000000e+02
1.062500e+02
1.125000e+02
1.187500e+02
1.250000e+02
1.312500e+02
1.375000e+02
1.437500e+02
1.500000e+02
1.562500e+02
1.625000e+02
1.687500e+02
1.750000e+02
1.812500e+02
1.875000e+02
1.937500e+02
2.000000e+02
0.000000e+00
6.250000e+00
1.250000e+01
1.875000e+01
2.500000e+01
3.125000e+01
3.750000e+01
4.375000e+01
5.000000e+01
5.625000e+01
6.250000e+01
6.875000e+01
7.500000e+01
8.125000e+01
8.750000e+01
9.375000e+01
1.000000e+02
1.062500e+02
1.125000e+02
1.187500e+02
1.250000e+02
1.312500e+02
1.375000e+02
1.437500e+02
1.500000e+02
1.562500e+02
1.625000e+02
1.687500e+02
1.750000e+02
1.812500e+02
1.875000e+02
1.937500e+02
2.000000e+02
0.000000e+00
0.000000e+00
0.000000e+00
0.000000e+00
0.000000e+00
0.000000e+00
0.000000e+00
0.000000e+00
0.000000e+00
0.000000e+00
0.000000e+00
0.000000e+00
0.000000e+00
0.000000e+00
0.000000e+00
0.000000e+00
0.000000e+00
0.000000e+00
0.000000e+00
0.000000e+00
0.000000e+00
0.000000e+00
0.000000e+00
0.000000e+00
0.000000e+00
0.000000e+00
0.000000e+00
0.000000e+00
0.000000e+00
0.000000e+00
0.000000e+00
0.000000e+00
0.000000e+00
6.250000e+00
6.250000e+00
6.250000e+00
6.250000e+00
6.250000e+00
6.250000e+00
6.250000e+00
6.250000e+00
6.250000e+00
6.250000e+00
6.250000e+00
6.250000e+00
6.250000e+00
6.250000e+00
6.250000e+00
6.250000e+00
6.250000e+00
6.250000e+00
6.250000e+00
6.250000e+00
6.250000e+00
6.250000e+00
6.250000e+00
6.250000e+00
6.250000e+00
6.250000e+00
6.250000e+00
6.250000e+00
6.250000e+00
6.250000e+00
6.250000e+00
6.250000e+00
6.250000e+00
1.250000e+01
1.250000e+01
1.250000e+01
1.250000e+01
1.250000e+01
1.250000e+01
1.250000e+01
1.250000e+01
1.250000e+01
1.250000e+01
1.250000e+01
1.250000e+01
1.250000e+01
1.250000e+01
1.250000e+01
1.250000e+01
1.250000e+01
1.250000e+01
1.250000e+01
1.250000e+01
1.250000e+01
1.250000e+01
1.250000e+01
1.250000e+01
1.250000e+01
1.250000e+01
1.250000e+01
1.250000e+01
1.250000e+01
1.250000e+01
1.250000e+01
1.250000e+01
1.250000e+01
1.875000e+01
1.875000e+01
1.875000e+01
1.875000e+01
1.875000e+01
1.875000e+01
1.875000e+01
1.875000e+01
1.875000e+01
1.875000e+01
1.875000e+01
1.875000e+01
1.875000e+01
1.875000e+01
1.875000e+01
1.875000e+01
1.875000e+01
1.875000e+01
1.875000e+01
1.875000e+01
1.875000e+01
1.875000e+01
1.875000e+01
1.875000e+01
1.875000e+01
1.875000e+01
1.875000e+01
1.875000e+01
1.875000e+01
1.875000e+01
1.875000e+01
1.875000e+01
1.875000e+01
2.500000e+01
2.500000e+01
2.500000e+01
2.500000e+01
2.500000e+01
2.500000e+01
2.500000e+01
2.500000e+01
2.500000e+01
2.500000e+01
2.500000e+01
2.500000e+01
2.500000e+01
2.500000e+01
2.500000e+01
2.500000e+01
2.500000e+01
2.500000e+01
2.500000e+01
2.500000e+01
2.500000e+01
2.500000e+01
2.500000e+01
2.500000e+01
2.500000e+01
2.500000e+01
2.500000e+01
2.500000e+01
2.500000e+01
2.500000e+01
2.500000e+01
2.500000e+01
2.500000e+01
3.125000e+01
3.125000e+01
3.125000e+01
3.125000e+01
3.125000e+01
3.125000e+01
3.125000e+01
3.125000e+01
3.125000e+01
3.125000e+01
3.125000e+01
3.125000e+01
3.125000e+01
3.125000e+01
3.125000e+01
3.125000e+01
3.125000e+01
3.125000e+01
3.125000e+01
3.125000e+01
3.125000e+01
3.125000e+01
3.125000e+01
3.125000e+01
3.125000e+01
3.125000e+01
3.125000e+01
3.125000e+01
3.125000e+01
3.125000e+01
3.125000e+01
3.125000e+01
3.125000e+01
3.750000e+01
3.750000e+01
3.750000e+01
3.750000e+01
3.750000e+01
3.750000e+01
3.750000e+01
3.750000e+01
3.750000e+01
3.750000e+01
3.750000e+01
3.750000e+01
3.750000e+01
3.750000e+01
3.750000e+01
3.750000e+01
3.750000e+01
3.750000e+01
3.750000e+01
3.750000e+01
3.750000e+01
3.750000e+01
3.750000e+01
3.750000e+01
3.750000e+01
3.750000e+01
3.750000e+01
3.750000e+01
3.750000e+01
3.750000e+01
3.750000e+01
3.750000e+01
3.750000e+01
4.375000e+01
4.375000e+01
4.375000e+01
4.375000e+01
4.375000e+01
4.375000e+01
4.375000e+01
4.375000e+01
4.375000e+01
4.375000e+01
4.375000e+01
4.375000e+01
4.375000e+01
4.375000e+01
4.375000e+01
4.375000e+01
4.375000e+01
4.375000e+01
4.375000e+01
4.375000e+01
4.375000e+01
4.375000e+01
4.375000e+01
4.375000e+01
4.375000e+01
4.375000e+01
4.375000e+01
4.375000e+01
4.375000e+01
4.375000e+01
4.375000e+01
4.375000e+01
4.375000e+01
5.000000e+01
5.000000e+01
5.000000e+01
5.000000e+01
5.000000e+01
5.000000e+01
5.000000e+01
5.000000e+01
5.000000e+01
5.000000e+01
5.000000e+01
5.000000e+01
5.000000e+01
5.000000e+01
5.000000e+01
5.000000e+01
5.000000e+01
5.000000e+01
5.000000e+01
5.000000e+01
5.000000e+01
5.000000e+01
5.000000e+01
5.000000e+01
5.000000e+01
5.000000e+01
5.000000e+01
5.000000e+01
5.000000e+01
5.000000e+01
5.000000e+01
5.000000e+01
5.000000e+01
5.625000e+01
5.625000e+01
5.625000e+01
5.625000e+01
5.625000e+01
5.625000e+01
5.625000e+01
5.625000e+01
5.625000e+01
5.625000e+01
5.625000e+01
5.625000e+01
5.625000e+01
5.625000e+01
5.625000e+01
5.625000e+01
5.625000e+01
5.625000e+01
5.625000e+01
5.625000e+01
5.625000e+01
5.625000e+01
5.625000e+01
5.625000e+01
5.625000e+01
5.625000e+01
5.625000e+01
5.625000e+01
5.625000e+01
5.625000e+01
5.625000e+01
5.625000e+01
5.625000e+01
6.250000e+01
6.250000e+01
6.250000e+01
6.250000e+01
6.250000e+01
6.250000e+01
6.250000e+01
6.250000e+01
6.250000e+01
6.250000e+01
6.250000e+01
6.250000e+01
6.250000e+01
6.250000e+01
6.250000e+01
6.250000e+01
6.250000e+01
6.250000e+01
6.250000e+01
6.250000e+01
6.250000e+01
6.250000e+01
6.250000e+01
6.250000e+01
6.250000e+01
6.250000e+01
6.250000e+01
6.250000e+01
6.250000e+01
6.250000e+01
6.250000e+01
6.250000e+01
6.250000e+01
6.875000e+01
6.875000e+01
6.875000e+01
6.875000e+01
6.875000e+01
6.875000e+01
6.875000e+01
6.875000e+01
6.875000e+01
6.875000e+01
6.875000e+01
6.875000e+01
6.875000e+01
6.875000e+01
6.875000e+01
6.875000e+01
6.875000e+01
6.875000e+01
6.875000e+01
6.875000e+01
6.875000e+01
6.875000e+01
6.875000e+01
6.875000e+01
6.875000e+01
6.875000e+01
6.875000e+01
6.875000e+01
6.875000e+01
6.875000e+01
6.875000e+01
6.875000e+01
6.875000e+01
7.500000e+01
7.500000e+01
7.500000e+01
7.500000e+01
7.500000e+01
7.500000e+01
7.500000e+01
7.500000e+01
7.500000e+01
7.500000e+01
7.500000e+01
7.500000e+01
7.500000e+01
7.500000e+01
7.500000e+01
7.500000e+01
7.500000e+01
7.500000e+01
7.500000e+01
7.500000e+01
7.500000e+01
7.500000e+01
7.500000e+01
7.500000e+01
7.500000e+01
7.500000e+01
7.500000e+01
7.500000e+01
7.500000e+01
7.500000e+01
7.500000e+01
7.500000e+01
7.500000e+01
8.125000e+01
8.125000e+01
8.125000e+01
8.125000e+01
8.125000e+01
8.125000e+01
8.125000e+01
8.125000e+01
8.125000e+01
8.125000e+01
8.125000e+01
8.125000e+01
8.125000e+01
8.125000e+01
8.125000e+01
8.125000e+01
8.125000e+01
8.125000e+01
8.125000e+01
8.125000e+01
8.125000e+01
8.125000e+01
8.125000e+01
8.125000e+01
8.125000e+01
8.125000e+01
8.125000e+01
8.125000e+01
8.125000e+01
8.125000e+01
8.125000e+01
8.125000e+01
8.125000e+01
8.750000e+01
8.750000e+01
8.750000e+01
8.750000e+01
8.750000e+01
8.750000e+01
8.750000e+01
8.750000e+01
8.750000e+01
8.750000e+01
8.750000e+01
8.750000e+01
8.750000e+01
8.750000e+01
8.750000e+01
8.750000e+01
8.750000e+01
8.750000e+01
8.750000e+01
8.750000e+01
8.750000e+01
8.750000e+01
8.750000e+01
8.750000e+01
8.750000e+01
8.750000e+01
8.750000e+01
8.750000e+01
8.750000e+01
8.750000e+01
8.750000e+01
8.750000e+01
8.750000e+01
9.375000e+01
9.375000e+01
9.375000e+01
9.375000e+01
9.375000e+01
9.375000e+01
9.375000e+01
9.375000e+01
9.375000e+01
9.375000e+01
9.375000e+01
9.375000e+01
9.375000e+01
9.375000e+01
9.375000e+01
9.375000e+01
9.375000e+01
9.375000e+01
9.375000e+01
9.375000e+01
9.375000e+01
9.375000e+01
9.375000e+01
9.375000e+01
9.375000e+01
9.375000e+01
9.375000e+01
9.375000e+01
9.375000e+01
9.375000e+01
9.375000e+01
9.375000e+01
9.375000e+01
1.000000e+02
1.000000e+02
1.000000e+02
1.000000e+02
1.000000e+02
1.000000e+02
1.000000e+02
1.000000e+02
1.000000e+02
1.000000e+02
1.000000e+02
1.000000e+02
1.000000e+02
1.000000e+02
1.000000e+02
1.000000e+02
1.000000e+02
1.000000e+02
1.000000e+02
1.000000e+02
1.000000e+02
1.000000e+02
1.000000e+02
1.000000e+02
1.000000e+02
1.000000e+02
1.000000e+02
1.000000e+02
1.000000e+02
1.000000e+02
1.000000e+02
1.000000e+02
1.000000e+02
0.000000e+00
-1.226215e-01
-2.224765e-01
-3.149802e-01
-4.037655e-01
-4.895086e-01
-5.723797e-01
-6.523701e-01
-7.294283e-01
-8.034975e-01
-8.745307e-01
-9.424951e-01
-1.007374e+00
-1.069165e+00
-1.127882e+00
-1.183557e+00
-1.236238e+00
-1.285998e+00
-1.332938e+00
-1.377191e+00
-1.418937e+00
-1.458416e+00
-1.495940e+00
-1.531928e+00
-1.566938e+00
-1.601729e+00
-1.637357e+00
-1.675325e+00
-1.717841e+00
-1.768150e+00
-1.830463e+00
-1.904714e+00
-1.950026e+00
0.000000e+00
-8.221216e-02
-1.710480e-01
-2.548103e-01
-3.344307e-01
-4.106666e-01
-4.839185e-01
-5.543616e-01
-6.220649e-01
-6.870504e-01
-7.493219e-01
-8.088789e-01
-8.657236e-01
-9.198649e-01
-9.713204e-01
-1.020119e+00
-1.066301e+00
-1.109924e+00
-1.151063e+00
-1.189816e+00
-1.226309e+00
-1.260699e+00
-1.293183e+00
-1.323999e+00
-1.353435e+00
-1.381819e+00
-1.409499e+00
-1.436763e+00
-1.463607e+00
-1.489158e+00
-1.510448e+00
-1.522893e+00
-1.540218e+00
0.000000e+00
-6.520880e-02
-1.342468e-01
-2.045408e-01
-2.728509e-01
-3.386495e-01
-4.018931e-01
-4.626406e-01
-5.209449e-01
-5.768419e-01
-6.303548e-01
-6.814998e-01
-7.302905e-01
-7.767411e-01
-8.208685e-01
-8.626938e-01
-9.022442e-01
-9.395534e-01
-9.746634e-01
-1.007624e+00
-1.038493e+00
-1.067333e+00
-1.094205e+00
-1.119157e+00
-1.142198e+00
-1.163255e+00
-1.182088e+00
-1.198141e+00
-1.210330e+00
-1.216894e+00
-1.216321e+00
-1.212638e+00
-1.232869e+00
0.000000e+00
-5.173678e-02
-1.063307e-01
-1.624215e-01
-2.183851e-01
-2.729974e-01
-3.257901e-01
-3.765948e-01
-4.253653e-01
-4.720991e-01
-5.168077e-01
-5.595055e-01
-6.002067e-01
-6.389237e-01
-6.756677e-01
-7.104488e-01
-7.432765e-01
-7.741591e-01
-8.031027e-01
-8.301090e-01
-8.551710e-01
-8.782658e-01
-8.993422e-01
-9.183020e-01
-9.349702e-01
-9.490528e-01
-9.600837e-01
-9.673892e-01
-9.701795e-01
-9.681107e-01
-9.630840e-01
-9.627844e-01
-9.820599e-01
0.000000e+00
-4.015525e-02
-8.222449e-02
-1.256393e-01
-1.694096e-01
-2.126460e-01
-2.547517e-01
-2.954244e-01
-3.345262e-01
-3.720039e-01
-4.078432e-01
-4.420456e-01
-4.746173e-01
-5.055634e-01
-5.348859e-01
-5.625818e-01
-5.886425e-01
-6.130522e-01
-6.357855e-01
-6.568042e-01
-6.760520e-01
-6.934465e-01
-7.088687e-01
-7.221493e-01
-7.330536e-01
-7.412731e-01
-7.464457e-01
-7.482608e-01
-7.467733e-01
-7.431321e-01
-7.407696e-01
-7.462246e-01
-7.626690e-01
0.000000e+00
-2.951213e-02
-6.028901e-02
-9.205579e-02
-1.242642e-01
-1.563131e-01
-1.877253e-01
-2.181904e-01
-2.475377e-01
-2.756842e-01
-3.025945e-01
-3.282562e-01
-3.526645e-01
-3.758149e-01
-3.976985e-01
-4.182997e-01
-4.375937e-01
-4.555453e-01
-4.721059e-01
-4.872107e-01
-5.007746e-01
-5.126874e-01
-5.228102e-01
-5.309731e-01
-5.369823e-01
-5.406492e-01
-5.418660e-01
-5.407749e-01
-5.380847e-01
-5.355247e-01
-5.361474e-01
-5.431019e-01
-5.567098e-01
0.000000e+00
-1.942271e-02
-3.961397e-02
-6.044644e-02
-8.162334e-02
-1.027884e-01
-1.236224e-01
-1.438927e-01
-1.634536e-01
-1.822244e-01
-2.001645e-01
-2.172533e-01
-2.334774e-01
-2.488232e-01
-2.632721e-01
-2.767976e-01
-2.893631e-01
-3.009203e-01
-3.114071e-01
-3.207463e-01
-3.288440e-01
-3.355904e-01
-3.408629e-01
-3.445371e-01
-3.465114e-01
-3.467566e-01
-3.454071e-01
-3.429096e-01
-3.402144e-01
-3.389075e-01
-3.409451e-01
-3.477164e-01
-3.587018e-01
0.000000e+00
-9.647260e-03
-1.965941e-02
-2.998516e-02
-4.049421e-02
-5.102061e-02
-6.140677e-02
-7.152928e-02
-8.130473e-02
-9.068212e-02
-9.963119e-02
-1.081319e-01
-1.161667e-01
-1.237156e-01
-1.307530e-01
-1.372448e-01
-1.431476e-01
-1.484068e-01
-1.529562e-01
-1.567184e-01
-1.596065e-01
-1.615289e-01
-1.623998e-01
-1.621577e-01
-1.607979e-01
-1.584240e-01
-1.553233e-01
-1.520561e-01
-1.495196e-01
-1.488839e-01
-1.512748e-01
-1.571822e-01
-1.658991e-01
0.000000e+00
-1.543493e-05
-3.348611e-05
-5.314879e-05
-7.338379e-05
-9.278885e-05
-1.092491e-04
-1.195492e-04
-1.189197e-04
-1.004920e-04
-5.463930e-05
3.180587e-05
1.764585e-04
4.023911e-04
7.391984e-04
1.224026e-03
1.902400e-03
2.828608e-03
4.065211e-03
5.681084e-03
7.747036e-03
1.032770e-02
1.346785e-02
1.717089e-02
2.136747e-02
2.587379e-02
3.034485e-02
3.424030e-02
3.684084e-02
3.736850e-02
3.524556e-02
3.043733e-02
2.370295e-02
0.000000e+00
9.618204e-03
1.959624e-02
2.988469e-02
4.035516e-02
5.084429e-02
6.119839e-02
7.130005e-02
8.107477e-02
9.048437e-02
9.951664e-02
1.081762e-01
1.164788e-01
1.244478e-01
1.321132e-01
1.395116e-01
1.466854e-01
1.536835e-01
1.605592e-01
1.673674e-01
1.741589e-01
1.809712e-01
1.878139e-01
1.946492e-01
2.013658e-01
2.077518e-01
2.134731e-01
2.180747e-01
2.210316e-01
2.218688e-01
2.203531e-01
2.167004e-01
2.117021e-01
0.000000e+00
1.939902e-02
3.956210e-02
6.036336e-02
8.150744e-02
1.026400e-01
1.234450e-01
1.436944e-01
1.632496e-01
1.820404e-01
2.000405e-01
2.172493e-01
2.336807e-01
2.493565e-01
2.643043e-01
2.785558e-01
2.921465e-01
3.051153e-01
3.175022e-01
3.293457e-01
3.406764e-01
3.515086e-01
3.618277e-01
3.715741e-01
3.806252e-01
3.887805e-01
3.957563e-01
4.012046e-01
4.047707e-01
4.061966e-01
4.054636e-01
4.029361e-01
3.994477e-01
0.000000e+00
2.949712e-02
6.025552e-02
9.200119e-02
1.241866e-01
1.562118e-01
1.876013e-01
2.180476e-01
2.473845e-01
2.755354e-01
3.024743e-01
3.282015e-01
3.527300e-01
3.760785e-01
3.982690e-01
4.193248e-01
4.392707e-01
4.581319e-01
4.759325e-01
4.926930e-01
5.084252e-01
5.231254e-01
5.367650e-01
5.492798e-01
5.605591e-01
5.704391e-01
5.787068e-01
5.851235e-01
5.894750e-01
5.916555e-01
5.917782e-01
5.902955e-01
5.880908e-01
0.000000e+00
4.015173e-02
8.221557e-02
1.256232e-01
1.693845e-01
2.126104e-01
2.547047e-01
2.953658e-01
3.344572e-01
3.719277e-01
4.077658e-01
4.419773e-01
4.745743e-01
5.055702e-01
5.349778e-01
5.628089e-01
5.890739e-01
6.137813e-01
6.369369e-01
6.585418e-01
6.785896e-01
6.970616e-01
7.139224e-01
7.291137e-01
7.425502e-01
7.541190e-01
7.636878e-01
7.711246e-01
7.763365e-01
7.793308e-01
7.803021e-01
7.797454e-01
7.785840e-01
0.000000e+00
5.174670e-02
1.063509e-01
1.624515e-01
2.184241e-01
2.730443e-01
3.258433e-01
3.766517e-01
4.254217e-01
4.721483e-01
5.168396e-01
5.595053e-01
6.001530e-01
6.387869e-01
6.754075e-01
7.100118e-01
7.425928e-01
7.731399e-01
8.016380e-01
8.280666e-01
8.523993e-01
8.746019e-01
8.946323e-01
9.124400e-01
9.279681e-01
9.411586e-01
9.519619e-01
9.603537e-01
9.663597e-01
9.700922e-01
9.718090e-01
9.720137e-01
9.716284e-01
0.000000e+00
6.523262e-02
1.342976e-01
2.046203e-01
2.729605e-01
3.387904e-01
4.020657e-01
4.628428e-01
5.211710e-01
5.770804e-01
6.305854e-01
6.816897e-01
7.303896e-01
7.766754e-01
8.205324e-01
8.619404e-01
9.008738e-01
9.373006e-01
9.711823e-01
1.002474e+00
1.031123e+00
1.057075e+00
1.080273e+00
1.100665e+00
1.118213e+00
1.132903e+00
1.144761e+00
1.153872e+00
1.160392e+00
1.164568e+00
1.166754e+00
1.167466e+00
1.167551e+00
0.000000e+00
8.224778e-02
1.711258e-01
2.549352e-01
3.346088e-01
4.109039e-01
4.842201e-01
5.547304e-01
6.224994e-01
6.875420e-01
7.498503e-01
8.094065e-01
8.661879e-01
9.201679e-01
9.713156e-01
1.019594e+00
1.064960e+00
1.107358e+00
1.146726e+00
1.182989e+00
1.216064e+00
1.245861e+00
1.272292e+00
1.295281e+00
1.314782e+00
1.330794e+00
1.343394e+00
1.352759e+00
1.359192e+00
1.363134e+00
1.365148e+00
1.365878e+00
1.366057e+00
0.000000e+00
1.226606e-01
2.225674e-01
3.151356e-01
4.039977e-01
4.898302e-01
5.728037e-01
6.529089e-01
7.300917e-01
8.042895e-01
8.754445e-01
9.435067e-01
1.008432e+00
1.070178e+00
1.128701e+00
1.183953e+00
1.235874e+00
1.284392e+00
1.329418e+00
1.370846e+00
1.408549e+00
1.442391e+00
1.472224e+00
1.497914e+00
1.519353e+00
1.536498e+00
1.549411e+00
1.558306e+00
1.563609e+00
1.565998e+00
1.566432e+00
1.566072e+00
1.565870e+00
0.000000e+00
-7.577750e-02
-1.322515e-01
-1.938827e-01
-2.625153e-01
-3.400432e-01
-4.270051e-01
-5.235526e-01
-6.295898e-01
-7.448897e-01
-8.691472e-01
-1.002011e+00
-1.143101e+00
-1.292024e+00
-1.448377e+00
-1.611754e+00
-1.781752e+00
-1.957975e+00
-2.140039e+00
-2.327585e+00
-2.520287e+00
-2.717868e+00
-2.920133e+00
-3.127005e+00
-3.338586e+00
-3.555267e+00
-3.777910e+00
-4.008197e+00
-4.249341e+00
-4.507705e+00
-4.797022e+00
-5.149687e+00
-5.636879e+00
0.000000e+00
-4.709324e-02
-1.062071e-01
-1.682525e-01
-2.378393e-01
-3.162075e-01
-4.040129e-01
-5.014043e-01
-6.082940e-01
-7.244552e-01
-8.495806e-01
-9.833161e-01
-1.125279e+00
-1.275072e+00
-1.432289e+00
-1.596519e+00
-1.767355e+00
-1.944394e+00
-2.127246e+00
-2.315542e+00
-2.508944e+00
-2.707162e+00
-2.909983e+00
-3.117307e+00
-3.329208e+00
-3.546041e+00
-3.768624e+00
-3.998586e+00
-4.239072e+00
-4.496341e+00
-4.783425e+00
-5.128241e+00
-5.583406e+00
0.000000e+00
-3.459314e-02
-8.562521e-02
-1.468234e-01
-2.165301e-01
-2.954741e-01
-3.839712e-01
-4.821038e-01
-5.897540e-01
-7.066841e-01
-8.325817e-01
-9.670897e-01
-1.109824e+00
-1.260386e+00
-1.418366e+00
-1.583355e+00
-1.754941e+00
-1.932720e+00
-2.116300e+00
-2.305307e+00
-2.499401e+00
-2.698292e+00
-2.901763e+00
-3.109717e+00
-3.322240e+00
-3.539705e+00
-3.762967e+00
-3.993694e+00
-4.234996e+00
-4.492508e+00
-4.775859e+00
-5.096421e+00
-5.452008e+00
0.000000e+00
-2.770170e-02
-7.250869e-02
-1.304431e-01
-1.992530e-01
-2.781713e-01
-3.670459e-01
-4.657272e-01
-5.740032e-01
-6.915921e-01
-8.181619e-01
-9.533465e-01
-1.096759e+00
-1.247998e+00
-1.406658e+00
-1.572327e+00
-1.744596e+00
-1.923064e+00
-2.107339e+00
-2.297051e+00
-2.491864e+00
-2.691495e+00
-2.895739e+00
-3.104513e+00
-3.317923e+00
-3.536363e+00
-3.760677e+00
-3.992403e+00
-4.234085e+00
-4.489439e+00
-4.762017e+00
-5.049497e+00
-5.317110e+00
0.000000e+00
-2.344146e-02
-6.393128e-02
-1.188115e-01
-1.860522e-01
-2.644524e-01
-3.533595e-01
-4.523607e-01
-5.610986e-01
-6.792180e-01
-8.063499e-01
-9.421111e-01
-1.086108e+00
-1.237938e+00
-1.397196e+00
-1.563474e+00
-1.736368e+00
-1.915479e+00
-2.100421e+00
-2.290833e+00
-2.486384e+00
-2.686799e+00
-2.891883e+00
-3.101559e+00
-3.315923e+00
-3.535323e+00
-3.760445e+00
-3.992398e+00
-4.232644e+00
-4.482364e+00
-4.740364e+00
-4.997171e+00
-5.230237e+00
0.000000e+00
-2.073068e-02
-5.830354e-02
-1.108072e-01
-1.765342e-01
-2.541995e-01
-3.429127e-01
-4.420400e-01
-5.510819e-01
-6.695988e-01
-7.971760e-01
-9.334076e-01
-1.077890e+00
-1.230220e+00
-1.389993e+00
-1.556807e+00
-1.730261e+00
-1.909963e+00
-2.095534e+00
-2.286616e+00
-2.482886e+00
-2.684069e+00
-2.889963e+00
-3.100470e+00
-3.315627e+00
-3.535641e+00
-3.760898e+00
-3.991887e+00
-4.228875e+00
-4.471062e+00
-4.714758e+00
-4.951254e+00
-5.167408e+00
0.000000e+00
-1.904590e-02
-5.474541e-02
-1.056044e-01
-1.701579e-01
-2.471537e-01
-3.356032e-01
-4.347424e-01
-5.439639e-01
-6.627559e-01
-7.906613e-01
-9.272525e-01
-1.072116e+00
-1.224848e+00
-1.385045e+00
-1.552310e+00
-1.726247e+00
-1.906470e+00
-2.092605e+00
-2.284295e+00
-2.481214e+00
-2.683078e+00
-2.889656e+00
-3.100795e+00
-3.316420e+00
-3.536536e+00
-3.761163e+00
-3.990170e+00
-4.222900e+00
-4.457455e+00
-4.689779e+00
-4.913171e+00
-5.119423e+00
0.000000e+00
-1.812007e-02
-5.277108e-02
-1.026725e-01
-1.665017e-01
-2.430497e-01
-3.312961e-01
-4.304133e-01
-5.397317e-01
-6.586939e-01
-7.868144e-01
-9.236506e-01
-1.068784e+00
-1.221809e+00
-1.382328e+00
-1.549945e+00
-1.724271e+00
-1.904924e+00
-2.091528e+00
-2.283725e+00
-2.481178e+00
-2.683574e+00
-2.890640e+00
-3.102136e+00
-3.317850e+00
-3.537559e+00
-3.760941e+00
-3.987387e+00
-4.215687e+00
-4.443596e+00
-4.667453e+00
-4.882219e+00
-5.082292e+00
0.000000e+00
-1.782177e-02
-5.213413e-02
-1.017223e-01
-1.653102e-01
-2.417066e-01
-3.298852e-01
-4.290008e-01
-5.383653e-01
-6.574070e-01
-7.856324e-01
-9.225960e-01
-1.067880e+00
-1.221081e+00
-1.381805e+00
-1.549661e+00
-1.724263e+00
-1.905229e+00
-2.092182e+00
-2.284753e+00
-2.482585e+00
-2.685330e+00
-2.892652e+00
-3.104216e+00
-3.319665e+00
-3.538570e+00
-3.760337e+00
-3.984051e+00
-4.208266e+00
-4.430775e+00
-4.648479e+00
-4.857534e+00
-5.053835e+00
0.000000e+00
-1.811146e-02
-5.275915e-02
-1.026623e-01
-1.664987e-01
-2.430608e-01
-3.313302e-01
-4.304825e-01
-5.398520e-01
-6.588860e-01
-7.871051e-01
-9.240736e-01
-1.069381e+00
-1.222630e+00
-1.383432e+00
-1.551398e+00
-1.726145e+00
-1.907288e+00
-2.094446e+00
-2.287234e+00
-2.485270e+00
-2.688163e+00
-2.895511e+00
-3.106883e+00
-3.321789e+00
-3.539634e+00
-3.759636e+00
-3.980723e+00
-4.201407e+00
-4.419677e+00
-4.632980e+00
-4.838341e+00
-5.032626e+00
0.000000e+00
-1.902939e-02
-5.472251e-02
-1.055846e-01
-1.701518e-01
-2.471745e-01
-3.356680e-01
-4.348745e-01
-5.441936e-01
-6.631233e-01
-7.912178e-01
-9.280627e-01
-1.073261e+00
-1.226422e+00
-1.387163e+00
-1.555098e+00
-1.729844e+00
-1.911014e+00
-2.098215e+00
-2.291050e+00
-2.489104e+00
-2.691947e+00
-2.899111e+00
-3.110078e+00
-3.324252e+00
-3.540911e+00
-3.759161e+00
-3.977870e+00
-4.195608e+00
-4.410615e+00
-4.620825e+00
-4.823945e+00
-5.017570e+00
0.000000e+00
-2.070772e-02
-5.827172e-02
-1.107797e-01
-1.765254e-01
-2.542279e-01
-3.430025e-01
-4.422234e-01
-5.514018e-01
-6.701111e-01
-7.979526e-01
-9.345394e-01
-1.079489e+00
-1.232422e+00
-1.392957e+00
-1.560711e+00
-1.735301e+00
-1.916333e+00
-2.103408e+00
-2.296109e+00
-2.493999e+00
-2.696603e+00
-2.903402e+00
-3.113806e+00
-3.327134e+00
-3.542582e+00
-3.759192e+00
-3.975826e+00
-4.191155e+00
-4.403675e+00
-4.611750e+00
-4.813677e+00
-5.007700e+00
0.000000e+00
-2.341444e-02
-6.389385e-02
-1.187790e-01
-1.860422e-01
-2.644868e-01
-3.534678e-01
-4.525820e-01
-5.614849e-01
-6.798369e-01
-8.072884e-01
-9.434793e-01
-1.088041e+00
-1.240601e+00
-1.400781e+00
-1.568200e+00
-1.742470e+00
-1.923196e+00
-2.109968e+00
-2.302356e+00
-2.499899e+00
-2.702091e+00
-2.908370e+00
-3.118093e+00
-3.330521e+00
-3.544794e+00
-3.759925e+00
-3.974795e+00
-4.188180e+00
-4.398804e+00
-4.605416e+00
-4.806859e+00
-5.002052e+00
0.000000e+00
-2.767395e-02
-7.247032e-02
-1.304102e-01
-1.992445e-01
-2.782118e-01
-3.671680e-01
-4.659743e-01
-5.744328e-01
-6.922790e-01
-8.192023e-01
-9.548618e-01
-1.098899e+00
-1.250944e+00
-1.410621e+00
-1.577547e+00
-1.751335e+00
-1.931582e+00
-2.117873e+00
-2.309767e+00
-2.506785e+00
-2.708401e+00
-2.914021e+00
-3.122970e+00
-3.334469e+00
-3.547632e+00
-3.761456e+00
-3.974851e+00
-4.186679e+00
-4.395849e+00
-4.601434e+00
-4.802788e+00
-4.999591e+00
0.000000e+00
-3.456900e-02
-8.559170e-02
-1.467958e-01
-2.165279e-01
-2.955233e-01
-3.841061e-01
-4.823696e-01
-5.902105e-01
-7.074088e-01
-8.336740e-01
-9.686747e-01
-1.112056e+00
-1.263450e+00
-1.422479e+00
-1.588761e+00
-1.761903e+00
-1.941501e+00
-2.127135e+00
-2.318355e+00
-2.514673e+00
-2.715549e+00
-2.920373e+00
-3.128452e+00
-3.338992e+00
-3.551095e+00
-3.763761e+00
-3.975923e+00
-4.186510e+00
-4.394556e+00
-4.599369e+00
-4.800742e+00
-4.999160e+00
0.000000e+00
-4.707784e-02
-1.061845e-01
-1.682365e-01
-2.378501e-01
-3.162715e-01
-4.041649e-01
-5.016896e-01
-6.087722e-01
-7.252032e-01
-8.506964e-01
-9.849223e-01
-1.127526e+00
-1.278139e+00
-1.436384e+00
-1.601874e+00
-1.774216e+00
-1.953002e+00
-2.137808e+00
-2.328177e+00
-2.523618e+00
-2.723584e+00
-2.927461e+00
-3.134550e+00
-3.344058e+00
-3.555093e+00
-3.766673e+00
-3.977759e+00
-4.187330e+00
-4.394496e+00
-4.598697e+00
-4.800003e+00
-4.999526e+00
0.000000e+00
-7.577561e-02
-1.322443e-01
-1.938848e-01
-2.625469e-01
-3.401310e-01
-4.271837e-01
-5.238670e-01
-6.300983e-01
-7.456672e-01
-8.702879e-01
-1.003631e+00
-1.145344e+00
-1.295055e+00
-1.452387e+00
-1.616951e+00
-1.788351e+00
-1.966175e+00
-2.149992e+00
-2.339345e+00
-2.533734e+00
-2.732612e+00
-2.935362e+00