TITLE = "Solution"
VARIABLES = x, y, u, v, psiu, psiv, t, stress
ZONE T="structure" N=561 E=512 F=FEBLOCK ET=QUADRILATERAL VARLOCATION=([7,8]=cellcentered)
0.000000e+00
6.250000e+00
1.250000e+01
1.875000e+01
2.500000e+01
3.125000e+01
3.750000e+01
4.375000e+01
5.000000e+01
5.625000e+01
6.250000e+01
6.875000e+01
7.500000e+01
8.125000e+01
8.750000e+01
9.375000e+01
1.000000e+02
1.062500e+02
1.125000e+02
1.187500e+02
1.250000e+02
1.312500e+02
1.375000e+02
1.437500e+02
1.500000e+02
1.562500e+02
1.625000e+02
1.687500e+02
1.750000e+02
1.812500e+02
1.875000e+02
1.937500e+02
2.000000e+02
0.000000e+00
6.250000e+00
1.250000e+01
1.875000e+01
2.500000e+01
3.125000e+01
3.750000e+01
4.375000e+01
5.000000e+01
5.625000e+01
6.250000e+01
6.875000e+01
7.500000e+01
8.125000e+01
8.750000e+01
9.375000e+01
1.000000e+02
1.062500e+02
1.125000e+02
1.187500e+02
1.250000e+02
1.312500e+02
1.375000e+02
1.437500e+02
1.500000e+02
1.562500e+02
1.625000e+02
1.687500e+02
1.750000e+02
1.812500e+02
1.875000e+02
1.937500e+02
2.000000e+02
0.000000e+00
6.250000e+00
1.250000e+01
1.875000e+01
2.500000e+01
3.125000e+01
3.750000e+01
4.375000e+01
5.000000e+01
5.625000e+01
6.250000e+01
6.875000e+01
7.500000e+01
8.125000e+01
8.750000e+01
9.375000e+01
1.000000e+02
1.062500e+02
1.125000e+02
1.187500e+02
1.250000e+02
1.312500e+02
1.375000e+02
1.437500e+02
1.500000e+02
1.562500e+02
1.625000e+02
1.687500e+02
1.750000e+02
1.812500e+02
1.875000e+02
1.937500e+02
2.000000e+02
0.000000e+00
6.250000e+00
1.250000e+01
1.875000e+01
2.500000e+01
3.125000e+01
3.750000e+01
4.375000e+01
5.000000e+01
5.625000e+01
6.250000e+01
6.875000e+01
7.500000e+01
8.125000e+01
8.750000e+01
9.375000e+01
1.000000e+02
1.062500e+02
1.125000e+02
1.187500e+02
1.250000e+02
1.312500e+02
1.375000e+02
1.437500e+02
1.500000e+02
1.562500e+02
1.625000e+02
1.687500e+02
1.750000e+02
1.812500e+02
1.875000e+02
1.937500e+02
2.000000e+02
0.000000e+00
6.250000e+00
1.250000e+01
1.875000e+01
2.500000e+01
3.125000e+01
3.750000e+01
4.375000e+01
5.000000e+01
5.625000e+01
6.250000e+01
6.875000e+01
7.500000e+01
8.125000e+01
8.750000e+01
9.375000e+01
1.000000e+02
1.062500e+02
1.125000e+02
1.187500e+02
1.250000e+02
1.312500e+02
1.375000e+02
1.437500e+02
1.500000e+02
1.562500e+02
1.625000e+02
1.687500e+02
1.750000e+02
1.812500e+02
1.875000e+02
1.937500e+02
2.000000e+02
0.000000e+00
6.250000e+00
1.250000e+01
1.875000e+01
2.500000e+01
3.125000e+01
3.750000e+01
4.375000e+01
5.000000e+01
5.625000e+01
6.250000e+01
6.875000e+01
7.500000e+01
8.125000e+01
8.750000e+01
9.375000e+01
1.000000e+02
1.062500e+02
1.125000e+02
1.187500e+02
1.250000e+02
1.312500e+02
1.375000e+02
1.437500e+02
1.500000e+02
1.562500e+02
1.625000e+02
1.687500e+02
1.750000e+02
1.812500e+02
1.875000e+02
1.937500e+02
2.000000e+02
0.000000e+00
6.250000e+00
1.250000e+01
1.875000e+01
2.500000e+01
3.125000e+01
3.750000e+01
4.375000e+01
5.000000e+01
5.625000e+01
6.250000e+01
6.875000e+01
7.500000e+01
8.125000e+01
8.750000e+01
9.375000e+01
1.000000e+02
1.062500e+02
1.125000e+02
1.187500e+02
1.250000e+02
1.312500e+02
1.375000e+02
1.437500e+02
1.500000e+02
1.562500e+02
1.625000e+02
1.687500e+02
1.750000e+02
1.812500e+02
1.875000e+02
1.937500e+02
2.000000e+02
0.000000e+00
6.250000e+00
1.250000e+01
1.875000e+01
2.500000e+01
3.125000e+01
3.750000e+01
4.375000e+01
5.000000e+01
5.625000e+01
6.250000e+01
6.875000e+01
7.500000e+01
8.125000e+01
8.750000e+01
9.375000e+01
1.000000e+02
1.062500e+02
1.125000e+02
1.187500e+02
1.250000e+02
1.312500e+02
1.375000e+02
1.437500e+02
1.500000e+02
1.562500e+02
1.625000e+02
1.687500e+02
1.750000e+02
1.812500e+02
1.875000e+02
1.937500e+02
2.000000e+02
0.000000e+00
6.250000e+00
1.250000e+01
1.875000e+01
2.500000e+01
3.125000e+01
3.750000e+01
4.375000e+01
5.000000e+01
5.625000e+01
6.250000e+01
6.875000e+01
7.500000e+01
8.125000e+01
8.750000e+01
9.375000e+01
1.000000e+02
1.062500e+02
1.125000e+02
1.187500e+02
1.250000e+02
1.312500e+02
1.375000e+02
1.437500e+02
1.500000e+02
1.562500e+02
1.625000e+02
1.687500e+02
1.750000e+02
1.812500e+02
1.875000e+02
1.937500e+02
2.000000e+02
0.000000e+00
6.250000e+00
1.250000e+01
1.875000e+01
2.500000e+01
3.125000e+01
3.750000e+01
4.375000e+01
5.000000e+01
5.625000e+01
6.250000e+01
6.875000e+01
7.500000e+01
8.125000e+01
8.750000e+01
9.375000e+01
1.000000e+02
1.062500e+02
1.125000e+02
1.187500e+02
1.250000e+02
1.312500e+02
1.375000e+02
1.437500e+02
1.500000e+02
1.562500e+02
1.625000e+02
1.687500e+02
1.750000e+02
1.812500e+02
1.875000e+02
1.937500e+02
2.000000e+02
0.000000e+00
6.250000e+00
1.250000e+01
1.875000e+01
2.500000e+01
3.125000e+01
3.750000e+01
4.375000e+01
5.000000e+01
5.625000e+01
6.250000e+01
6.875000e+01
7.500000e+01
8.125000e+01
8.750000e+01
9.375000e+01
1.000000e+02
1.062500e+02
1.125000e+02
1.187500e+02
1.250000e+02
1.312500e+02
1.375000e+02
1.437500e+02
1.500000e+02
1.562500e+02
1.625000e+02
1.687500e+02
1.750000e+02
1.812500e+02
1.875000e+02
1.937500e+02
2.000000e+02
0.000000e+00
6.250000e+00
1.250000e+01
1.875000e+01
2.500000e+01
3.125000e+01
3.750000e+01
4.375000e+01
5.000000e+01
5.625000e+01
6.250000e+01
6.875000e+01
7.500000e+01
8.125000e+01
8.750000e+01
9.375000e+01
1.000000e+02
1.062500e+02
1.125000e+02
1.187500e+02
1.250000e+02
1.312500e+02
1.375000e+02
1.437500e+02
1.500000e+02
1.562500e+02
1.625000e+02
1.687500e+02
1.750000e+02
1.812500e+02
1.875000e+02
1.937500e+02
2.000000e+02
0.000000e+00
6.250000e+00
1.250000e+01
1.875000e+01
2.500000e+01
3.125000e+01
3.750000e+01
4.375000e+01
5.000000e+01
5.625000e+01
6.250000e+01
6.875000e+01
7.500000e+01
8.125000e+01
8.750000e+01
9.375000e+01
1.000000e+02
1.062500e+02
1.125000e+02
1.187500e+02
1.250000e+02
1.312500e+02
1.375000e+02
1.437500e+02
1.500000e+02
1.562500e+02
1.625000e+02
1.687500e+02
1.750000e+02
1.812500e+02
1.875000e+02
1.937500e+02
2.000000e+02
0.000000e+00
6.250000e+00
1.250000e+01
1.875000e+01
2.500000e+01
3.125000e+01
3.750000e+01
4.375000e+01
5.000000e+01
5.625000e+01
6.250000e+01
6.875000e+01
7.500000e+01
8.125000e+01
8.750000e+01
9.375000e+01
1.000000e+02
1.062500e+02
1.125000e+02
1.187500e+02
1.250000e+02
1.312500e+02
1.375000e+02
1.437500e+02
1.500000e+02
1.562500e+02
1.625000e+02
1.687500e+02
1.750000e+02
1.812500e+02
1.875000e+02
1.937500e+02
2.000000e+02
0.000000e+00
6.250000e+00
1.250000e+01
1.875000e+01
2.500000e+01
3.125000e+01
3.750000e+01
4.375000e+01
5.000000e+01
5.625000e+01
6.250000e+01
6.875000e+01
7.500000e+01
8.125000e+01
8.750000e+01
9.375000e+01
1.000000e+02
1.062500e+02
1.125000e+02
1.187500e+02
1.250000e+02
1.312500e+02
1.375000e+02
1.437500e+02
1.500000e+02
1.562500e+02
1.625000e+02
1.687500e+02
1.750000e+02
1.812500e+02
1.875000e+02
1.937500e+02
2.000000e+02
0.000000e+00
6.250000e+00
1.250000e+01
1.875000e+01
2.500000e+01
3.125000e+01
3.750000e+01
4.375000e+01
5.000000e+01
5.625000e+01
6.250000e+01
6.875000e+01
7.500000e+01
8.125000e+01
8.750000e+01
9.375000e+01
1.000000e+02
1.062500e+02
1.125000e+02
1.187500e+02
1.250000e+02
1.312500e+02
1.375000e+02
1.437500e+02
1.500000e+02
1.562500e+02
1.625000e+02
1.687500e+02
1.750000e+02
1.812500e+02
1.875000e+02
1.937500e+02
2.000000e+02
0.000000e+00
6.250000e+00
1.250000e+01
1.875000e+01
2.500000e+01
3.125000e+01
3.750000e+01
4.375000e+01
5.000000e+01
5.625000e+01
6.250000e+01
6.875000e+01
7.500000e+01
8.125000e+01
8.750000e+01
9.375000e+01
1.000000e+02
1.062500e+02
1.125000e+02
1.187500e+02
1.250000e+02
1.312500e+02
1.375000e+02
1.437500e+02
1.500000e+02
1.562500e+02
1.625000e+02
1.687500e+02
1.750000e+02
1.812500e+02
1.875000e+02
1.937500e+02
2.000000e+02
0.000000e+00
0.000000e+00
0.000000e+00
0.000000e+00
0.000000e+00
0.000000e+00
0.000000e+00
0.000000e+00
0.000000e+00
0.000000e+00
0.000000e+00
0.000000e+00
0.000000e+00
0.000000e+00
0.000000e+00
0.000000e+00
0.000000e+00
0.000000e+00
0.000000e+00
0.000000e+00
0.000000e+00
0.000000e+00
0.000000e+00
0.000000e+00
0.000000e+00
0.000000e+00
0.000000e+00
0.000000e+00
0.000000e+00
0.000000e+00
0.000000e+00
0.000000e+00
0.000000e+00
6.250000e+00
6.250000e+00
6.250000e+00
6.250000e+00
6.250000e+00
6.250000e+00
6.250000e+00
6.250000e+00
6.250000e+00
6.250000e+00
6.250000e+00
6.250000e+00
6.250000e+00
6.250000e+00
6.250000e+00
6.250000e+00
6.250000e+00
6.250000e+00
6.250000e+00
6.250000e+00
6.250000e+00
6.250000e+00
6.250000e+00
6.250000e+00
6.250000e+00
6.250000e+00
6.250000e+00
6.250000e+00
6.250000e+00
6.250000e+00
6.250000e+00
6.250000e+00
6.250000e+00
1.250000e+01
1.250000e+01
1.250000e+01
1.250000e+01
1.250000e+01
1.250000e+01
1.250000e+01
1.250000e+01
1.250000e+01
1.250000e+01
1.250000e+01
1.250000e+01
1.250000e+01
1.250000e+01
1.250000e+01
1.250000e+01
1.250000e+01
1.250000e+01
1.250000e+01
1.250000e+01
1.250000e+01
1.250000e+01
1.250000e+01
1.250000e+01
1.250000e+01
1.250000e+01
1.250000e+01
1.250000e+01
1.250000e+01
1.250000e+01
1.250000e+01
1.250000e+01
1.250000e+01
1.875000e+01
1.875000e+01
1.875000e+01
1.875000e+01
1.875000e+01
1.875000e+01
1.875000e+01
1.875000e+01
1.875000e+01
1.875000e+01
1.875000e+01
1.875000e+01
1.875000e+01
1.875000e+01
1.875000e+01
1.875000e+01
1.875000e+01
1.875000e+01
1.875000e+01
1.875000e+01
1.875000e+01
1.875000e+01
1.875000e+01
1.875000e+01
1.875000e+01
1.875000e+01
1.875000e+01
1.875000e+01
1.875000e+01
1.875000e+01
1.875000e+01
1.875000e+01
1.875000e+01
2.500000e+01
2.500000e+01
2.500000e+01
2.500000e+01
2.500000e+01
2.500000e+01
2.500000e+01
2.500000e+01
2.500000e+01
2.500000e+01
2.500000e+01
2.500000e+01
2.500000e+01
2.500000e+01
2.500000e+01
2.500000e+01
2.500000e+01
2.500000e+01
2.500000e+01
2.500000e+01
2.500000e+01
2.500000e+01
2.500000e+01
2.500000e+01
2.500000e+01
2.500000e+01
2.500000e+01
2.500000e+01
2.500000e+01
2.500000e+01
2.500000e+01
2.500000e+01
2.500000e+01
3.125000e+01
3.125000e+01
3.125000e+01
3.125000e+01
3.125000e+01
3.125000e+01
3.125000e+01
3.125000e+01
3.125000e+01
3.125000e+01
3.125000e+01
3.125000e+01
3.125000e+01
3.125000e+01
3.125000e+01
3.125000e+01
3.125000e+01
3.125000e+01
3.125000e+01
3.125000e+01
3.125000e+01
3.125000e+01
3.125000e+01
3.125000e+01
3.125000e+01
3.125000e+01
3.125000e+01
3.125000e+01
3.125000e+01
3.125000e+01
3.125000e+01
3.125000e+01
3.125000e+01
3.750000e+01
3.750000e+01
3.750000e+01
3.750000e+01
3.750000e+01
3.750000e+01
3.750000e+01
3.750000e+01
3.750000e+01
3.750000e+01
3.750000e+01
3.750000e+01
3.750000e+01
3.750000e+01
3.750000e+01
3.750000e+01
3.750000e+01
3.750000e+01
3.750000e+01
3.750000e+01
3.750000e+01
3.750000e+01
3.750000e+01
3.750000e+01
3.750000e+01
3.750000e+01
3.750000e+01
3.750000e+01
3.750000e+01
3.750000e+01
3.750000e+01
3.750000e+01
3.750000e+01
4.375000e+01
4.375000e+01
4.375000e+01
4.375000e+01
4.375000e+01
4.375000e+01
4.375000e+01
4.375000e+01
4.375000e+01
4.375000e+01
4.375000e+01
4.375000e+01
4.375000e+01
4.375000e+01
4.375000e+01
4.375000e+01
4.375000e+01
4.375000e+01
4.375000e+01
4.375000e+01
4.375000e+01
4.375000e+01
4.375000e+01
4.375000e+01
4.375000e+01
4.375000e+01
4.375000e+01
4.375000e+01
4.375000e+01
4.375000e+01
4.375000e+01
4.375000e+01
4.375000e+01
5.000000e+01
5.000000e+01
5.000000e+01
5.000000e+01
5.000000e+01
5.000000e+01
5.000000e+01
5.000000e+01
5.000000e+01
5.000000e+01
5.000000e+01
5.000000e+01
5.000000e+01
5.000000e+01
5.000000e+01
5.000000e+01
5.000000e+01
5.000000e+01
5.000000e+01
5.000000e+01
5.000000e+01
5.000000e+01
5.000000e+01
5.000000e+01
5.000000e+01
5.000000e+01
5.000000e+01
5.000000e+01
5.000000e+01
5.000000e+01
5.000000e+01
5.000000e+01
5.000000e+01
5.625000e+01
5.625000e+01
5.625000e+01
5.625000e+01
5.625000e+01
5.625000e+01
5.625000e+01
5.625000e+01
5.625000e+01
5.625000e+01
5.625000e+01
5.625000e+01
5.625000e+01
5.625000e+01
5.625000e+01
5.625000e+01
5.625000e+01
5.625000e+01
5.625000e+01
5.625000e+01
5.625000e+01
5.625000e+01
5.625000e+01
5.625000e+01
5.625000e+01
5.625000e+01
5.625000e+01
5.625000e+01
5.625000e+01
5.625000e+01
5.625000e+01
5.625000e+01
5.625000e+01
6.250000e+01
6.250000e+01
6.250000e+01
6.250000e+01
6.250000e+01
6.250000e+01
6.250000e+01
6.250000e+01
6.250000e+01
6.250000e+01
6.250000e+01
6.250000e+01
6.250000e+01
6.250000e+01
6.250000e+01
6.250000e+01
6.250000e+01
6.250000e+01
6.250000e+01
6.250000e+01
6.250000e+01
6.250000e+01
6.250000e+01
6.250000e+01
6.250000e+01
6.250000e+01
6.250000e+01
6.250000e+01
6.250000e+01
6.250000e+01
6.250000e+01
6.250000e+01
6.250000e+01
6.875000e+01
6.875000e+01
6.875000e+01
6.875000e+01
6.875000e+01
6.875000e+01
6.875000e+01
6.875000e+01
6.875000e+01
6.875000e+01
6.875000e+01
6.875000e+01
6.875000e+01
6.875000e+01
6.875000e+01
6.875000e+01
6.875000e+01
6.875000e+01
6.875000e+01
6.875000e+01
6.875000e+01
6.875000e+01
6.875000e+01
6.875000e+01
6.875000e+01
6.875000e+01
6.875000e+01
6.875000e+01
6.875000e+01
6.875000e+01
6.875000e+01
6.875000e+01
6.875000e+01
7.500000e+01
7.500000e+01
7.500000e+01
7.500000e+01
7.500000e+01
7.500000e+01
7.500000e+01
7.500000e+01
7.500000e+01
7.500000e+01
7.500000e+01
7.500000e+01
7.500000e+01
7.500000e+01
7.500000e+01
7.500000e+01
7.500000e+01
7.500000e+01
7.500000e+01
7.500000e+01
7.500000e+01
7.500000e+01
7.500000e+01
7.500000e+01
7.500000e+01
7.500000e+01
7.500000e+01
7.500000e+01
7.500000e+01
7.500000e+01
7.500000e+01
7.500000e+01
7.500000e+01
8.125000e+01
8.125000e+01
8.125000e+01
8.125000e+01
8.125000e+01
8.125000e+01
8.125000e+01
8.125000e+01
8.125000e+01
8.125000e+01
8.125000e+01
8.125000e+01
8.125000e+01
8.125000e+01
8.125000e+01
8.125000e+01
8.125000e+01
8.125000e+01
8.125000e+01
8.125000e+01
8.125000e+01
8.125000e+01
8.125000e+01
8.125000e+01
8.125000e+01
8.125000e+01
8.125000e+01
8.125000e+01
8.125000e+01
8.125000e+01
8.125000e+01
8.125000e+01
8.125000e+01
8.750000e+01
8.750000e+01
8.750000e+01
8.750000e+01
8.750000e+01
8.750000e+01
8.750000e+01
8.750000e+01
8.750000e+01
8.750000e+01
8.750000e+01
8.750000e+01
8.750000e+01
8.750000e+01
8.750000e+01
8.750000e+01
8.750000e+01
8.750000e+01
8.750000e+01
8.750000e+01
8.750000e+01
8.750000e+01
8.750000e+01
8.750000e+01
8.750000e+01
8.750000e+01
8.750000e+01
8.750000e+01
8.750000e+01
8.750000e+01
8.750000e+01
8.750000e+01
8.750000e+01
9.375000e+01
9.375000e+01
9.375000e+01
9.375000e+01
9.375000e+01
9.375000e+01
9.375000e+01
9.375000e+01
9.375000e+01
9.375000e+01
9.375000e+01
9.375000e+01
9.375000e+01
9.375000e+01
9.375000e+01
9.375000e+01
9.375000e+01
9.375000e+01
9.375000e+01
9.375000e+01
9.375000e+01
9.375000e+01
9.375000e+01
9.375000e+01
9.375000e+01
9.375000e+01
9.375000e+01
9.375000e+01
9.375000e+01
9.375000e+01
9.375000e+01
9.375000e+01
9.375000e+01
1.000000e+02
1.000000e+02
1.000000e+02
1.000000e+02
1.000000e+02
1.000000e+02
1.000000e+02
1.000000e+02
1.000000e+02
1.000000e+02
1.000000e+02
1.000000e+02
1.000000e+02
1.000000e+02
1.000000e+02
1.000000e+02
1.000000e+02
1.000000e+02
1.000000e+02
1.000000e+02
1.000000e+02
1.000000e+02
1.000000e+02
1.000000e+02
1.000000e+02
1.000000e+02
1.000000e+02
1.000000e+02
1.000000e+02
1.000000e+02
1.000000e+02
1.000000e+02
1.000000e+02
0.000000e+00
-4.234390e-01
-7.503371e-01
-1.072567e+00
-1.386602e+00
-1.686162e+00
-1.993417e+00
-2.293251e+00
-2.591258e+00
-2.892905e+00
-3.190948e+00
-3.489539e+00
-3.789399e+00
-4.087326e+00
-4.385994e+00
-4.685030e+00
-4.983019e+00
-5.281575e+00
-5.580410e+00
-5.879055e+00
-6.178265e+00
-6.477865e+00
-6.778448e+00
-7.080398e+00
-7.383644e+00
-7.691996e+00
-8.007478e+00
-8.327180e+00
-8.662954e+00
-9.044538e+00
-9.495944e+00
-9.907278e+00
-1.011470e+01
0.000000e+00
-2.351004e-01
-4.862903e-01
-7.478895e-01
-1.013641e+00
-1.269626e+00
-1.535968e+00
-1.797868e+00
-2.058491e+00
-2.322977e+00
-2.584387e+00
-2.846173e+00
-3.109169e+00
-3.370382e+00
-3.632115e+00
-3.894114e+00
-4.155018e+00
-4.416162e+00
-4.677272e+00
-4.937807e+00
-5.198317e+00
-5.458588e+00
-5.718974e+00
-5.979381e+00
-6.238925e+00
-6.499596e+00
-6.760968e+00
-7.017669e+00
-7.274437e+00
-7.538197e+00
-7.765766e+00
-7.857894e+00
-7.962793e+00
0.000000e+00
-1.370100e-01
-2.920613e-01
-4.861158e-01
-6.957056e-01
-9.043353e-01
-1.126812e+00
-1.348621e+00
-1.571235e+00
-1.797810e+00
-2.022644e+00
-2.248225e+00
-2.474999e+00
-2.700672e+00
-2.926841e+00
-3.153230e+00
-3.378799e+00
-3.604379e+00
-3.829607e+00
-4.053963e+00
-4.277666e+00
-4.500324e+00
-4.721740e+00
-4.941165e+00
-5.156856e+00
-5.367932e+00
-5.571347e+00
-5.760719e+00
-5.931670e+00
-6.072600e+00
-6.140724e+00
-6.142607e+00
-6.234785e+00
0.000000e+00
-8.808683e-02
-1.831506e-01
-3.149593e-01
-4.635286e-01
-6.242307e-01
-8.009440e-01
-9.806525e-01
-1.164680e+00
-1.353135e+00
-1.541454e+00
-1.731382e+00
-1.922585e+00
-2.113430e+00
-2.304894e+00
-2.496480e+00
-2.687504e+00
-2.878323e+00
-3.068368e+00
-3.257108e+00
-3.444350e+00
-3.629218e+00
-3.810610e+00
-3.986895e+00
-4.155508e+00
-4.313459e+00
-4.456269e+00
-4.577508e+00
-4.669431e+00
-4.720808e+00
-4.724659e+00
-4.734649e+00
-4.815728e+00
0.000000e+00
-8.498151e-02
-1.648761e-01
-2.616103e-01
-3.688916e-01
-4.915999e-01
-6.245032e-01
-7.631713e-01
-9.081575e-01
-1.055950e+00
-1.204951e+00
-1.355670e+00
-1.506958e+00
-1.658531e+00
-1.810440e+00
-1.962080e+00
-2.113294e+00
-2.263794e+00
-2.412908e+00
-2.560085e+00
-2.704531e+00
-2.844930e+00
-2.979634e+00
-3.106605e+00
-3.223253e+00
-3.326343e+00
-3.411728e+00
-3.474542e+00
-3.510255e+00
-3.517133e+00
-3.507296e+00
-3.534481e+00
-3.611527e+00
0.000000e+00
-6.981656e-02
-1.382567e-01
-2.094174e-01
-2.899119e-01
-3.776971e-01
-4.728877e-01
-5.745210e-01
-6.802029e-01
-7.886666e-01
-8.987450e-01
-1.009709e+00
-1.121443e+00
-1.233501e+00
-1.345481e+00
-1.457187e+00
-1.568223e+00
-1.678081e+00
-1.786156e+00
-1.891615e+00
-1.993380e+00
-2.090017e+00
-2.179723e+00
-2.260451e+00
-2.329885e+00
-2.385440e+00
-2.424383e+00
-2.444167e+00
-2.444083e+00
-2.428177e+00
-2.420662e+00
-2.452047e+00
-2.524616e+00
0.000000e+00
-4.878870e-02
-9.683270e-02
-1.463704e-01
-1.994633e-01
-2.573040e-01
-3.196463e-01
-3.859690e-01
-4.552027e-01
-5.261759e-01
-5.982215e-01
-6.709813e-01
-7.441372e-01
-8.173552e-01
-8.903002e-01
-9.626448e-01
-1.033994e+00
-1.103830e+00
-1.171497e+00
-1.236153e+00
-1.296707e+00
-1.351772e+00
-1.399687e+00
-1.438590e+00
-1.466550e+00
-1.481784e+00
-1.482818e+00
-1.468846e+00
-1.442049e+00
-1.411798e+00
-1.402707e+00
-1.435101e+00
-1.505883e+00
0.000000e+00
-2.545640e-02
-5.071822e-02
-7.644349e-02
-1.036391e-01
-1.328592e-01
-1.642062e-01
-1.973276e-01
-2.316535e-01
-2.666432e-01
-3.019513e-01
-3.373618e-01
-3.726387e-01
-4.075062e-01
-4.416906e-01
-4.748968e-01
-5.067633e-01
-5.368435e-01
-5.645764e-01
-5.892356e-01
-6.098823e-01
-6.253412e-01
-6.342167e-01
-6.349649e-01
-6.260107e-01
-6.059183e-01
-5.738494e-01
-5.313484e-01
-4.850625e-01
-4.471162e-01
-4.383409e-01
-4.718263e-01
-5.426128e-01
0.000000e+00
-1.412502e-03
-2.794198e-03
-4.105652e-03
-5.315238e-03
-6.389236e-03
-7.280752e-03
-7.918393e-03
-8.208441e-03
-8.050423e-03
-7.339558e-03
-5.954334e-03
-3.752130e-03
-5.702749e-04
3.780692e-03
9.524742e-03
1.692603e-02
2.630509e-02
3.806896e-02
5.274443e-02
7.100983e-02
9.372401e-02
1.219312e-01
1.568192e-01
1.995850e-01
2.510240e-01
3.104408e-01
3.734257e-01
4.304808e-01
4.685779e-01
4.732232e-01
4.375592e-01
3.693572e-01
0.000000e+00
2.271514e-02
4.530586e-02
6.851047e-02
9.340678e-02
1.206246e-01
1.503531e-01
1.823560e-01
2.162200e-01
2.515929e-01
2.883434e-01
3.264995e-01
3.660987e-01
4.071770e-01
4.498341e-01
4.942248e-01
5.405241e-01
5.889391e-01
6.397269e-01
6.931962e-01
7.497248e-01
8.097942e-01
8.739925e-01
9.429012e-01
1.016713e+00
1.094527e+00
1.173396e+00
1.247128e+00
1.306187e+00
1.339670e+00
1.339221e+00
1.304662e+00
1.246762e+00
0.000000e+00
4.627925e-02
9.189966e-02
1.391756e-01
1.902677e-01
2.464732e-01
3.076460e-01
3.733394e-01
4.425551e-01
5.142480e-01
5.879560e-01
6.635648e-01
7.410041e-01
8.202152e-01
9.012035e-01
9.840591e-01
1.068898e+00
1.155842e+00
1.245043e+00
1.336640e+00
1.430741e+00
1.527357e+00
1.626257e+00
1.726789e+00
1.827591e+00
1.926054e+00
2.017737e+00
2.096111e+00
2.153477e+00
2.183131e+00
2.182311e+00
2.154971e+00
2.112322e+00
0.000000e+00
6.764549e-02
1.339835e-01
2.032228e-01
2.820744e-01
3.686594e-01
4.632406e-01
5.649302e-01
6.713346e-01
7.812264e-01
8.936130e-01
1.008003e+00
1.124499e+00
1.242893e+00
1.363053e+00
1.485068e+00
1.608893e+00
1.734476e+00
1.861791e+00
1.990715e+00
2.120988e+00
2.251967e+00
2.382394e+00
2.510447e+00
2.633704e+00
2.748688e+00
2.850530e+00
2.933539e+00
2.992540e+00
3.024430e+00
3.029472e+00
3.012681e+00
2.985158e+00
0.000000e+00
8.315390e-02
1.613752e-01
2.564738e-01
3.624726e-01
4.843151e-01
6.169191e-01
7.560323e-01
9.022026e-01
1.051946e+00
1.203851e+00
1.358625e+00
1.515335e+00
1.673939e+00
1.834689e+00
1.997127e+00
2.161151e+00
2.326496e+00
2.492488e+00
2.658525e+00
2.823767e+00
2.986848e+00
3.146001e+00
3.299107e+00
3.443373e+00
3.574880e+00
3.688823e+00
3.780560e+00
3.846762e+00
3.886096e+00
3.899940e+00
3.893785e+00
3.879077e+00
0.000000e+00
8.665080e-02
1.803921e-01
3.108611e-01
4.583087e-01
6.182158e-01
7.944645e-01
9.741840e-01
1.158824e+00
1.348567e+00
1.539005e+00
1.732110e+00
1.927770e+00
2.124614e+00
2.323870e+00
2.525170e+00
2.727750e+00
2.931658e+00
3.135776e+00
3.338736e+00
3.539295e+00
3.735468e+00
3.925223e+00
4.106507e+00
4.275770e+00
4.427784e+00
4.557262e+00
4.660491e+00
4.735768e+00
4.783350e+00
4.805701e+00
4.808638e+00
4.803638e+00
0.000000e+00
1.361867e-01
2.904186e-01
4.835971e-01
6.923910e-01
9.004027e-01
1.122373e+00
1.343823e+00
1.566303e+00
1.793023e+00
2.018312e+00
2.244766e+00
2.473004e+00
2.700849e+00
2.930059e+00
3.160512e+00
3.391105e+00
3.622487e+00
3.853939e+00
4.084183e+00
4.312385e+00
4.536678e+00
4.755078e+00
4.965193e+00
5.161217e+00
5.334661e+00
5.478971e+00
5.591583e+00
5.673010e+00
5.725663e+00
5.753486e+00
5.762610e+00
5.763596e+00
0.000000e+00
2.350480e-01
4.861811e-01
7.476425e-01
1.013228e+00
1.269087e+00
1.535232e+00
1.796832e+00
2.057118e+00
2.321236e+00
2.582153e+00
2.843275e+00
3.105482e+00
3.365662e+00
3.626020e+00
3.886330e+00
4.145042e+00
4.403362e+00
4.661047e+00
4.917235e+00
5.171953e+00
5.423784e+00
5.670555e+00
5.908594e+00
6.128818e+00
6.319454e+00
6.473203e+00
6.588827e+00
6.668976e+00
6.718575e+00
6.744185e+00
6.753565e+00
6.755839e+00
0.000000e+00
4.241412e-01
7.517896e-01
1.074779e+00
1.389484e+00
1.689668e+00
1.997386e+00
2.297437e+00
2.595504e+00
2.897026e+00
3.194597e+00
3.492253e+00
3.790635e+00
4.086264e+00
4.381530e+00
4.675944e+00
4.967818e+00
5.258689e+00
5.548558e+00
5.836965e+00
6.124470e+00
6.409672e+00
6.689365e+00
6.957122e+00
7.199773e+00
7.403025e+00
7.559431e+00
7.668653e+00
7.734771e+00
7.765302e+00
7.771388e+00
7.767176e+00
7.764684e+00
0.000000e+00
-2.565824e-01
-5.227771e-01
-8.596770e-01
-1.240350e+00
-1.663258e+00
-2.128255e+00
-2.628512e+00
-3.166834e+00
-3.742009e+00
-4.352818e+00
-5.001132e+00
-5.686218e+00
-6.408095e+00
-7.167724e+00
-7.964680e+00
-8.799207e+00
-9.671891e+00
-1.058265e+01
-1.153184e+01
-1.251996e+01
-1.354736e+01
-1.461469e+01
-1.572252e+01
-1.687239e+01
-1.806729e+01
-1.931023e+01
-2.060776e+01
-2.197302e+01
-2.342096e+01
-2.497241e+01
-2.679053e+01
-2.934524e+01
0.000000e+00
-1.600108e-01
-4.401512e-01
-7.732820e-01
-1.156700e+00
-1.579219e+00
-2.043610e+00
-2.545070e+00
-3.082752e+00
-3.657896e+00
-4.269133e+00
-4.917057e+00
-5.602280e+00
-6.324325e+00
-7.083761e+00
-7.880875e+00
-8.715508e+00
-9.588117e+00
-1.049896e+01
-1.144820e+01
-1.243631e+01
-1.346367e+01
-1.453085e+01
-1.563867e+01
-1.678816e+01
-1.798204e+01
-1.922474e+01
-2.052162e+01
-2.188313e+01
-2.332797e+01
-2.489973e+01
-2.669942e+01
-2.897283e+01
0.000000e+00
-1.300460e-01
-3.825549e-01
-7.111886e-01
-1.091095e+00
-1.510511e+00
-1.973608e+00
-2.474278e+00
-3.011121e+00
-3.586069e+00
-4.197077e+00
-4.844699e+00
-5.529937e+00
-6.251932e+00
-7.011328e+00
-7.808585e+00
-8.643347e+00
-9.516131e+00
-1.042726e+01
-1.137681e+01
-1.236533e+01
-1.339311e+01
-1.446084e+01
-1.556953e+01
-1.672006e+01
-1.791544e+01
-1.916067e+01
-2.046083e+01
-2.182805e+01
-2.329412e+01
-2.489816e+01
-2.659288e+01
-2.836168e+01
0.000000e+00
-1.432061e-01
-3.687364e-01
-6.829767e-01
-1.050835e+00
-1.462801e+00
-1.921950e+00
-2.418954e+00
-2.954047e+00
-3.527996e+00
-4.137848e+00
-4.784951e+00
-5.469872e+00
-6.191603e+00
-6.951045e+00
-7.748434e+00
-8.583473e+00
-9.456783e+00
-1.036856e+01
-1.131897e+01
-1.230861e+01
-1.333781e+01
-1.440730e+01
-1.551824e+01
-1.667184e+01
-1.787129e+01
-1.912131e+01
-2.042766e+01
-2.180479e+01
-2.328628e+01
-2.488029e+01
-2.643915e+01
-2.785916e+01
0.000000e+00
-1.705167e-01
-3.906754e-01
-6.891793e-01
-1.040097e+00
-1.441907e+00
-1.891991e+00
-2.382761e+00
-2.914633e+00
-3.485848e+00
-4.093802e+00
-4.739858e+00
-5.423939e+00
-6.145405e+00
-6.904918e+00
-7.702496e+00
-8.538154e+00
-9.412382e+00
-1.032533e+01
-1.127732e+01
-1.226898e+01
-1.330073e+01
-1.437323e+01
-1.548760e+01
-1.664540e+01
-1.784963e+01
-1.910433e+01
-2.041495e+01
-2.179371e+01
-2.326313e+01
-2.479827e+01
-2.623506e+01
-2.749259e+01
0.000000e+00
-1.806674e-01
-4.092767e-01
-6.963302e-01
-1.038885e+00
-1.431902e+00
-1.873325e+00
-2.359305e+00
-2.887576e+00
-3.455943e+00
-4.062503e+00
-4.707442e+00
-5.390860e+00
-6.112354e+00
-6.872060e+00
-7.670147e+00
-8.506760e+00
-9.382227e+00
-1.029684e+01
-1.125103e+01
-1.224541e+01
-1.328048e+01
-1.435678e+01
-1.547514e+01
-1.663700e+01
-1.784474e+01
-1.910149e+01
-2.041032e+01
-2.177587e+01
-2.320881e+01
-2.465732e+01
-2.600702e+01
-2.717485e+01
0.000000e+00
-1.849547e-01
-4.174495e-01
-7.018032e-01
-1.038791e+00
-1.426476e+00
-1.862492e+00
-2.344738e+00
-2.870469e+00
-3.436830e+00
-4.042300e+00
-4.686659e+00
-5.369811e+00
-6.091506e+00
-6.851705e+00
-7.650582e+00
-8.488357e+00
-9.365312e+00
-1.028185e+01
-1.123850e+01
-1.223588e+01
-1.327444e+01
-1.435455e+01
-1.547661e+01
-1.664136e+01
-1.785007e+01
-1.910456e+01
-2.040414e+01
-2.174503e+01
-2.312758e+01
-2.449811e+01
-2.577586e+01
-2.688151e+01
0.000000e+00
-1.868806e-01
-4.209543e-01
-7.047184e-01
-1.039266e+00
-1.423918e+00
-1.857295e+00
-2.337551e+00
-2.861883e+00
-3.427346e+00
-4.032405e+00
-4.676742e+00
-5.360149e+00
-6.082346e+00
-6.843307e+00
-7.643207e+00
-8.482257e+00
-9.360761e+00
-1.027921e+01
-1.123820e+01
-1.223834e+01
-1.327998e+01
-1.436324e+01
-1.548797e+01
-1.665384e+01
-1.786052e+01
-1.910785e+01
-2.039179e+01
-2.170263e+01
-2.303291e+01
-2.433546e+01
-2.554613e+01
-2.659442e+01
0.000000e+00
-1.874302e-01
-4.220295e-01
-7.058041e-01
-1.039821e+00
-1.423784e+00
-1.856649e+00
-2.336687e+00
-2.861023e+00
-3.426699e+00
-4.032193e+00
-4.677158e+00
-5.361341e+00
-6.084441e+00
-6.846435e+00
-7.647501e+00
-8.487842e+00
-9.367784e+00
-1.028787e+01
-1.124874e+01
-1.225094e+01
-1.329474e+01
-1.437994e+01
-1.550569e+01
-1.667041e+01
-1.787202e+01
-1.910806e+01
-2.037226e+01
-2.165201e+01
-2.293216e+01
-2.417360e+01
-2.531999e+01
-2.631363e+01
0.000000e+00
-1.868962e-01
-4.211929e-01
-7.053496e-01
-1.040463e+00
-1.425888e+00
-1.860282e+00
-2.341796e+00
-2.867562e+00
-3.434583e+00
-4.041351e+00
-4.687580e+00
-5.373039e+00
-6.097415e+00
-6.860670e+00
-7.662969e+00
-8.504517e+00
-9.385652e+00
-1.030691e+01
-1.126891e+01
-1.227215e+01
-1.331676e+01
-1.440214e+01
-1.552669e+01
-1.668774e+01
-1.788181e+01
-1.910441e+01
-2.034732e+01
-2.159619e+01
-2.283096e+01
-2.401835e+01
-2.511220e+01
-2.606767e+01
0.000000e+00
-1.850164e-01
-4.179679e-01
-7.031169e-01
-1.041248e+00
-1.430474e+00
-1.868489e+00
-2.353192e+00
-2.881723e+00
-3.451125e+00
-4.059927e+00
-4.707968e+00
-5.395100e+00
-6.121005e+00
-6.885632e+00
-7.689129e+00
-8.531695e+00
-9.413655e+00
-1.033547e+01
-1.129766e+01
-1.230063e+01
-1.334433e+01
-1.442777e+01
-1.554884e+01
-1.670431e+01
-1.788973e+01
-1.909866e+01
-2.032087e+01
-2.154072e+01
-2.273703e+01
-2.388186e+01
-2.494127e+01
-2.588081e+01
0.000000e+00
-1.808181e-01
-4.101249e-01
-6.983857e-01
-1.042662e+00
-1.437981e+00
-1.882337e+00
-2.371876e+00
-2.904199e+00
-3.476975e+00
-4.088354e+00
-4.738592e+00
-5.427699e+00
-6.155175e+00
-6.921133e+00
-7.725686e+00
-8.568917e+00
-9.451166e+00
-1.037275e+01
-1.133401e+01
-1.233525e+01
-1.337622e+01
-1.445575e+01
-1.557184e+01
-1.672118e+01
-1.789831e+01
-1.909479e+01
-2.029843e+01
-2.149297e+01
-2.265890e+01
-2.377419e+01
-2.481479e+01
-2.575546e+01
0.000000e+00
-1.707961e-01
-3.918676e-01
-6.919725e-01
-1.045177e+00
-1.449991e+00
-1.903874e+00
-2.399174e+00
-2.936186e+00
-3.513057e+00
-4.127178e+00
-4.779945e+00
-5.471189e+00
-6.200128e+00
-6.967347e+00
-7.772747e+00
-8.616181e+00
-9.498052e+00
-1.041846e+01
-1.137759e+01
-1.237573e+01
-1.341252e+01
-1.448703e+01
-1.559791e+01
-1.674190e+01
-1.791221e+01
-1.909807e+01
-2.028563e+01
-2.145905e+01
-2.260179e+01
-2.369733e+01
-2.472959e+01
-2.568273e+01
0.000000e+00
-1.435570e-01
-3.701419e-01
-6.862893e-01
-1.056855e+00
-1.472387e+00
-1.936006e+00
-2.438241e+00
-2.979297e+00
-3.559904e+00
-4.177006e+00
-4.831966e+00
-5.525259e+00
-6.255667e+00
-7.023949e+00
-7.830089e+00
-8.673455e+00
-9.554441e+00
-1.047306e+01
-1.142930e+01
-1.242361e+01
-1.345579e+01
-1.452540e+01
-1.563188e+01
-1.677177e+01
-1.793630e+01
-1.911248e+01
-2.028577e+01
-2.144168e+01
-2.256659e+01
-2.364851e+01
-2.467828e+01
-2.565030e+01
0.000000e+00
-1.302344e-01
-3.838479e-01
-7.144674e-01
-1.097266e+00
-1.520470e+00
-1.988294e+00
-2.494487e+00
-3.037623e+00
-3.619672e+00
-4.238451e+00
-4.894514e+00
-5.588806e+00
-6.320198e+00
-7.089143e+00
-7.895752e+00
-8.739134e+00
-9.619441e+00
-1.053664e+01
-1.149053e+01
-1.248165e+01
-1.351013e+01
-1.457600e+01
-1.567897e+01
-1.681469e+01
-1.797252e+01
-1.913852e+01
-2.029873e+01
-2.144016e+01
-2.255122e+01
-2.362307e+01
-2.465230e+01
-2.564397e+01
0.000000e+00
-1.601203e-01
-4.413617e-01
-7.764828e-01
-1.162843e+00
-1.589218e+00
-2.058378e+00
-2.565430e+00
-3.109495e+00
-3.691842e+00
-4.310988e+00
-4.967515e+00
-5.661972e+00
-6.393616e+00
-7.162786e+00
-7.969370e+00
-8.812602e+00
-9.692486e+00
-1.060884e+01
-1.156145e+01
-1.255077e+01
-1.357710e+01
-1.464055e+01
-1.574011e+01
-1.686997e+01
-1.801882e+01
-1.917350e+01
-2.032137e+01
-2.145064e+01
-2.255083e+01
-2.361482e+01
-2.464285e+01
-2.564822e+01
0.000000e+00
-2.568374e-01
-5.240952e-01
-8.629794e-01
-1.246588e+00
-1.673347e+00
-2.143072e+00
-2.648887e+00
-3.193580e+00
-3.775918e+00
-4.394576e+00
-5.051422e+00
-5.745638e+00
-6.476952e+00
-7.246110e+00
-8.052268e+00
-8.895049e+00
-9.774627e+00
-1.069047e+01
-1.164250e+01
-1.263108e+01
-1.365616e+01