TITLE = "Solution"
VARIABLES = x, y, u, v, psiu, psiv, t, stress
ZONE T="structure" N=561 E=512 F=FEBLOCK ET=QUADRILATERAL VARLOCATION=([7,8]=cellcentered)
0.000000e+00
6.250000e+00
1.250000e+01
1.875000e+01
2.500000e+01
3.125000e+01
3.750000e+01
4.375000e+01
5.000000e+01
5.625000e+01
6.250000e+01
6.875000e+01
7.500000e+01
8.125000e+01
8.750000e+01
9.375000e+01
1.000000e+02
1.062500e+02
1.125000e+02
1.187500e+02
1.250000e+02
1.312500e+02
1.375000e+02
1.437500e+02
1.500000e+02
1.562500e+02
1.625000e+02
1.687500e+02
1.750000e+02
1.812500e+02
1.875000e+02
1.937500e+02
2.000000e+02
0.000000e+00
6.250000e+00
1.250000e+01
1.875000e+01
2.500000e+01
3.125000e+01
3.750000e+01
4.375000e+01
5.000000e+01
5.625000e+01
6.250000e+01
6.875000e+01
7.500000e+01
8.125000e+01
8.750000e+01
9.375000e+01
1.000000e+02
1.062500e+02
1.125000e+02
1.187500e+02
1.250000e+02
1.312500e+02
1.375000e+02
1.437500e+02
1.500000e+02
1.562500e+02
1.625000e+02
1.687500e+02
1.750000e+02
1.812500e+02
1.875000e+02
1.937500e+02
2.000000e+02
0.000000e+00
6.250000e+00
1.250000e+01
1.875000e+01
2.500000e+01
3.125000e+01
3.750000e+01
4.375000e+01
5.000000e+01
5.625000e+01
6.250000e+01
6.875000e+01
7.500000e+01
8.125000e+01
8.750000e+01
9.375000e+01
1.000000e+02
1.062500e+02
1.125000e+02
1.187500e+02
1.250000e+02
1.312500e+02
1.375000e+02
1.437500e+02
1.500000e+02
1.562500e+02
1.625000e+02
1.687500e+02
1.750000e+02
1.812500e+02
1.875000e+02
1.937500e+02
2.000000e+02
0.000000e+00
6.250000e+00
1.250000e+01
1.875000e+01
2.500000e+01
3.125000e+01
3.750000e+01
4.375000e+01
5.000000e+01
5.625000e+01
6.250000e+01
6.875000e+01
7.500000e+01
8.125000e+01
8.750000e+01
9.375000e+01
1.000000e+02
1.062500e+02
1.125000e+02
1.187500e+02
1.250000e+02
1.312500e+02
1.375000e+02
1.437500e+02
1.500000e+02
1.562500e+02
1.625000e+02
1.687500e+02
1.750000e+02
1.812500e+02
1.875000e+02
1.937500e+02
2.000000e+02
0.000000e+00
6.250000e+00
1.250000e+01
1.875000e+01
2.500000e+01
3.125000e+01
3.750000e+01
4.375000e+01
5.000000e+01
5.625000e+01
6.250000e+01
6.875000e+01
7.500000e+01
8.125000e+01
8.750000e+01
9.375000e+01
1.000000e+02
1.062500e+02
1.125000e+02
1.187500e+02
1.250000e+02
1.312500e+02
1.375000e+02
1.437500e+02
1.500000e+02
1.562500e+02
1.625000e+02
1.687500e+02
1.750000e+02
1.812500e+02
1.875000e+02
1.937500e+02
2.000000e+02
0.000000e+00
6.250000e+00
1.250000e+01
1.875000e+01
2.500000e+01
3.125000e+01
3.750000e+01
4.375000e+01
5.000000e+01
5.625000e+01
6.250000e+01
6.875000e+01
7.500000e+01
8.125000e+01
8.750000e+01
9.375000e+01
1.000000e+02
1.062500e+02
1.125000e+02
1.187500e+02
1.250000e+02
1.312500e+02
1.375000e+02
1.437500e+02
1.500000e+02
1.562500e+02
1.625000e+02
1.687500e+02
1.750000e+02
1.812500e+02
1.875000e+02
1.937500e+02
2.000000e+02
0.000000e+00
6.250000e+00
1.250000e+01
1.875000e+01
2.500000e+01
3.125000e+01
3.750000e+01
4.375000e+01
5.000000e+01
5.625000e+01
6.250000e+01
6.875000e+01
7.500000e+01
8.125000e+01
8.750000e+01
9.375000e+01
1.000000e+02
1.062500e+02
1.125000e+02
1.187500e+02
1.250000e+02
1.312500e+02
1.375000e+02
1.437500e+02
1.500000e+02
1.562500e+02
1.625000e+02
1.687500e+02
1.750000e+02
1.812500e+02
1.875000e+02
1.937500e+02
2.000000e+02
0.000000e+00
6.250000e+00
1.250000e+01
1.875000e+01
2.500000e+01
3.125000e+01
3.750000e+01
4.375000e+01
5.000000e+01
5.625000e+01
6.250000e+01
6.875000e+01
7.500000e+01
8.125000e+01
8.750000e+01
9.375000e+01
1.000000e+02
1.062500e+02
1.125000e+02
1.187500e+02
1.250000e+02
1.312500e+02
1.375000e+02
1.437500e+02
1.500000e+02
1.562500e+02
1.625000e+02
1.687500e+02
1.750000e+02
1.812500e+02
1.875000e+02
1.937500e+02
2.000000e+02
0.000000e+00
6.250000e+00
1.250000e+01
1.875000e+01
2.500000e+01
3.125000e+01
3.750000e+01
4.375000e+01
5.000000e+01
5.625000e+01
6.250000e+01
6.875000e+01
7.500000e+01
8.125000e+01
8.750000e+01
9.375000e+01
1.000000e+02
1.062500e+02
1.125000e+02
1.187500e+02
1.250000e+02
1.312500e+02
1.375000e+02
1.437500e+02
1.500000e+02
1.562500e+02
1.625000e+02
1.687500e+02
1.750000e+02
1.812500e+02
1.875000e+02
1.937500e+02
2.000000e+02
0.000000e+00
6.250000e+00
1.250000e+01
1.875000e+01
2.500000e+01
3.125000e+01
3.750000e+01
4.375000e+01
5.000000e+01
5.625000e+01
6.250000e+01
6.875000e+01
7.500000e+01
8.125000e+01
8.750000e+01
9.375000e+01
1.000000e+02
1.062500e+02
1.125000e+02
1.187500e+02
1.250000e+02
1.312500e+02
1.375000e+02
1.437500e+02
1.500000e+02
1.562500e+02
1.625000e+02
1.687500e+02
1.750000e+02
1.812500e+02
1.875000e+02
1.937500e+02
2.000000e+02
0.000000e+00
6.250000e+00
1.250000e+01
1.875000e+01
2.500000e+01
3.125000e+01
3.750000e+01
4.375000e+01
5.000000e+01
5.625000e+01
6.250000e+01
6.875000e+01
7.500000e+01
8.125000e+01
8.750000e+01
9.375000e+01
1.000000e+02
1.062500e+02
1.125000e+02
1.187500e+02
1.250000e+02
1.312500e+02
1.375000e+02
1.437500e+02
1.500000e+02
1.562500e+02
1.625000e+02
1.687500e+02
1.750000e+02
1.812500e+02
1.875000e+02
1.937500e+02
2.000000e+02
0.000000e+00
6.250000e+00
1.250000e+01
1.875000e+01
2.500000e+01
3.125000e+01
3.750000e+01
4.375000e+01
5.000000e+01
5.625000e+01
6.250000e+01
6.875000e+01
7.500000e+01
8.125000e+01
8.750000e+01
9.375000e+01
1.000000e+02
1.062500e+02
1.125000e+02
1.187500e+02
1.250000e+02
1.312500e+02
1.375000e+02
1.437500e+02
1.500000e+02
1.562500e+02
1.625000e+02
1.687500e+02
1.750000e+02
1.812500e+02
1.875000e+02
1.937500e+02
2.000000e+02
0.000000e+00
6.250000e+00
1.250000e+01
1.875000e+01
2.500000e+01
3.125000e+01
3.750000e+01
4.375000e+01
5.000000e+01
5.625000e+01
6.250000e+01
6.875000e+01
7.500000e+01
8.125000e+01
8.750000e+01
9.375000e+01
1.000000e+02
1.062500e+02
1.125000e+02
1.187500e+02
1.250000e+02
1.312500e+02
1.375000e+02
1.437500e+02
1.500000e+02
1.562500e+02
1.625000e+02
1.687500e+02
1.750000e+02
1.812500e+02
1.875000e+02
1.937500e+02
2.000000e+02
0.000000e+00
6.250000e+00
1.250000e+01
1.875000e+01
2.500000e+01
3.125000e+01
3.750000e+01
4.375000e+01
5.000000e+01
5.625000e+01
6.250000e+01
6.875000e+01
7.500000e+01
8.125000e+01
8.750000e+01
9.375000e+01
1.000000e+02
1.062500e+02
1.125000e+02
1.187500e+02
1.250000e+02
1.312500e+02
1.375000e+02
1.437500e+02
1.500000e+02
1.562500e+02
1.625000e+02
1.687500e+02
1.750000e+02
1.812500e+02
1.875000e+02
1.937500e+02
2.000000e+02
0.000000e+00
6.250000e+00
1.250000e+01
1.875000e+01
2.500000e+01
3.125000e+01
3.750000e+01
4.375000e+01
5.000000e+01
5.625000e+01
6.250000e+01
6.875000e+01
7.500000e+01
8.125000e+01
8.750000e+01
9.375000e+01
1.000000e+02
1.062500e+02
1.125000e+02
1.187500e+02
1.250000e+02
1.312500e+02
1.375000e+02
1.437500e+02
1.500000e+02
1.562500e+02
1.625000e+02
1.687500e+02
1.750000e+02
1.812500e+02
1.875000e+02
1.937500e+02
2.000000e+02
0.000000e+00
6.250000e+00
1.250000e+01
1.875000e+01
2.500000e+01
3.125000e+01
3.750000e+01
4.375000e+01
5.000000e+01
5.625000e+01
6.250000e+01
6.875000e+01
7.500000e+01
8.125000e+01
8.750000e+01
9.375000e+01
1.000000e+02
1.062500e+02
1.125000e+02
1.187500e+02
1.250000e+02
1.312500e+02
1.375000e+02
1.437500e+02
1.500000e+02
1.562500e+02
1.625000e+02
1.687500e+02
1.750000e+02
1.812500e+02
1.875000e+02
1.937500e+02
2.000000e+02
0.000000e+00
6.250000e+00
1.250000e+01
1.875000e+01
2.500000e+01
3.125000e+01
3.750000e+01
4.375000e+01
5.000000e+01
5.625000e+01
6.250000e+01
6.875000e+01
7.500000e+01
8.125000e+01
8.750000e+01
9.375000e+01
1.000000e+02
1.062500e+02
1.125000e+02
1.187500e+02
1.250000e+02
1.312500e+02
1.375000e+02
1.437500e+02
1.500000e+02
1.562500e+02
1.625000e+02
1.687500e+02
1.750000e+02
1.812500e+02
1.875000e+02
1.937500e+02
2.000000e+02
0.000000e+00
0.000000e+00
0.000000e+00
0.000000e+00
0.000000e+00
0.000000e+00
0.000000e+00
0.000000e+00
0.000000e+00
0.000000e+00
0.000000e+00
0.000000e+00
0.000000e+00
0.000000e+00
0.000000e+00
0.000000e+00
0.000000e+00
0.000000e+00
0.000000e+00
0.000000e+00
0.000000e+00
0.000000e+00
0.000000e+00
0.000000e+00
0.000000e+00
0.000000e+00
0.000000e+00
0.000000e+00
0.000000e+00
0.000000e+00
0.000000e+00
0.000000e+00
0.000000e+00
6.250000e+00
6.250000e+00
6.250000e+00
6.250000e+00
6.250000e+00
6.250000e+00
6.250000e+00
6.250000e+00
6.250000e+00
6.250000e+00
6.250000e+00
6.250000e+00
6.250000e+00
6.250000e+00
6.250000e+00
6.250000e+00
6.250000e+00
6.250000e+00
6.250000e+00
6.250000e+00
6.250000e+00
6.250000e+00
6.250000e+00
6.250000e+00
6.250000e+00
6.250000e+00
6.250000e+00
6.250000e+00
6.250000e+00
6.250000e+00
6.250000e+00
6.250000e+00
6.250000e+00
1.250000e+01
1.250000e+01
1.250000e+01
1.250000e+01
1.250000e+01
1.250000e+01
1.250000e+01
1.250000e+01
1.250000e+01
1.250000e+01
1.250000e+01
1.250000e+01
1.250000e+01
1.250000e+01
1.250000e+01
1.250000e+01
1.250000e+01
1.250000e+01
1.250000e+01
1.250000e+01
1.250000e+01
1.250000e+01
1.250000e+01
1.250000e+01
1.250000e+01
1.250000e+01
1.250000e+01
1.250000e+01
1.250000e+01
1.250000e+01
1.250000e+01
1.250000e+01
1.250000e+01
1.875000e+01
1.875000e+01
1.875000e+01
1.875000e+01
1.875000e+01
1.875000e+01
1.875000e+01
1.875000e+01
1.875000e+01
1.875000e+01
1.875000e+01
1.875000e+01
1.875000e+01
1.875000e+01
1.875000e+01
1.875000e+01
1.875000e+01
1.875000e+01
1.875000e+01
1.875000e+01
1.875000e+01
1.875000e+01
1.875000e+01
1.875000e+01
1.875000e+01
1.875000e+01
1.875000e+01
1.875000e+01
1.875000e+01
1.875000e+01
1.875000e+01
1.875000e+01
1.875000e+01
2.500000e+01
2.500000e+01
2.500000e+01
2.500000e+01
2.500000e+01
2.500000e+01
2.500000e+01
2.500000e+01
2.500000e+01
2.500000e+01
2.500000e+01
2.500000e+01
2.500000e+01
2.500000e+01
2.500000e+01
2.500000e+01
2.500000e+01
2.500000e+01
2.500000e+01
2.500000e+01
2.500000e+01
2.500000e+01
2.500000e+01
2.500000e+01
2.500000e+01
2.500000e+01
2.500000e+01
2.500000e+01
2.500000e+01
2.500000e+01
2.500000e+01
2.500000e+01
2.500000e+01
3.125000e+01
3.125000e+01
3.125000e+01
3.125000e+01
3.125000e+01
3.125000e+01
3.125000e+01
3.125000e+01
3.125000e+01
3.125000e+01
3.125000e+01
3.125000e+01
3.125000e+01
3.125000e+01
3.125000e+01
3.125000e+01
3.125000e+01
3.125000e+01
3.125000e+01
3.125000e+01
3.125000e+01
3.125000e+01
3.125000e+01
3.125000e+01
3.125000e+01
3.125000e+01
3.125000e+01
3.125000e+01
3.125000e+01
3.125000e+01
3.125000e+01
3.125000e+01
3.125000e+01
3.750000e+01
3.750000e+01
3.750000e+01
3.750000e+01
3.750000e+01
3.750000e+01
3.750000e+01
3.750000e+01
3.750000e+01
3.750000e+01
3.750000e+01
3.750000e+01
3.750000e+01
3.750000e+01
3.750000e+01
3.750000e+01
3.750000e+01
3.750000e+01
3.750000e+01
3.750000e+01
3.750000e+01
3.750000e+01
3.750000e+01
3.750000e+01
3.750000e+01
3.750000e+01
3.750000e+01
3.750000e+01
3.750000e+01
3.750000e+01
3.750000e+01
3.750000e+01
3.750000e+01
4.375000e+01
4.375000e+01
4.375000e+01
4.375000e+01
4.375000e+01
4.375000e+01
4.375000e+01
4.375000e+01
4.375000e+01
4.375000e+01
4.375000e+01
4.375000e+01
4.375000e+01
4.375000e+01
4.375000e+01
4.375000e+01
4.375000e+01
4.375000e+01
4.375000e+01
4.375000e+01
4.375000e+01
4.375000e+01
4.375000e+01
4.375000e+01
4.375000e+01
4.375000e+01
4.375000e+01
4.375000e+01
4.375000e+01
4.375000e+01
4.375000e+01
4.375000e+01
4.375000e+01
5.000000e+01
5.000000e+01
5.000000e+01
5.000000e+01
5.000000e+01
5.000000e+01
5.000000e+01
5.000000e+01
5.000000e+01
5.000000e+01
5.000000e+01
5.000000e+01
5.000000e+01
5.000000e+01
5.000000e+01
5.000000e+01
5.000000e+01
5.000000e+01
5.000000e+01
5.000000e+01
5.000000e+01
5.000000e+01
5.000000e+01
5.000000e+01
5.000000e+01
5.000000e+01
5.000000e+01
5.000000e+01
5.000000e+01
5.000000e+01
5.000000e+01
5.000000e+01
5.000000e+01
5.625000e+01
5.625000e+01
5.625000e+01
5.625000e+01
5.625000e+01
5.625000e+01
5.625000e+01
5.625000e+01
5.625000e+01
5.625000e+01
5.625000e+01
5.625000e+01
5.625000e+01
5.625000e+01
5.625000e+01
5.625000e+01
5.625000e+01
5.625000e+01
5.625000e+01
5.625000e+01
5.625000e+01
5.625000e+01
5.625000e+01
5.625000e+01
5.625000e+01
5.625000e+01
5.625000e+01
5.625000e+01
5.625000e+01
5.625000e+01
5.625000e+01
5.625000e+01
5.625000e+01
6.250000e+01
6.250000e+01
6.250000e+01
6.250000e+01
6.250000e+01
6.250000e+01
6.250000e+01
6.250000e+01
6.250000e+01
6.250000e+01
6.250000e+01
6.250000e+01
6.250000e+01
6.250000e+01
6.250000e+01
6.250000e+01
6.250000e+01
6.250000e+01
6.250000e+01
6.250000e+01
6.250000e+01
6.250000e+01
6.250000e+01
6.250000e+01
6.250000e+01
6.250000e+01
6.250000e+01
6.250000e+01
6.250000e+01
6.250000e+01
6.250000e+01
6.250000e+01
6.250000e+01
6.875000e+01
6.875000e+01
6.875000e+01
6.875000e+01
6.875000e+01
6.875000e+01
6.875000e+01
6.875000e+01
6.875000e+01
6.875000e+01
6.875000e+01
6.875000e+01
6.875000e+01
6.875000e+01
6.875000e+01
6.875000e+01
6.875000e+01
6.875000e+01
6.875000e+01
6.875000e+01
6.875000e+01
6.875000e+01
6.875000e+01
6.875000e+01
6.875000e+01
6.875000e+01
6.875000e+01
6.875000e+01
6.875000e+01
6.875000e+01
6.875000e+01
6.875000e+01
6.875000e+01
7.500000e+01
7.500000e+01
7.500000e+01
7.500000e+01
7.500000e+01
7.500000e+01
7.500000e+01
7.500000e+01
7.500000e+01
7.500000e+01
7.500000e+01
7.500000e+01
7.500000e+01
7.500000e+01
7.500000e+01
7.500000e+01
7.500000e+01
7.500000e+01
7.500000e+01
7.500000e+01
7.500000e+01
7.500000e+01
7.500000e+01
7.500000e+01
7.500000e+01
7.500000e+01
7.500000e+01
7.500000e+01
7.500000e+01
7.500000e+01
7.500000e+01
7.500000e+01
7.500000e+01
8.125000e+01
8.125000e+01
8.125000e+01
8.125000e+01
8.125000e+01
8.125000e+01
8.125000e+01
8.125000e+01
8.125000e+01
8.125000e+01
8.125000e+01
8.125000e+01
8.125000e+01
8.125000e+01
8.125000e+01
8.125000e+01
8.125000e+01
8.125000e+01
8.125000e+01
8.125000e+01
8.125000e+01
8.125000e+01
8.125000e+01
8.125000e+01
8.125000e+01
8.125000e+01
8.125000e+01
8.125000e+01
8.125000e+01
8.125000e+01
8.125000e+01
8.125000e+01
8.125000e+01
8.750000e+01
8.750000e+01
8.750000e+01
8.750000e+01
8.750000e+01
8.750000e+01
8.750000e+01
8.750000e+01
8.750000e+01
8.750000e+01
8.750000e+01
8.750000e+01
8.750000e+01
8.750000e+01
8.750000e+01
8.750000e+01
8.750000e+01
8.750000e+01
8.750000e+01
8.750000e+01
8.750000e+01
8.750000e+01
8.750000e+01
8.750000e+01
8.750000e+01
8.750000e+01
8.750000e+01
8.750000e+01
8.750000e+01
8.750000e+01
8.750000e+01
8.750000e+01
8.750000e+01
9.375000e+01
9.375000e+01
9.375000e+01
9.375000e+01
9.375000e+01
9.375000e+01
9.375000e+01
9.375000e+01
9.375000e+01
9.375000e+01
9.375000e+01
9.375000e+01
9.375000e+01
9.375000e+01
9.375000e+01
9.375000e+01
9.375000e+01
9.375000e+01
9.375000e+01
9.375000e+01
9.375000e+01
9.375000e+01
9.375000e+01
9.375000e+01
9.375000e+01
9.375000e+01
9.375000e+01
9.375000e+01
9.375000e+01
9.375000e+01
9.375000e+01
9.375000e+01
9.375000e+01
1.000000e+02
1.000000e+02
1.000000e+02
1.000000e+02
1.000000e+02
1.000000e+02
1.000000e+02
1.000000e+02
1.000000e+02
1.000000e+02
1.000000e+02
1.000000e+02
1.000000e+02
1.000000e+02
1.000000e+02
1.000000e+02
1.000000e+02
1.000000e+02
1.000000e+02
1.000000e+02
1.000000e+02
1.000000e+02
1.000000e+02
1.000000e+02
1.000000e+02
1.000000e+02
1.000000e+02
1.000000e+02
1.000000e+02
1.000000e+02
1.000000e+02
1.000000e+02
1.000000e+02
0.000000e+00
-1.015982e-01
-1.843354e-01
-2.609816e-01
-3.345445e-01
-4.055839e-01
-4.742417e-01
-5.405113e-01
-6.043503e-01
-6.657122e-01
-7.245582e-01
-7.808614e-01
-8.346080e-01
-8.857966e-01
-9.344390e-01
-9.805606e-01
-1.024203e+00
-1.065425e+00
-1.104311e+00
-1.140971e+00
-1.175555e+00
-1.208261e+00
-1.239348e+00
-1.269161e+00
-1.298166e+00
-1.326989e+00
-1.356506e+00
-1.387963e+00
-1.423187e+00
-1.464871e+00
-1.516502e+00
-1.578030e+00
-1.615579e+00
0.000000e+00
-6.811740e-02
-1.417249e-01
-2.111288e-01
-2.770986e-01
-3.402614e-01
-4.009500e-01
-4.593099e-01
-5.153989e-01
-5.692355e-01
-6.208230e-01
-6.701613e-01
-7.172525e-01
-7.621039e-01
-8.047304e-01
-8.451554e-01
-8.834134e-01
-9.195514e-01
-9.536319e-01
-9.857363e-01
-1.015968e+00
-1.044458e+00
-1.071369e+00
-1.096899e+00
-1.121285e+00
-1.144800e+00
-1.167732e+00
-1.190320e+00
-1.212560e+00
-1.233729e+00
-1.251368e+00
-1.261681e+00
-1.276037e+00
0.000000e+00
-5.402999e-02
-1.112337e-01
-1.694779e-01
-2.260764e-01
-2.805919e-01
-3.329889e-01
-3.833166e-01
-4.316190e-01
-4.779264e-01
-5.222582e-01
-5.646279e-01
-6.050470e-01
-6.435274e-01
-6.800831e-01
-7.147318e-01
-7.474960e-01
-7.784036e-01
-8.074895e-01
-8.347950e-01
-8.603678e-01
-8.842597e-01
-9.065215e-01
-9.271926e-01
-9.462813e-01
-9.637263e-01
-9.793281e-01
-9.926274e-01
-1.002725e+00
-1.008163e+00
-1.007686e+00
-1.004634e+00
-1.021398e+00
0.000000e+00
-4.286798e-02
-8.810360e-02
-1.345789e-01
-1.809475e-01
-2.261951e-01
-2.699337e-01
-3.120242e-01
-3.524286e-01
-3.911450e-01
-4.281832e-01
-4.635552e-01
-4.972729e-01
-5.293467e-01
-5.597860e-01
-5.885993e-01
-6.157943e-01
-6.413780e-01
-6.653555e-01
-6.877283e-01
-7.084904e-01
-7.276228e-01
-7.450833e-01
-7.607903e-01
-7.745990e-01
-7.862656e-01
-7.954039e-01
-8.014557e-01
-8.037666e-01
-8.020519e-01
-7.978866e-01
-7.976380e-01
-8.136102e-01
0.000000e+00
-3.327188e-02
-6.812959e-02
-1.041017e-01
-1.403674e-01
-1.761898e-01
-2.110745e-01
-2.447711e-01
-2.771656e-01
-3.082140e-01
-3.379046e-01
-3.662389e-01
-3.932221e-01
-4.188586e-01
-4.431498e-01
-4.660936e-01
-4.876828e-01
-5.079042e-01
-5.267370e-01
-5.441495e-01
-5.600949e-01
-5.745050e-01
-5.872813e-01
-5.982834e-01
-6.073168e-01
-6.141260e-01
-6.184109e-01
-6.199142e-01
-6.186814e-01
-6.156645e-01
-6.137071e-01
-6.182269e-01
-6.318523e-01
0.000000e+00
-2.445317e-02
-4.995412e-02
-7.627486e-02
-1.029609e-01
-1.295143e-01
-1.555395e-01
-1.807794e-01
-2.050928e-01
-2.284109e-01
-2.507046e-01
-2.719636e-01
-2.921841e-01
-3.113625e-01
-3.294914e-01
-3.465578e-01
-3.625413e-01
-3.774128e-01
-3.911320e-01
-4.036452e-01
-4.148819e-01
-4.247508e-01
-4.331368e-01
-4.398991e-01
-4.448772e-01
-4.479148e-01
-4.489227e-01
-4.480185e-01
-4.457896e-01
-4.436688e-01
-4.441850e-01
-4.499471e-01
-4.612215e-01
0.000000e+00
-1.609326e-02
-3.282318e-02
-5.008411e-02
-6.763009e-02
-8.516588e-02
-1.024271e-01
-1.192208e-01
-1.354265e-01
-1.509775e-01
-1.658400e-01
-1.799969e-01
-1.934375e-01
-2.061504e-01
-2.181202e-01
-2.293251e-01
-2.397346e-01
-2.493088e-01
-2.579964e-01
-2.657332e-01
-2.724415e-01
-2.780304e-01
-2.823982e-01
-2.854420e-01
-2.870774e-01
-2.872804e-01
-2.861623e-01
-2.840931e-01
-2.818603e-01
-2.807778e-01
-2.824662e-01
-2.880763e-01
-2.971775e-01
0.000000e+00
-7.993562e-03
-1.628938e-02
-2.484491e-02
-3.355215e-02
-4.227362e-02
-5.087871e-02
-5.926519e-02
-6.736399e-02
-7.513286e-02
-8.254677e-02
-8.958913e-02
-9.624548e-02
-1.024993e-01
-1.083292e-01
-1.137072e-01
-1.185972e-01
-1.229541e-01
-1.267229e-01
-1.298397e-01
-1.322322e-01
-1.338247e-01
-1.345461e-01
-1.343455e-01
-1.332188e-01
-1.312521e-01
-1.286833e-01
-1.259767e-01
-1.238754e-01
-1.233489e-01
-1.253299e-01
-1.302241e-01
-1.374458e-01
0.000000e+00
-1.290889e-05
-2.798869e-05
-4.440425e-05
-6.129235e-05
-7.748914e-05
-9.124077e-05
-9.988203e-05
-9.946093e-05
-8.428678e-05
-4.638452e-05
2.515406e-05
1.449215e-04
3.320315e-04
6.110015e-04
1.012604e-03
1.574556e-03
2.341831e-03
3.366259e-03
4.704899e-03
6.416417e-03
8.554357e-03
1.115581e-02
1.422360e-02
1.770026e-02
2.143351e-02
2.513752e-02
2.836463e-02
3.051892e-02
3.095589e-02
2.919700e-02
2.521352e-02
1.963437e-02
0.000000e+00
7.969248e-03
1.623656e-02
2.476093e-02
3.343597e-02
4.212631e-02
5.070461e-02
5.907360e-02
6.717159e-02
7.496696e-02
8.244963e-02
8.962349e-02
9.650151e-02
1.031032e-01
1.094534e-01
1.155822e-01
1.215252e-01
1.273226e-01
1.330185e-01
1.386586e-01
1.442849e-01
1.499284e-01
1.555972e-01
1.612598e-01
1.668241e-01
1.721145e-01
1.768542e-01
1.806664e-01
1.831159e-01
1.838094e-01
1.825536e-01
1.795275e-01
1.753866e-01
0.000000e+00
1.607339e-02
3.277971e-02
5.001453e-02
6.753307e-02
8.504173e-02
1.022786e-01
1.190549e-01
1.352557e-01
1.508229e-01
1.657349e-01
1.799913e-01
1.936034e-01
2.065896e-01
2.189726e-01
2.307788e-01
2.420376e-01
2.527811e-01
2.630427e-01
2.728542e-01
2.822408e-01
2.912146e-01
2.997633e-01
3.078375e-01
3.153358e-01
3.220920e-01
3.278709e-01
3.323845e-01
3.353388e-01
3.365200e-01
3.359127e-01
3.338188e-01
3.309287e-01
0.000000e+00
2.444049e-02
4.992587e-02
7.622887e-02
1.028956e-01
1.294291e-01
1.554352e-01
1.806594e-01
2.049640e-01
2.282856e-01
2.506028e-01
2.719159e-01
2.922359e-01
3.115782e-01
3.299612e-01
3.474042e-01
3.639277e-01
3.795526e-01
3.942991e-01
4.081839e-01
4.212168e-01
4.333949e-01
4.446944e-01
4.550621e-01
4.644063e-01
4.725912e-01
4.794405e-01
4.847563e-01
4.883613e-01
4.901676e-01
4.902693e-01
4.890409e-01
4.872144e-01
0.000000e+00
3.326872e-02
6.812169e-02
1.040876e-01
1.403456e-01
1.761590e-01
2.110340e-01
2.447208e-01
2.771065e-01
3.081487e-01
3.378382e-01
3.661800e-01
3.931840e-01
4.188615e-01
4.432232e-01
4.662789e-01
4.880372e-01
5.085052e-01
5.276878e-01
5.455858e-01
5.621939e-01
5.774967e-01
5.914647e-01
6.040497e-01
6.151810e-01
6.247651e-01
6.326923e-01
6.388532e-01
6.431709e-01
6.456516e-01
6.464562e-01
6.459950e-01
6.450328e-01
0.000000e+00
4.287593e-02
8.811976e-02
1.346030e-01
1.809788e-01
2.262326e-01
2.699763e-01
3.120697e-01
3.524735e-01
3.911838e-01
4.282074e-01
4.635526e-01
4.972259e-01
5.292308e-01
5.595678e-01
5.882344e-01
6.152249e-01
6.405307e-01
6.641390e-01
6.860331e-01
7.061909e-01
7.245842e-01
7.411780e-01
7.559305e-01
7.687947e-01
7.797222e-01
7.886721e-01
7.956243e-01
8.005999e-01
8.036921e-01
8.051144e-01
8.052840e-01
8.049647e-01
0.000000e+00
5.404942e-02
1.112752e-01
1.695429e-01
2.261661e-01
2.807074e-01
3.331303e-01
3.834823e-01
4.318045e-01
4.781220e-01
5.224470e-01
5.647829e-01
6.051266e-01
6.434704e-01
6.798019e-01
7.141048e-01
7.463578e-01
7.765343e-01
8.046026e-01
8.305250e-01
8.542590e-01
8.757584e-01
8.949765e-01
9.118701e-01
9.264073e-01
9.385768e-01
9.484008e-01
9.559485e-01
9.613502e-01
9.648100e-01
9.666209e-01
9.672107e-01
9.672810e-01
0.000000e+00
6.814658e-02
1.417887e-01
2.112314e-01
2.772450e-01
3.404566e-01
4.011983e-01
4.596137e-01
5.157570e-01
5.696407e-01
6.212586e-01
6.705962e-01
7.176347e-01
7.623524e-01
8.047236e-01
8.447182e-01
8.822995e-01
9.174232e-01
9.500364e-01
9.800776e-01
1.007477e+00
1.032162e+00
1.054058e+00
1.073104e+00
1.089259e+00
1.102524e+00
1.112962e+00
1.120721e+00
1.126050e+00
1.129316e+00
1.130984e+00
1.131589e+00
1.131738e+00
0.000000e+00
1.016302e-01
1.844099e-01
2.611093e-01
3.347356e-01
4.058490e-01
4.745915e-01
5.409559e-01
6.048981e-01
6.663663e-01
7.253131e-01
7.816972e-01
8.354821e-01
8.866333e-01
9.351149e-01
9.808862e-01
1.023898e+00
1.064091e+00
1.101392e+00
1.135711e+00
1.166946e+00
1.194981e+00
1.219697e+00
1.240979e+00
1.258740e+00
1.272944e+00
1.283641e+00
1.291011e+00
1.295403e+00
1.297383e+00
1.297742e+00
1.297444e+00
1.297277e+00
0.000000e+00
-6.278595e-02
-1.095776e-01
-1.606410e-01
-2.175042e-01
-2.817369e-01
-3.537857e-01
-4.337760e-01
-5.216281e-01
-6.171541e-01
-7.201008e-01
-8.301771e-01
-9.470690e-01
-1.070449e+00
-1.199985e+00
-1.335339e+00
-1.476179e+00
-1.622175e+00
-1.773011e+00
-1.928388e+00
-2.088035e+00
-2.251725e+00
-2.419296e+00
-2.590683e+00
-2.765971e+00
-2.945485e+00
-3.129939e+00
-3.320725e+00
-3.520506e+00
-3.734556e+00
-3.974254e+00
-4.266445e+00
-4.670114e+00
0.000000e+00
-3.901928e-02
-8.799781e-02
-1.394047e-01
-1.970592e-01
-2.619890e-01
-3.347372e-01
-4.154270e-01
-5.039858e-01
-6.002254e-01
-7.038913e-01
-8.146901e-01
-9.323050e-01
-1.056406e+00
-1.186657e+00
-1.322718e+00
-1.464252e+00
-1.610924e+00
-1.762412e+00
-1.918410e+00
-2.078638e+00
-2.242856e+00
-2.410888e+00
-2.582649e+00
-2.758202e+00
-2.937842e+00
-3.122245e+00
-3.312761e+00
-3.511998e+00
-3.725140e+00
-3.962987e+00
-4.248674e+00
-4.625804e+00
0.000000e+00
-2.866218e-02
-7.094422e-02
-1.216494e-01
-1.794038e-01
-2.448112e-01
-3.181329e-01
-3.994372e-01
-4.886263e-01
-5.855031e-01
-6.898089e-01
-8.012478e-01
-9.195016e-01
-1.044240e+00
-1.175123e+00
-1.311813e+00
-1.453968e+00
-1.601253e+00
-1.753344e+00
-1.909932e+00
-2.070733e+00
-2.235508e+00
-2.404077e+00
-2.576361e+00
-2.752429e+00
-2.932593e+00
-3.117558e+00
-3.308709e+00
-3.508621e+00
-3.721964e+00
-3.956717e+00
-4.222306e+00
-4.516921e+00
0.000000e+00
-2.295209e-02
-6.007631e-02
-1.080774e-01
-1.650891e-01
-2.304755e-01
-3.041104e-01
-3.858696e-01
-4.755773e-01
-5.730002e-01
-6.778630e-01
-7.898625e-01
-9.086779e-01
-1.033978e+00
-1.165424e+00
-1.302677e+00
-1.445398e+00
-1.593254e+00
-1.745921e+00
-1.903092e+00
-2.064489e+00
-2.229877e+00
-2.399087e+00
-2.572050e+00
-2.748854e+00
-2.929824e+00
-3.115661e+00
-3.307639e+00
-3.507867e+00
-3.719421e+00
-3.945247e+00
-4.183422e+00
-4.405137e+00
0.000000e+00
-1.942203e-02
-5.296936e-02
-9.843994e-02
-1.541517e-01
-2.191091e-01
-2.927711e-01
-3.747955e-01
-4.648863e-01
-5.627488e-01
-6.680774e-01
-7.805547e-01
-8.998541e-01
-1.025643e+00
-1.157585e+00
-1.295343e+00
-1.438581e+00
-1.586970e+00
-1.740190e+00
-1.897941e+00
-2.059949e+00
-2.225987e+00
-2.395892e+00
-2.569602e+00
-2.747197e+00
-2.928963e+00
-3.115470e+00
-3.307636e+00
-3.506673e+00
-3.713559e+00
-3.927305e+00
-4.140064e+00
-4.333153e+00
0.000000e+00
-1.717586e-02
-4.830642e-02
-9.180803e-02
-1.462656e-01
-2.106142e-01
-2.841157e-01
-3.662448e-01
-4.565875e-01
-5.547795e-01
-6.604772e-01
-7.733443e-01
-8.930465e-01
-1.019250e+00
-1.151619e+00
-1.289820e+00
-1.433522e+00
-1.582401e+00
-1.736141e+00
-1.894447e+00
-2.057051e+00
-2.223725e+00
-2.394302e+00
-2.568701e+00
-2.746952e+00
-2.929226e+00
-3.115845e+00
-3.307213e+00
-3.503550e+00
-3.704195e+00
-3.906089e+00
-4.102020e+00
-4.281097e+00
0.000000e+00
-1.577987e-02
-4.535831e-02
-8.749721e-02
-1.409826e-01
-2.047765e-01
-2.780596e-01
-3.601987e-01
-4.506902e-01
-5.491103e-01
-6.550800e-01
-7.682450e-01
-8.882633e-01
-1.014799e+00
-1.147519e+00
-1.286094e+00
-1.430197e+00
-1.579508e+00
-1.733715e+00
-1.892525e+00
-2.055666e+00
-2.222904e+00
-2.394048e+00
-2.568970e+00
-2.747609e+00
-2.929968e+00
-3.116064e+00
-3.305790e+00
-3.498599e+00
-3.692921e+00
-3.885394e+00
-4.070467e+00
-4.241341e+00
0.000000e+00
-1.501274e-02
-4.372246e-02
-8.506799e-02
-1.379532e-01
-2.013761e-01
-2.744910e-01
-3.566118e-01
-4.471838e-01
-5.457449e-01
-6.518929e-01
-7.652610e-01
-8.855026e-01
-1.012282e+00
-1.145268e+00
-1.284135e+00
-1.428561e+00
-1.578226e+00
-1.732823e+00
-1.892053e+00
-2.055636e+00
-2.223316e+00
-2.394863e+00
-2.570081e+00
-2.748793e+00
-2.930816e+00
-3.115881e+00
-3.303484e+00
-3.492623e+00
-3.681439e+00
-3.866898e+00
-4.044825e+00
-4.210579e+00
0.000000e+00
-1.476558e-02
-4.319470e-02
-8.428066e-02
-1.369659e-01
-2.002633e-01
-2.733220e-01
-3.554416e-01
-4.460517e-01
-5.446787e-01
-6.509136e-01
-7.643872e-01
-8.847533e-01
-1.011678e+00
-1.144835e+00
-1.283900e+00
-1.428554e+00
-1.578479e+00
-1.733364e+00
-1.892904e+00
-2.056802e+00
-2.224770e+00
-2.396530e+00
-2.571804e+00
-2.750297e+00
-2.931653e+00
-3.115380e+00
-3.300720e+00
-3.486476e+00
-3.670817e+00
-3.851178e+00
-4.024374e+00
-4.187003e+00
0.000000e+00
-1.500559e-02
-4.371254e-02
-8.505945e-02
-1.379506e-01
-2.013852e-01
-2.745192e-01
-3.566691e-01
-4.472834e-01
-5.459040e-01
-6.521336e-01
-7.656113e-01
-8.859971e-01
-1.012962e+00
-1.146183e+00
-1.285339e+00
-1.430113e+00
-1.580185e+00
-1.735240e+00
-1.894960e+00
-2.059026e+00
-2.227117e+00
-2.398899e+00
-2.574014e+00
-2.752057e+00
-2.932534e+00
-3.114799e+00
-3.297963e+00
-3.480793e+00
-3.661623e+00
-3.838338e+00
-4.008474e+00
-4.169433e+00
0.000000e+00
-1.576614e-02
-4.533926e-02
-8.748074e-02
-1.409774e-01
-2.047935e-01
-2.781132e-01
-3.603079e-01
-4.508805e-01
-5.494145e-01
-6.555409e-01
-7.689161e-01
-8.892110e-01
-1.016103e+00
-1.149274e+00
-1.288405e+00
-1.433177e+00
-1.583272e+00
-1.738363e+00
-1.898121e+00
-2.062203e+00
-2.230252e+00
-2.401881e+00
-2.576661e+00
-2.754097e+00
-2.933592e+00
-3.114406e+00
-3.295599e+00
-3.475988e+00
-3.654115e+00
-3.828268e+00
-3.996547e+00
-4.156960e+00
0.000000e+00
-1.715678e-02
-4.827994e-02
-9.178502e-02
-1.462582e-01
-2.106375e-01
-2.841899e-01
-3.663966e-01
-4.568523e-01
-5.552037e-01
-6.611204e-01
-7.742817e-01
-8.943712e-01
-1.021074e+00
-1.154074e+00
-1.293055e+00
-1.437698e+00
-1.587678e+00
-1.742665e+00
-1.902312e+00
-2.066257e+00
-2.234109e+00
-2.405435e+00
-2.579749e+00
-2.756484e+00
-2.934976e+00
-3.114431e+00
-3.293906e+00
-3.472299e+00
-3.648365e+00
-3.820750e+00
-3.988040e+00
-4.148783e+00
0.000000e+00
-1.939956e-02
-5.293819e-02
-9.841283e-02
-1.541431e-01
-2.191373e-01
-2.928606e-01
-3.749786e-01
-4.652060e-01
-5.632612e-01
-6.688547e-01
-7.816880e-01
-9.014561e-01
-1.027850e+00
-1.160556e+00
-1.299258e+00
-1.443637e+00
-1.593364e+00
-1.748099e+00
-1.907487e+00
-2.071145e+00
-2.238656e+00
-2.409551e+00
-2.583300e+00
-2.759290e+00
-2.936809e+00
-3.115038e+00
-3.293051e+00
-3.469834e+00
-3.644330e+00
-3.815502e+00
-3.982392e+00
-4.144104e+00
0.000000e+00
-2.292898e-02
-6.004431e-02
-1.080498e-01
-1.650817e-01
-2.305087e-01
-3.042111e-01
-3.860740e-01
-4.759329e-01
-5.735690e-01
-6.787246e-01
-7.911176e-01
-9.104506e-01
-1.036418e+00
-1.168707e+00
-1.307002e+00
-1.450980e+00
-1.600311e+00
-1.754648e+00
-1.913626e+00
-2.076850e+00
-2.243883e+00
-2.414233e+00
-2.587340e+00
-2.762561e+00
-2.939160e+00
-3.116307e+00
-3.293098e+00
-3.468591e+00
-3.641883e+00
-3.812203e+00
-3.979019e+00
-4.142065e+00
0.000000e+00
-2.864204e-02
-7.091619e-02
-1.216261e-01
-1.794016e-01
-2.448515e-01
-3.182442e-01
-3.996570e-01
-4.890040e-01
-5.861031e-01
-6.907135e-01
-8.025606e-01
-9.213504e-01
-1.046778e+00
-1.178530e+00
-1.316291e+00
-1.459735e+00
-1.608528e+00
-1.762321e+00
-1.920741e+00
-2.083384e+00
-2.249804e+00
-2.419495e+00
-2.591882e+00
-2.766308e+00
-2.942029e+00
-3.118216e+00
-3.293986e+00
-3.468451e+00
-3.640811e+00
-3.810492e+00
-3.977324e+00
-4.141708e+00
0.000000e+00
-3.900634e-02
-8.797873e-02
-1.393910e-01
-1.970677e-01
-2.620416e-01
-3.348626e-01
-4.156629e-01
-5.043815e-01
-6.008446e-01
-7.048154e-01
-8.160204e-01
-9.341661e-01
-1.058947e+00
-1.190049e+00
-1.327155e+00
-1.469936e+00
-1.618056e+00
-1.771162e+00
-1.928878e+00
-2.090795e+00
-2.256461e+00
-2.425367e+00
-2.596934e+00
-2.770505e+00
-2.945341e+00
-3.120628e+00
-3.295507e+00
-3.469130e+00
-3.640761e+00
-3.809936e+00
-3.976712e+00
-4.142011e+00
0.000000e+00
-6.278410e-02
-1.095713e-01
-1.606422e-01
-2.175298e-01
-2.818091e-01
-3.539332e-01
-4.340359e-01
-5.220490e-01
-6.177977e-01
-7.210454e-01
-8.315194e-01
-9.489263e-01
-1.072960e+00
-1.203307e+00
-1.339645e+00
-1.481645e+00
-1.628968e+00
-1.781256e+00
-1.938129e+00
-2.099176e+00
-2.263940e+00
-2.431912e+00