TITLE = "Solution"
VARIABLES = x, y, u, v, psiu, psiv, t, stress
ZONE T="structure" N=561 E=512 F=FEBLOCK ET=QUADRILATERAL VARLOCATION=([7,8]=cellcentered)
0.000000e+00
6.250000e+00
1.250000e+01
1.875000e+01
2.500000e+01
3.125000e+01
3.750000e+01
4.375000e+01
5.000000e+01
5.625000e+01
6.250000e+01
6.875000e+01
7.500000e+01
8.125000e+01
8.750000e+01
9.375000e+01
1.000000e+02
1.062500e+02
1.125000e+02
1.187500e+02
1.250000e+02
1.312500e+02
1.375000e+02
1.437500e+02
1.500000e+02
1.562500e+02
1.625000e+02
1.687500e+02
1.750000e+02
1.812500e+02
1.875000e+02
1.937500e+02
2.000000e+02
0.000000e+00
6.250000e+00
1.250000e+01
1.875000e+01
2.500000e+01
3.125000e+01
3.750000e+01
4.375000e+01
5.000000e+01
5.625000e+01
6.250000e+01
6.875000e+01
7.500000e+01
8.125000e+01
8.750000e+01
9.375000e+01
1.000000e+02
1.062500e+02
1.125000e+02
1.187500e+02
1.250000e+02
1.312500e+02
1.375000e+02
1.437500e+02
1.500000e+02
1.562500e+02
1.625000e+02
1.687500e+02
1.750000e+02
1.812500e+02
1.875000e+02
1.937500e+02
2.000000e+02
0.000000e+00
6.250000e+00
1.250000e+01
1.875000e+01
2.500000e+01
3.125000e+01
3.750000e+01
4.375000e+01
5.000000e+01
5.625000e+01
6.250000e+01
6.875000e+01
7.500000e+01
8.125000e+01
8.750000e+01
9.375000e+01
1.000000e+02
1.062500e+02
1.125000e+02
1.187500e+02
1.250000e+02
1.312500e+02
1.375000e+02
1.437500e+02
1.500000e+02
1.562500e+02
1.625000e+02
1.687500e+02
1.750000e+02
1.812500e+02
1.875000e+02
1.937500e+02
2.000000e+02
0.000000e+00
6.250000e+00
1.250000e+01
1.875000e+01
2.500000e+01
3.125000e+01
3.750000e+01
4.375000e+01
5.000000e+01
5.625000e+01
6.250000e+01
6.875000e+01
7.500000e+01
8.125000e+01
8.750000e+01
9.375000e+01
1.000000e+02
1.062500e+02
1.125000e+02
1.187500e+02
1.250000e+02
1.312500e+02
1.375000e+02
1.437500e+02
1.500000e+02
1.562500e+02
1.625000e+02
1.687500e+02
1.750000e+02
1.812500e+02
1.875000e+02
1.937500e+02
2.000000e+02
0.000000e+00
6.250000e+00
1.250000e+01
1.875000e+01
2.500000e+01
3.125000e+01
3.750000e+01
4.375000e+01
5.000000e+01
5.625000e+01
6.250000e+01
6.875000e+01
7.500000e+01
8.125000e+01
8.750000e+01
9.375000e+01
1.000000e+02
1.062500e+02
1.125000e+02
1.187500e+02
1.250000e+02
1.312500e+02
1.375000e+02
1.437500e+02
1.500000e+02
1.562500e+02
1.625000e+02
1.687500e+02
1.750000e+02
1.812500e+02
1.875000e+02
1.937500e+02
2.000000e+02
0.000000e+00
6.250000e+00
1.250000e+01
1.875000e+01
2.500000e+01
3.125000e+01
3.750000e+01
4.375000e+01
5.000000e+01
5.625000e+01
6.250000e+01
6.875000e+01
7.500000e+01
8.125000e+01
8.750000e+01
9.375000e+01
1.000000e+02
1.062500e+02
1.125000e+02
1.187500e+02
1.250000e+02
1.312500e+02
1.375000e+02
1.437500e+02
1.500000e+02
1.562500e+02
1.625000e+02
1.687500e+02
1.750000e+02
1.812500e+02
1.875000e+02
1.937500e+02
2.000000e+02
0.000000e+00
6.250000e+00
1.250000e+01
1.875000e+01
2.500000e+01
3.125000e+01
3.750000e+01
4.375000e+01
5.000000e+01
5.625000e+01
6.250000e+01
6.875000e+01
7.500000e+01
8.125000e+01
8.750000e+01
9.375000e+01
1.000000e+02
1.062500e+02
1.125000e+02
1.187500e+02
1.250000e+02
1.312500e+02
1.375000e+02
1.437500e+02
1.500000e+02
1.562500e+02
1.625000e+02
1.687500e+02
1.750000e+02
1.812500e+02
1.875000e+02
1.937500e+02
2.000000e+02
0.000000e+00
6.250000e+00
1.250000e+01
1.875000e+01
2.500000e+01
3.125000e+01
3.750000e+01
4.375000e+01
5.000000e+01
5.625000e+01
6.250000e+01
6.875000e+01
7.500000e+01
8.125000e+01
8.750000e+01
9.375000e+01
1.000000e+02
1.062500e+02
1.125000e+02
1.187500e+02
1.250000e+02
1.312500e+02
1.375000e+02
1.437500e+02
1.500000e+02
1.562500e+02
1.625000e+02
1.687500e+02
1.750000e+02
1.812500e+02
1.875000e+02
1.937500e+02
2.000000e+02
0.000000e+00
6.250000e+00
1.250000e+01
1.875000e+01
2.500000e+01
3.125000e+01
3.750000e+01
4.375000e+01
5.000000e+01
5.625000e+01
6.250000e+01
6.875000e+01
7.500000e+01
8.125000e+01
8.750000e+01
9.375000e+01
1.000000e+02
1.062500e+02
1.125000e+02
1.187500e+02
1.250000e+02
1.312500e+02
1.375000e+02
1.437500e+02
1.500000e+02
1.562500e+02
1.625000e+02
1.687500e+02
1.750000e+02
1.812500e+02
1.875000e+02
1.937500e+02
2.000000e+02
0.000000e+00
6.250000e+00
1.250000e+01
1.875000e+01
2.500000e+01
3.125000e+01
3.750000e+01
4.375000e+01
5.000000e+01
5.625000e+01
6.250000e+01
6.875000e+01
7.500000e+01
8.125000e+01
8.750000e+01
9.375000e+01
1.000000e+02
1.062500e+02
1.125000e+02
1.187500e+02
1.250000e+02
1.312500e+02
1.375000e+02
1.437500e+02
1.500000e+02
1.562500e+02
1.625000e+02
1.687500e+02
1.750000e+02
1.812500e+02
1.875000e+02
1.937500e+02
2.000000e+02
0.000000e+00
6.250000e+00
1.250000e+01
1.875000e+01
2.500000e+01
3.125000e+01
3.750000e+01
4.375000e+01
5.000000e+01
5.625000e+01
6.250000e+01
6.875000e+01
7.500000e+01
8.125000e+01
8.750000e+01
9.375000e+01
1.000000e+02
1.062500e+02
1.125000e+02
1.187500e+02
1.250000e+02
1.312500e+02
1.375000e+02
1.437500e+02
1.500000e+02
1.562500e+02
1.625000e+02
1.687500e+02
1.750000e+02
1.812500e+02
1.875000e+02
1.937500e+02
2.000000e+02
0.000000e+00
6.250000e+00
1.250000e+01
1.875000e+01
2.500000e+01
3.125000e+01
3.750000e+01
4.375000e+01
5.000000e+01
5.625000e+01
6.250000e+01
6.875000e+01
7.500000e+01
8.125000e+01
8.750000e+01
9.375000e+01
1.000000e+02
1.062500e+02
1.125000e+02
1.187500e+02
1.250000e+02
1.312500e+02
1.375000e+02
1.437500e+02
1.500000e+02
1.562500e+02
1.625000e+02
1.687500e+02
1.750000e+02
1.812500e+02
1.875000e+02
1.937500e+02
2.000000e+02
0.000000e+00
6.250000e+00
1.250000e+01
1.875000e+01
2.500000e+01
3.125000e+01
3.750000e+01
4.375000e+01
5.000000e+01
5.625000e+01
6.250000e+01
6.875000e+01
7.500000e+01
8.125000e+01
8.750000e+01
9.375000e+01
1.000000e+02
1.062500e+02
1.125000e+02
1.187500e+02
1.250000e+02
1.312500e+02
1.375000e+02
1.437500e+02
1.500000e+02
1.562500e+02
1.625000e+02
1.687500e+02
1.750000e+02
1.812500e+02
1.875000e+02
1.937500e+02
2.000000e+02
0.000000e+00
6.250000e+00
1.250000e+01
1.875000e+01
2.500000e+01
3.125000e+01
3.750000e+01
4.375000e+01
5.000000e+01
5.625000e+01
6.250000e+01
6.875000e+01
7.500000e+01
8.125000e+01
8.750000e+01
9.375000e+01
1.000000e+02
1.062500e+02
1.125000e+02
1.187500e+02
1.250000e+02
1.312500e+02
1.375000e+02
1.437500e+02
1.500000e+02
1.562500e+02
1.625000e+02
1.687500e+02
1.750000e+02
1.812500e+02
1.875000e+02
1.937500e+02
2.000000e+02
0.000000e+00
6.250000e+00
1.250000e+01
1.875000e+01
2.500000e+01
3.125000e+01
3.750000e+01
4.375000e+01
5.000000e+01
5.625000e+01
6.250000e+01
6.875000e+01
7.500000e+01
8.125000e+01
8.750000e+01
9.375000e+01
1.000000e+02
1.062500e+02
1.125000e+02
1.187500e+02
1.250000e+02
1.312500e+02
1.375000e+02
1.437500e+02
1.500000e+02
1.562500e+02
1.625000e+02
1.687500e+02
1.750000e+02
1.812500e+02
1.875000e+02
1.937500e+02
2.000000e+02
0.000000e+00
6.250000e+00
1.250000e+01
1.875000e+01
2.500000e+01
3.125000e+01
3.750000e+01
4.375000e+01
5.000000e+01
5.625000e+01
6.250000e+01
6.875000e+01
7.500000e+01
8.125000e+01
8.750000e+01
9.375000e+01
1.000000e+02
1.062500e+02
1.125000e+02
1.187500e+02
1.250000e+02
1.312500e+02
1.375000e+02
1.437500e+02
1.500000e+02
1.562500e+02
1.625000e+02
1.687500e+02
1.750000e+02
1.812500e+02
1.875000e+02
1.937500e+02
2.000000e+02
0.000000e+00
6.250000e+00
1.250000e+01
1.875000e+01
2.500000e+01
3.125000e+01
3.750000e+01
4.375000e+01
5.000000e+01
5.625000e+01
6.250000e+01
6.875000e+01
7.500000e+01
8.125000e+01
8.750000e+01
9.375000e+01
1.000000e+02
1.062500e+02
1.125000e+02
1.187500e+02
1.250000e+02
1.312500e+02
1.375000e+02
1.437500e+02
1.500000e+02
1.562500e+02
1.625000e+02
1.687500e+02
1.750000e+02
1.812500e+02
1.875000e+02
1.937500e+02
2.000000e+02
0.000000e+00
0.000000e+00
0.000000e+00
0.000000e+00
0.000000e+00
0.000000e+00
0.000000e+00
0.000000e+00
0.000000e+00
0.000000e+00
0.000000e+00
0.000000e+00
0.000000e+00
0.000000e+00
0.000000e+00
0.000000e+00
0.000000e+00
0.000000e+00
0.000000e+00
0.000000e+00
0.000000e+00
0.000000e+00
0.000000e+00
0.000000e+00
0.000000e+00
0.000000e+00
0.000000e+00
0.000000e+00
0.000000e+00
0.000000e+00
0.000000e+00
0.000000e+00
0.000000e+00
6.250000e+00
6.250000e+00
6.250000e+00
6.250000e+00
6.250000e+00
6.250000e+00
6.250000e+00
6.250000e+00
6.250000e+00
6.250000e+00
6.250000e+00
6.250000e+00
6.250000e+00
6.250000e+00
6.250000e+00
6.250000e+00
6.250000e+00
6.250000e+00
6.250000e+00
6.250000e+00
6.250000e+00
6.250000e+00
6.250000e+00
6.250000e+00
6.250000e+00
6.250000e+00
6.250000e+00
6.250000e+00
6.250000e+00
6.250000e+00
6.250000e+00
6.250000e+00
6.250000e+00
1.250000e+01
1.250000e+01
1.250000e+01
1.250000e+01
1.250000e+01
1.250000e+01
1.250000e+01
1.250000e+01
1.250000e+01
1.250000e+01
1.250000e+01
1.250000e+01
1.250000e+01
1.250000e+01
1.250000e+01
1.250000e+01
1.250000e+01
1.250000e+01
1.250000e+01
1.250000e+01
1.250000e+01
1.250000e+01
1.250000e+01
1.250000e+01
1.250000e+01
1.250000e+01
1.250000e+01
1.250000e+01
1.250000e+01
1.250000e+01
1.250000e+01
1.250000e+01
1.250000e+01
1.875000e+01
1.875000e+01
1.875000e+01
1.875000e+01
1.875000e+01
1.875000e+01
1.875000e+01
1.875000e+01
1.875000e+01
1.875000e+01
1.875000e+01
1.875000e+01
1.875000e+01
1.875000e+01
1.875000e+01
1.875000e+01
1.875000e+01
1.875000e+01
1.875000e+01
1.875000e+01
1.875000e+01
1.875000e+01
1.875000e+01
1.875000e+01
1.875000e+01
1.875000e+01
1.875000e+01
1.875000e+01
1.875000e+01
1.875000e+01
1.875000e+01
1.875000e+01
1.875000e+01
2.500000e+01
2.500000e+01
2.500000e+01
2.500000e+01
2.500000e+01
2.500000e+01
2.500000e+01
2.500000e+01
2.500000e+01
2.500000e+01
2.500000e+01
2.500000e+01
2.500000e+01
2.500000e+01
2.500000e+01
2.500000e+01
2.500000e+01
2.500000e+01
2.500000e+01
2.500000e+01
2.500000e+01
2.500000e+01
2.500000e+01
2.500000e+01
2.500000e+01
2.500000e+01
2.500000e+01
2.500000e+01
2.500000e+01
2.500000e+01
2.500000e+01
2.500000e+01
2.500000e+01
3.125000e+01
3.125000e+01
3.125000e+01
3.125000e+01
3.125000e+01
3.125000e+01
3.125000e+01
3.125000e+01
3.125000e+01
3.125000e+01
3.125000e+01
3.125000e+01
3.125000e+01
3.125000e+01
3.125000e+01
3.125000e+01
3.125000e+01
3.125000e+01
3.125000e+01
3.125000e+01
3.125000e+01
3.125000e+01
3.125000e+01
3.125000e+01
3.125000e+01
3.125000e+01
3.125000e+01
3.125000e+01
3.125000e+01
3.125000e+01
3.125000e+01
3.125000e+01
3.125000e+01
3.750000e+01
3.750000e+01
3.750000e+01
3.750000e+01
3.750000e+01
3.750000e+01
3.750000e+01
3.750000e+01
3.750000e+01
3.750000e+01
3.750000e+01
3.750000e+01
3.750000e+01
3.750000e+01
3.750000e+01
3.750000e+01
3.750000e+01
3.750000e+01
3.750000e+01
3.750000e+01
3.750000e+01
3.750000e+01
3.750000e+01
3.750000e+01
3.750000e+01
3.750000e+01
3.750000e+01
3.750000e+01
3.750000e+01
3.750000e+01
3.750000e+01
3.750000e+01
3.750000e+01
4.375000e+01
4.375000e+01
4.375000e+01
4.375000e+01
4.375000e+01
4.375000e+01
4.375000e+01
4.375000e+01
4.375000e+01
4.375000e+01
4.375000e+01
4.375000e+01
4.375000e+01
4.375000e+01
4.375000e+01
4.375000e+01
4.375000e+01
4.375000e+01
4.375000e+01
4.375000e+01
4.375000e+01
4.375000e+01
4.375000e+01
4.375000e+01
4.375000e+01
4.375000e+01
4.375000e+01
4.375000e+01
4.375000e+01
4.375000e+01
4.375000e+01
4.375000e+01
4.375000e+01
5.000000e+01
5.000000e+01
5.000000e+01
5.000000e+01
5.000000e+01
5.000000e+01
5.000000e+01
5.000000e+01
5.000000e+01
5.000000e+01
5.000000e+01
5.000000e+01
5.000000e+01
5.000000e+01
5.000000e+01
5.000000e+01
5.000000e+01
5.000000e+01
5.000000e+01
5.000000e+01
5.000000e+01
5.000000e+01
5.000000e+01
5.000000e+01
5.000000e+01
5.000000e+01
5.000000e+01
5.000000e+01
5.000000e+01
5.000000e+01
5.000000e+01
5.000000e+01
5.000000e+01
5.625000e+01
5.625000e+01
5.625000e+01
5.625000e+01
5.625000e+01
5.625000e+01
5.625000e+01
5.625000e+01
5.625000e+01
5.625000e+01
5.625000e+01
5.625000e+01
5.625000e+01
5.625000e+01
5.625000e+01
5.625000e+01
5.625000e+01
5.625000e+01
5.625000e+01
5.625000e+01
5.625000e+01
5.625000e+01
5.625000e+01
5.625000e+01
5.625000e+01
5.625000e+01
5.625000e+01
5.625000e+01
5.625000e+01
5.625000e+01
5.625000e+01
5.625000e+01
5.625000e+01
6.250000e+01
6.250000e+01
6.250000e+01
6.250000e+01
6.250000e+01
6.250000e+01
6.250000e+01
6.250000e+01
6.250000e+01
6.250000e+01
6.250000e+01
6.250000e+01
6.250000e+01
6.250000e+01
6.250000e+01
6.250000e+01
6.250000e+01
6.250000e+01
6.250000e+01
6.250000e+01
6.250000e+01
6.250000e+01
6.250000e+01
6.250000e+01
6.250000e+01
6.250000e+01
6.250000e+01
6.250000e+01
6.250000e+01
6.250000e+01
6.250000e+01
6.250000e+01
6.250000e+01
6.875000e+01
6.875000e+01
6.875000e+01
6.875000e+01
6.875000e+01
6.875000e+01
6.875000e+01
6.875000e+01
6.875000e+01
6.875000e+01
6.875000e+01
6.875000e+01
6.875000e+01
6.875000e+01
6.875000e+01
6.875000e+01
6.875000e+01
6.875000e+01
6.875000e+01
6.875000e+01
6.875000e+01
6.875000e+01
6.875000e+01
6.875000e+01
6.875000e+01
6.875000e+01
6.875000e+01
6.875000e+01
6.875000e+01
6.875000e+01
6.875000e+01
6.875000e+01
6.875000e+01
7.500000e+01
7.500000e+01
7.500000e+01
7.500000e+01
7.500000e+01
7.500000e+01
7.500000e+01
7.500000e+01
7.500000e+01
7.500000e+01
7.500000e+01
7.500000e+01
7.500000e+01
7.500000e+01
7.500000e+01
7.500000e+01
7.500000e+01
7.500000e+01
7.500000e+01
7.500000e+01
7.500000e+01
7.500000e+01
7.500000e+01
7.500000e+01
7.500000e+01
7.500000e+01
7.500000e+01
7.500000e+01
7.500000e+01
7.500000e+01
7.500000e+01
7.500000e+01
7.500000e+01
8.125000e+01
8.125000e+01
8.125000e+01
8.125000e+01
8.125000e+01
8.125000e+01
8.125000e+01
8.125000e+01
8.125000e+01
8.125000e+01
8.125000e+01
8.125000e+01
8.125000e+01
8.125000e+01
8.125000e+01
8.125000e+01
8.125000e+01
8.125000e+01
8.125000e+01
8.125000e+01
8.125000e+01
8.125000e+01
8.125000e+01
8.125000e+01
8.125000e+01
8.125000e+01
8.125000e+01
8.125000e+01
8.125000e+01
8.125000e+01
8.125000e+01
8.125000e+01
8.125000e+01
8.750000e+01
8.750000e+01
8.750000e+01
8.750000e+01
8.750000e+01
8.750000e+01
8.750000e+01
8.750000e+01
8.750000e+01
8.750000e+01
8.750000e+01
8.750000e+01
8.750000e+01
8.750000e+01
8.750000e+01
8.750000e+01
8.750000e+01
8.750000e+01
8.750000e+01
8.750000e+01
8.750000e+01
8.750000e+01
8.750000e+01
8.750000e+01
8.750000e+01
8.750000e+01
8.750000e+01
8.750000e+01
8.750000e+01
8.750000e+01
8.750000e+01
8.750000e+01
8.750000e+01
9.375000e+01
9.375000e+01
9.375000e+01
9.375000e+01
9.375000e+01
9.375000e+01
9.375000e+01
9.375000e+01
9.375000e+01
9.375000e+01
9.375000e+01
9.375000e+01
9.375000e+01
9.375000e+01
9.375000e+01
9.375000e+01
9.375000e+01
9.375000e+01
9.375000e+01
9.375000e+01
9.375000e+01
9.375000e+01
9.375000e+01
9.375000e+01
9.375000e+01
9.375000e+01
9.375000e+01
9.375000e+01
9.375000e+01
9.375000e+01
9.375000e+01
9.375000e+01
9.375000e+01
1.000000e+02
1.000000e+02
1.000000e+02
1.000000e+02
1.000000e+02
1.000000e+02
1.000000e+02
1.000000e+02
1.000000e+02
1.000000e+02
1.000000e+02
1.000000e+02
1.000000e+02
1.000000e+02
1.000000e+02
1.000000e+02
1.000000e+02
1.000000e+02
1.000000e+02
1.000000e+02
1.000000e+02
1.000000e+02
1.000000e+02
1.000000e+02
1.000000e+02
1.000000e+02
1.000000e+02
1.000000e+02
1.000000e+02
1.000000e+02
1.000000e+02
1.000000e+02
1.000000e+02
0.000000e+00
-4.012525e-02
-7.280192e-02
-1.030722e-01
-1.321232e-01
-1.601764e-01
-1.872880e-01
-2.134556e-01
-2.386629e-01
-2.628914e-01
-2.861260e-01
-3.083562e-01
-3.295765e-01
-3.497866e-01
-3.689912e-01
-3.872003e-01
-4.044303e-01
-4.207049e-01
-4.360568e-01
-4.505301e-01
-4.641838e-01
-4.770956e-01
-4.893684e-01
-5.011387e-01
-5.125893e-01
-5.239686e-01
-5.356218e-01
-5.480409e-01
-5.619478e-01
-5.784050e-01
-5.987905e-01
-6.230844e-01
-6.379107e-01
0.000000e+00
-2.690290e-02
-5.597437e-02
-8.338494e-02
-1.094376e-01
-1.343805e-01
-1.583453e-01
-1.813898e-01
-2.035369e-01
-2.247941e-01
-2.451628e-01
-2.646430e-01
-2.832356e-01
-3.009437e-01
-3.177730e-01
-3.337331e-01
-3.488375e-01
-3.631047e-01
-3.765596e-01
-3.892343e-01
-4.011696e-01
-4.124173e-01
-4.230415e-01
-4.331203e-01
-4.427477e-01
-4.520313e-01
-4.610850e-01
-4.700022e-01
-4.787825e-01
-4.871402e-01
-4.941044e-01
-4.981760e-01
-5.038444e-01
0.000000e+00
-2.133945e-02
-4.393238e-02
-6.693558e-02
-8.928757e-02
-1.108158e-01
-1.315066e-01
-1.513796e-01
-1.704522e-01
-1.887366e-01
-2.062405e-01
-2.229693e-01
-2.389277e-01
-2.541204e-01
-2.685530e-01
-2.822325e-01
-2.951679e-01
-3.073703e-01
-3.188533e-01
-3.296334e-01
-3.397294e-01
-3.491617e-01
-3.579504e-01
-3.661112e-01
-3.736472e-01
-3.805344e-01
-3.866938e-01
-3.919442e-01
-3.959305e-01
-3.980770e-01
-3.978888e-01
-3.966834e-01
-4.033026e-01
0.000000e+00
-1.693096e-02
-3.479698e-02
-5.315208e-02
-7.146417e-02
-8.933270e-02
-1.066046e-01
-1.232251e-01
-1.391793e-01
-1.544664e-01
-1.690906e-01
-1.830566e-01
-1.963691e-01
-2.090325e-01
-2.210503e-01
-2.324260e-01
-2.431627e-01
-2.532631e-01
-2.627294e-01
-2.715621e-01
-2.797588e-01
-2.873122e-01
-2.942054e-01
-3.004064e-01
-3.058579e-01
-3.104637e-01
-3.140713e-01
-3.164604e-01
-3.173726e-01
-3.166954e-01
-3.150508e-01
-3.149526e-01
-3.212589e-01
0.000000e+00
-1.314079e-02
-2.690785e-02
-4.111470e-02
-5.543696e-02
-6.958355e-02
-8.335930e-02
-9.666536e-02
-1.094568e-01
-1.217164e-01
-1.334395e-01
-1.446269e-01
-1.552805e-01
-1.654023e-01
-1.749928e-01
-1.840513e-01
-1.925748e-01
-2.005582e-01
-2.079934e-01
-2.148678e-01
-2.211629e-01
-2.268519e-01
-2.318959e-01
-2.362394e-01
-2.398057e-01
-2.424938e-01
-2.441854e-01
-2.447788e-01
-2.442919e-01
-2.431008e-01
-2.423280e-01
-2.441126e-01
-2.494922e-01
0.000000e+00
-9.657713e-03
-1.972920e-02
-3.012425e-02
-4.066325e-02
-5.114948e-02
-6.142675e-02
-7.139354e-02
-8.099413e-02
-9.020143e-02
-9.900402e-02
-1.073978e-01
-1.153815e-01
-1.229535e-01
-1.301111e-01
-1.368491e-01
-1.431595e-01
-1.490308e-01
-1.544471e-01
-1.593873e-01
-1.638235e-01
-1.677197e-01
-1.710304e-01
-1.737000e-01
-1.756653e-01
-1.768645e-01
-1.772623e-01
-1.769053e-01
-1.760253e-01
-1.751881e-01
-1.753919e-01
-1.776669e-01
-1.821182e-01
0.000000e+00
-6.355936e-03
-1.296328e-02
-1.978022e-02
-2.670956e-02
-3.363466e-02
-4.045107e-02
-4.708268e-02
-5.348184e-02
-5.962227e-02
-6.549068e-02
-7.108040e-02
-7.638714e-02
-8.140649e-02
-8.613238e-02
-9.055618e-02
-9.466595e-02
-9.844590e-02
-1.018757e-01
-1.049302e-01
-1.075786e-01
-1.097851e-01
-1.115094e-01
-1.127111e-01
-1.133567e-01
-1.134368e-01
-1.129954e-01
-1.121785e-01
-1.112970e-01
-1.108698e-01
-1.115364e-01
-1.137513e-01
-1.173445e-01
0.000000e+00
-3.156992e-03
-6.433336e-03
-9.812193e-03
-1.325089e-02
-1.669510e-02
-2.009325e-02
-2.340495e-02
-2.660294e-02
-2.967056e-02
-3.259794e-02
-3.537854e-02
-3.800668e-02
-4.047584e-02
-4.277760e-02
-4.490091e-02
-4.683153e-02
-4.855163e-02
-5.003959e-02
-5.127006e-02
-5.221462e-02
-5.284335e-02
-5.312816e-02
-5.304894e-02
-5.260414e-02
-5.182769e-02
-5.081357e-02
-4.974503e-02
-4.891552e-02
-4.870773e-02
-4.948988e-02
-5.142209e-02
-5.427316e-02
0.000000e+00
-5.093490e-06
-1.104414e-05
-1.752229e-05
-2.418720e-05
-3.057940e-05
-3.600650e-05
-3.941626e-05
-3.924846e-05
-3.325639e-05
-1.829151e-05
9.952727e-06
5.723743e-05
1.311086e-04
2.412457e-04
3.997974e-04
6.216541e-04
9.245711e-04
1.329011e-03
1.857499e-03
2.533195e-03
3.377240e-03
4.404274e-03
5.615411e-03
6.987963e-03
8.461806e-03
9.924099e-03
1.119810e-02
1.204855e-02
1.222101e-02
1.152658e-02
9.953922e-03
7.751328e-03
0.000000e+00
3.147398e-03
6.412492e-03
9.779056e-03
1.320504e-02
1.663697e-02
2.002454e-02
2.332935e-02
2.652702e-02
2.960511e-02
3.255963e-02
3.539215e-02
3.810781e-02
4.071429e-02
4.322145e-02
4.564121e-02
4.798752e-02
5.027634e-02
5.252510e-02
5.475178e-02
5.697302e-02
5.920105e-02
6.143904e-02
6.367458e-02
6.587131e-02
6.795992e-02
6.983108e-02
7.133606e-02
7.230305e-02
7.257682e-02
7.208100e-02
7.088633e-02
6.925157e-02
0.000000e+00
6.348099e-03
1.294613e-02
1.975277e-02
2.667128e-02
3.358567e-02
4.039250e-02
4.701720e-02
5.341443e-02
5.956129e-02
6.544926e-02
7.107820e-02
7.645268e-02
8.157993e-02
8.646894e-02
9.113015e-02
9.557520e-02
9.981678e-02
1.038681e-01
1.077416e-01
1.114474e-01
1.149902e-01
1.183651e-01
1.215528e-01
1.245130e-01
1.271803e-01
1.294617e-01
1.312436e-01
1.324099e-01
1.328762e-01
1.326365e-01
1.318098e-01
1.306688e-01
0.000000e+00
9.652714e-03
1.971806e-02
3.010611e-02
4.063750e-02
5.111586e-02
6.138562e-02
7.134619e-02
8.094332e-02
9.015201e-02
9.896386e-02
1.073791e-01
1.154019e-01
1.230387e-01
1.302966e-01
1.371833e-01
1.437068e-01
1.498756e-01
1.556975e-01
1.611791e-01
1.663245e-01
1.711323e-01
1.755933e-01
1.796863e-01
1.833753e-01
1.866066e-01
1.893107e-01
1.914093e-01
1.928325e-01
1.935456e-01
1.935857e-01
1.931008e-01
1.923797e-01
0.000000e+00
1.313954e-02
2.690475e-02
4.110914e-02
5.542836e-02
6.957144e-02
8.334335e-02
9.664555e-02
1.094335e-01
1.216907e-01
1.334134e-01
1.446036e-01
1.552655e-01
1.654035e-01
1.750219e-01
1.841244e-01
1.927147e-01
2.007955e-01
2.083688e-01
2.154348e-01
2.219916e-01
2.280330e-01
2.335475e-01
2.385159e-01
2.429104e-01
2.466941e-01
2.498237e-01
2.522560e-01
2.539606e-01
2.549399e-01
2.552575e-01
2.550755e-01
2.546956e-01
0.000000e+00
1.693410e-02
3.480337e-02
5.316159e-02
7.147653e-02
8.934755e-02
1.066215e-01
1.232431e-01
1.391970e-01
1.544818e-01
1.691002e-01
1.830556e-01
1.963506e-01
2.089867e-01
2.209642e-01
2.322819e-01
2.429379e-01
2.529286e-01
2.622491e-01
2.708928e-01
2.788510e-01
2.861125e-01
2.926636e-01
2.984878e-01
3.035664e-01
3.078805e-01
3.114138e-01
3.141584e-01
3.161227e-01
3.173435e-01
3.179050e-01
3.179719e-01
3.178459e-01
0.000000e+00
2.134712e-02
4.394877e-02
6.696125e-02
8.932300e-02
1.108615e-01
1.315625e-01
1.514451e-01
1.705255e-01
1.888139e-01
2.063151e-01
2.230306e-01
2.389592e-01
2.540979e-01
2.684421e-01
2.819851e-01
2.947186e-01
3.066323e-01
3.177135e-01
3.279476e-01
3.373176e-01
3.458054e-01
3.533925e-01
3.600619e-01
3.658011e-01
3.706055e-01
3.744838e-01
3.774636e-01
3.795961e-01
3.809620e-01
3.816769e-01
3.819098e-01
3.819375e-01
0.000000e+00
2.691442e-02
5.599956e-02
8.342544e-02
1.094954e-01
1.344576e-01
1.584434e-01
1.815098e-01
2.036783e-01
2.249541e-01
2.453348e-01
2.648147e-01
2.833866e-01
3.010418e-01
3.177705e-01
3.335606e-01
3.483978e-01
3.622646e-01
3.751402e-01
3.870002e-01
3.978175e-01
4.075627e-01
4.162072e-01
4.237262e-01
4.301040e-01
4.353410e-01
4.394619e-01
4.425249e-01
4.446289e-01
4.459181e-01
4.465768e-01
4.468156e-01
4.468741e-01
0.000000e+00
4.013786e-02
7.283137e-02
1.031227e-01
1.321987e-01
1.602810e-01
1.874261e-01
2.136313e-01
2.388792e-01
2.631497e-01
2.864241e-01
3.086862e-01
3.299217e-01
3.501170e-01
3.692581e-01
3.873289e-01
4.043102e-01
4.201784e-01
4.349045e-01
4.484536e-01
4.607849e-01
4.718529e-01
4.816103e-01
4.900123e-01
4.970242e-01
5.026317e-01
5.068550e-01
5.097644e-01
5.114986e-01
5.122799e-01
5.124219e-01
5.123043e-01
5.122381e-01
0.000000e+00
-2.479664e-02
-4.327548e-02
-6.344035e-02
-8.589513e-02
-1.112600e-01
-1.397114e-01
-1.712985e-01
-2.059901e-01
-2.437117e-01
-2.843634e-01
-3.278301e-01
-3.739878e-01
-4.227073e-01
-4.738570e-01
-5.273040e-01
-5.829165e-01
-6.405650e-01
-7.001241e-01
-7.614761e-01
-8.245140e-01
-8.891481e-01
-9.553142e-01
-1.022987e+00
-1.092200e+00
-1.163081e+00
-1.235912e+00
-1.311243e+00
-1.390126e+00
-1.474642e+00
-1.569286e+00
-1.684655e+00
-1.844042e+00
0.000000e+00
-1.541016e-02
-3.475264e-02
-5.505354e-02
-7.782130e-02
-1.034618e-01
-1.321896e-01
-1.640532e-01
-1.990240e-01
-2.370276e-01
-2.779634e-01
-3.217154e-01
-3.681587e-01
-4.171629e-01
-4.685951e-01
-5.223212e-01
-5.782077e-01
-6.361232e-01
-6.959400e-01
-7.575371e-01
-8.208042e-01
-8.856466e-01
-9.519945e-01
-1.019815e+00
-1.089132e+00
-1.160063e+00
-1.232874e+00
-1.308099e+00
-1.386767e+00
-1.470925e+00
-1.564837e+00
-1.677639e+00
-1.826547e+00
0.000000e+00
-1.131965e-02
-2.801741e-02
-4.804138e-02
-7.084891e-02
-9.667834e-02
-1.256329e-01
-1.577394e-01
-1.929592e-01
-2.312145e-01
-2.724031e-01
-3.164080e-01
-3.631037e-01
-4.123593e-01
-4.640414e-01
-5.180156e-01
-5.741476e-01
-6.323052e-01
-6.923599e-01
-7.541897e-01
-8.176833e-01
-8.827455e-01
-9.493059e-01
-1.017333e+00
-1.086853e+00
-1.157991e+00
-1.231024e+00
-1.306499e+00
-1.385434e+00
-1.469671e+00
-1.562361e+00
-1.667227e+00
-1.783554e+00
0.000000e+00
-9.064298e-03
-2.372510e-02
-4.268128e-02
-6.519571e-02
-9.101711e-02
-1.200955e-01
-1.523818e-01
-1.878067e-01
-2.262778e-01
-2.676864e-01
-3.119128e-01
-3.588302e-01
-4.083077e-01
-4.602119e-01
-5.144087e-01
-5.707643e-01
-6.291471e-01
-6.894291e-01
-7.514894e-01
-8.152182e-01
-8.805226e-01
-9.473356e-01
-1.015631e+00
-1.085442e+00
-1.156898e+00
-1.230275e+00
-1.306077e+00
-1.385136e+00
-1.468667e+00
-1.557832e+00
-1.651874e+00
-1.739417e+00
0.000000e+00
-7.669887e-03
-2.091807e-02
-3.887498e-02
-6.087617e-02
-8.652828e-02
-1.156176e-01
-1.480089e-01
-1.835851e-01
-2.222299e-01
-2.638225e-01
-3.082376e-01
-3.553463e-01
-4.050170e-01
-4.571171e-01
-5.115132e-01
-5.680730e-01
-6.266662e-01
-6.871667e-01
-7.494557e-01
-8.134258e-01
-8.789867e-01
-9.460746e-01
-1.014664e+00
-1.084788e+00
-1.156558e+00
-1.230200e+00
-1.306076e+00
-1.384665e+00
-1.466352e+00
-1.550748e+00
-1.634755e+00
-1.710995e+00
0.000000e+00
-6.782610e-03
-1.907632e-02
-3.625565e-02
-5.776159e-02
-8.317341e-02
-1.121995e-01
-1.446322e-01
-1.803080e-01
-2.190831e-01
-2.608215e-01
-3.053907e-01
-3.526584e-01
-4.024927e-01
-4.547613e-01
-5.093326e-01
-5.660756e-01
-6.248621e-01
-6.855681e-01
-7.480767e-01
-8.122817e-01
-8.780937e-01
-9.454468e-01
-1.014308e+00
-1.084691e+00
-1.156662e+00
-1.230348e+00
-1.305909e+00
-1.383432e+00
-1.462655e+00
-1.542372e+00
-1.619734e+00
-1.690443e+00
0.000000e+00
-6.231178e-03
-1.791187e-02
-3.455302e-02
-5.567504e-02
-8.086788e-02
-1.098078e-01
-1.422445e-01
-1.779793e-01
-2.168444e-01
-2.586904e-01
-3.033772e-01
-3.507697e-01
-4.007354e-01
-4.531428e-01
-5.078616e-01
-5.647628e-01
-6.237199e-01
-6.846102e-01
-7.473175e-01
-8.117351e-01
-8.777696e-01
-9.453464e-01
-1.014415e+00
-1.084950e+00
-1.156955e+00
-1.230434e+00
-1.305347e+00
-1.381477e+00
-1.458204e+00
-1.534201e+00
-1.607277e+00
-1.674747e+00
0.000000e+00
-5.928158e-03
-1.726574e-02
-3.359356e-02
-5.447859e-02
-7.952493e-02
-1.083984e-01
-1.408281e-01
-1.765946e-01
-2.155155e-01
-2.574319e-01
-3.021989e-01
-3.496797e-01
-3.997415e-01
-4.522539e-01
-5.070881e-01
-5.641166e-01
-6.232140e-01
-6.842580e-01
-7.471312e-01
-8.117231e-01
-8.779321e-01
-9.456682e-01
-1.014853e+00
-1.085418e+00
-1.157289e+00
-1.230362e+00
-1.304437e+00
-1.379118e+00
-1.453671e+00
-1.526899e+00
-1.597153e+00
-1.662602e+00
0.000000e+00
-5.830526e-03
-1.705728e-02
-3.328259e-02
-5.408865e-02
-7.908541e-02
-1.079367e-01
-1.403659e-01
-1.761475e-01
-2.150944e-01
-2.570452e-01
-3.018539e-01
-3.493838e-01
-3.995032e-01
-4.520828e-01
-5.069951e-01
-5.641138e-01
-6.233137e-01
-6.844717e-01
-7.474673e-01
-8.121833e-01
-8.785063e-01
-9.463263e-01
-1.015534e+00
-1.086012e+00
-1.157620e+00
-1.230164e+00
-1.303345e+00
-1.376691e+00
-1.449477e+00
-1.520693e+00
-1.589080e+00
-1.653295e+00
0.000000e+00
-5.925334e-03
-1.726182e-02
-3.359019e-02
-5.447757e-02
-7.952851e-02
-1.084095e-01
-1.408507e-01
-1.766339e-01
-2.155783e-01
-2.575269e-01
-3.023372e-01
-3.498749e-01
-4.000100e-01
-4.526150e-01
-5.075634e-01
-5.647293e-01
-6.239874e-01
-6.852123e-01
-7.482789e-01
-8.130615e-01
-8.794329e-01
-9.472613e-01
-1.016406e+00
-1.086706e+00
-1.157968e+00
-1.229935e+00
-1.302257e+00
-1.374447e+00
-1.445848e+00
-1.515624e+00
-1.582802e+00
-1.646358e+00
0.000000e+00
-6.225759e-03
-1.790435e-02
-3.454652e-02
-5.567300e-02
-8.087461e-02
-1.098289e-01
-1.422877e-01
-1.780544e-01
-2.169645e-01
-2.588723e-01
-3.036421e-01
-3.511439e-01
-4.012503e-01
-4.538354e-01
-5.087737e-01
-5.659394e-01
-6.252059e-01
-6.864452e-01
-7.495267e-01
-8.143157e-01
-8.806704e-01
-9.484387e-01
-1.017451e+00
-1.087512e+00
-1.158385e+00
-1.229780e+00
-1.301324e+00
-1.372550e+00
-1.442884e+00
-1.511648e+00
-1.578094e+00
-1.641434e+00
0.000000e+00
-6.775078e-03
-1.906586e-02
-3.624656e-02
-5.775865e-02
-8.318261e-02
-1.122288e-01
-1.446921e-01
-1.804126e-01
-2.192505e-01
-2.610755e-01
-3.057607e-01
-3.531813e-01
-4.032128e-01
-4.557305e-01
-5.106096e-01
-5.677240e-01
-6.269456e-01
-6.881435e-01
-7.511816e-01
-8.159164e-01
-8.821933e-01
-9.498420e-01
-1.018670e+00
-1.088454e+00
-1.158932e+00
-1.229790e+00
-1.300655e+00
-1.371094e+00
-1.440614e+00
-1.508680e+00
-1.574736e+00
-1.638206e+00
0.000000e+00
-7.661014e-03
-2.090577e-02
-3.886427e-02
-6.087277e-02
-8.653943e-02
-1.156529e-01
-1.480811e-01
-1.837113e-01
-2.224322e-01
-2.641294e-01
-3.086851e-01
-3.559787e-01
-4.058881e-01
-4.582898e-01
-5.130590e-01
-5.700690e-01
-6.291904e-01
-6.902892e-01
-7.532247e-01
-8.178461e-01
-8.839883e-01
-9.514670e-01
-1.020072e+00
-1.089562e+00
-1.159655e+00
-1.230029e+00
-1.300318e+00
-1.370121e+00
-1.439021e+00
-1.506609e+00
-1.572506e+00
-1.636359e+00
0.000000e+00
-9.055179e-03
-2.371246e-02
-4.267040e-02
-6.519279e-02
-9.103020e-02
-1.201353e-01
-1.524625e-01
-1.879470e-01
-2.265023e-01
-2.680265e-01
-3.124082e-01
-3.595300e-01
-4.092710e-01
-4.615080e-01
-5.161162e-01
-5.729682e-01
-6.319331e-01
-6.928746e-01
-7.556484e-01
-8.200983e-01
-8.860519e-01
-9.533153e-01
-1.021667e+00
-1.090853e+00
-1.160583e+00
-1.230530e+00
-1.300336e+00
-1.369630e+00
-1.438054e+00
-1.505306e+00
-1.571174e+00
-1.635554e+00
0.000000e+00
-1.131171e-02
-2.800635e-02
-4.803219e-02
-7.084804e-02
-9.669428e-02
-1.256768e-01
-1.578262e-01
-1.931084e-01
-2.314514e-01
-2.727602e-01
-3.169263e-01
-3.638335e-01
-4.133613e-01
-4.653865e-01
-5.197836e-01
-5.764246e-01
-6.351773e-01
-6.959038e-01
-7.584572e-01
-8.226781e-01
-8.883896e-01
-9.553927e-01
-1.023460e+00
-1.092333e+00
-1.161716e+00
-1.231284e+00
-1.300687e+00
-1.369575e+00
-1.437631e+00
-1.504631e+00
-1.570505e+00
-1.635413e+00
0.000000e+00
-1.540506e-02
-3.474512e-02
-5.504813e-02
-7.782465e-02
-1.034825e-01
-1.322391e-01
-1.641464e-01
-1.991802e-01
-2.372720e-01
-2.783282e-01
-3.222407e-01
-3.688935e-01
-4.181659e-01
-4.699343e-01
-5.240726e-01
-5.804518e-01
-6.389388e-01
-6.993943e-01
-7.616697e-01
-8.256038e-01
-8.910178e-01
-9.577108e-01
-1.025455e+00
-1.093990e+00
-1.163024e+00
-1.232236e+00
-1.301287e+00
-1.369843e+00
-1.437612e+00
-1.504411e+00
-1.570263e+00
-1.635533e+00
0.000000e+00
-2.479591e-02
-4.327297e-02
-6.344083e-02
-8.590526e-02
-1.112885e-01
-1.397696e-01
-1.714012e-01
-2.061563e-01
-2.439658e-01
-2.847363e-01
-3.283601e-01
-3.747211e-01
-4.236985e-01
-4.751684e-01
-5.290038e-01
-5.850748e-01
-6.432469e-01
-7.033794e-01
-7.653221e-01
-8.289123e-01
-8.939703e-01
-9.602948e-01