TITLE = "Solution"
VARIABLES = x, y, u, v, psiu, psiv, t, stress
ZONE T="structure" N=561 E=512 F=FEBLOCK ET=QUADRILATERAL VARLOCATION=([7,8]=cellcentered)
0.000000e+00
6.250000e+00
1.250000e+01
1.875000e+01
2.500000e+01
3.125000e+01
3.750000e+01
4.375000e+01
5.000000e+01
5.625000e+01
6.250000e+01
6.875000e+01
7.500000e+01
8.125000e+01
8.750000e+01
9.375000e+01
1.000000e+02
1.062500e+02
1.125000e+02
1.187500e+02
1.250000e+02
1.312500e+02
1.375000e+02
1.437500e+02
1.500000e+02
1.562500e+02
1.625000e+02
1.687500e+02
1.750000e+02
1.812500e+02
1.875000e+02
1.937500e+02
2.000000e+02
0.000000e+00
6.250000e+00
1.250000e+01
1.875000e+01
2.500000e+01
3.125000e+01
3.750000e+01
4.375000e+01
5.000000e+01
5.625000e+01
6.250000e+01
6.875000e+01
7.500000e+01
8.125000e+01
8.750000e+01
9.375000e+01
1.000000e+02
1.062500e+02
1.125000e+02
1.187500e+02
1.250000e+02
1.312500e+02
1.375000e+02
1.437500e+02
1.500000e+02
1.562500e+02
1.625000e+02
1.687500e+02
1.750000e+02
1.812500e+02
1.875000e+02
1.937500e+02
2.000000e+02
0.000000e+00
6.250000e+00
1.250000e+01
1.875000e+01
2.500000e+01
3.125000e+01
3.750000e+01
4.375000e+01
5.000000e+01
5.625000e+01
6.250000e+01
6.875000e+01
7.500000e+01
8.125000e+01
8.750000e+01
9.375000e+01
1.000000e+02
1.062500e+02
1.125000e+02
1.187500e+02
1.250000e+02
1.312500e+02
1.375000e+02
1.437500e+02
1.500000e+02
1.562500e+02
1.625000e+02
1.687500e+02
1.750000e+02
1.812500e+02
1.875000e+02
1.937500e+02
2.000000e+02
0.000000e+00
6.250000e+00
1.250000e+01
1.875000e+01
2.500000e+01
3.125000e+01
3.750000e+01
4.375000e+01
5.000000e+01
5.625000e+01
6.250000e+01
6.875000e+01
7.500000e+01
8.125000e+01
8.750000e+01
9.375000e+01
1.000000e+02
1.062500e+02
1.125000e+02
1.187500e+02
1.250000e+02
1.312500e+02
1.375000e+02
1.437500e+02
1.500000e+02
1.562500e+02
1.625000e+02
1.687500e+02
1.750000e+02
1.812500e+02
1.875000e+02
1.937500e+02
2.000000e+02
0.000000e+00
6.250000e+00
1.250000e+01
1.875000e+01
2.500000e+01
3.125000e+01
3.750000e+01
4.375000e+01
5.000000e+01
5.625000e+01
6.250000e+01
6.875000e+01
7.500000e+01
8.125000e+01
8.750000e+01
9.375000e+01
1.000000e+02
1.062500e+02
1.125000e+02
1.187500e+02
1.250000e+02
1.312500e+02
1.375000e+02
1.437500e+02
1.500000e+02
1.562500e+02
1.625000e+02
1.687500e+02
1.750000e+02
1.812500e+02
1.875000e+02
1.937500e+02
2.000000e+02
0.000000e+00
6.250000e+00
1.250000e+01
1.875000e+01
2.500000e+01
3.125000e+01
3.750000e+01
4.375000e+01
5.000000e+01
5.625000e+01
6.250000e+01
6.875000e+01
7.500000e+01
8.125000e+01
8.750000e+01
9.375000e+01
1.000000e+02
1.062500e+02
1.125000e+02
1.187500e+02
1.250000e+02
1.312500e+02
1.375000e+02
1.437500e+02
1.500000e+02
1.562500e+02
1.625000e+02
1.687500e+02
1.750000e+02
1.812500e+02
1.875000e+02
1.937500e+02
2.000000e+02
0.000000e+00
6.250000e+00
1.250000e+01
1.875000e+01
2.500000e+01
3.125000e+01
3.750000e+01
4.375000e+01
5.000000e+01
5.625000e+01
6.250000e+01
6.875000e+01
7.500000e+01
8.125000e+01
8.750000e+01
9.375000e+01
1.000000e+02
1.062500e+02
1.125000e+02
1.187500e+02
1.250000e+02
1.312500e+02
1.375000e+02
1.437500e+02
1.500000e+02
1.562500e+02
1.625000e+02
1.687500e+02
1.750000e+02
1.812500e+02
1.875000e+02
1.937500e+02
2.000000e+02
0.000000e+00
6.250000e+00
1.250000e+01
1.875000e+01
2.500000e+01
3.125000e+01
3.750000e+01
4.375000e+01
5.000000e+01
5.625000e+01
6.250000e+01
6.875000e+01
7.500000e+01
8.125000e+01
8.750000e+01
9.375000e+01
1.000000e+02
1.062500e+02
1.125000e+02
1.187500e+02
1.250000e+02
1.312500e+02
1.375000e+02
1.437500e+02
1.500000e+02
1.562500e+02
1.625000e+02
1.687500e+02
1.750000e+02
1.812500e+02
1.875000e+02
1.937500e+02
2.000000e+02
0.000000e+00
6.250000e+00
1.250000e+01
1.875000e+01
2.500000e+01
3.125000e+01
3.750000e+01
4.375000e+01
5.000000e+01
5.625000e+01
6.250000e+01
6.875000e+01
7.500000e+01
8.125000e+01
8.750000e+01
9.375000e+01
1.000000e+02
1.062500e+02
1.125000e+02
1.187500e+02
1.250000e+02
1.312500e+02
1.375000e+02
1.437500e+02
1.500000e+02
1.562500e+02
1.625000e+02
1.687500e+02
1.750000e+02
1.812500e+02
1.875000e+02
1.937500e+02
2.000000e+02
0.000000e+00
6.250000e+00
1.250000e+01
1.875000e+01
2.500000e+01
3.125000e+01
3.750000e+01
4.375000e+01
5.000000e+01
5.625000e+01
6.250000e+01
6.875000e+01
7.500000e+01
8.125000e+01
8.750000e+01
9.375000e+01
1.000000e+02
1.062500e+02
1.125000e+02
1.187500e+02
1.250000e+02
1.312500e+02
1.375000e+02
1.437500e+02
1.500000e+02
1.562500e+02
1.625000e+02
1.687500e+02
1.750000e+02
1.812500e+02
1.875000e+02
1.937500e+02
2.000000e+02
0.000000e+00
6.250000e+00
1.250000e+01
1.875000e+01
2.500000e+01
3.125000e+01
3.750000e+01
4.375000e+01
5.000000e+01
5.625000e+01
6.250000e+01
6.875000e+01
7.500000e+01
8.125000e+01
8.750000e+01
9.375000e+01
1.000000e+02
1.062500e+02
1.125000e+02
1.187500e+02
1.250000e+02
1.312500e+02
1.375000e+02
1.437500e+02
1.500000e+02
1.562500e+02
1.625000e+02
1.687500e+02
1.750000e+02
1.812500e+02
1.875000e+02
1.937500e+02
2.000000e+02
0.000000e+00
6.250000e+00
1.250000e+01
1.875000e+01
2.500000e+01
3.125000e+01
3.750000e+01
4.375000e+01
5.000000e+01
5.625000e+01
6.250000e+01
6.875000e+01
7.500000e+01
8.125000e+01
8.750000e+01
9.375000e+01
1.000000e+02
1.062500e+02
1.125000e+02
1.187500e+02
1.250000e+02
1.312500e+02
1.375000e+02
1.437500e+02
1.500000e+02
1.562500e+02
1.625000e+02
1.687500e+02
1.750000e+02
1.812500e+02
1.875000e+02
1.937500e+02
2.000000e+02
0.000000e+00
6.250000e+00
1.250000e+01
1.875000e+01
2.500000e+01
3.125000e+01
3.750000e+01
4.375000e+01
5.000000e+01
5.625000e+01
6.250000e+01
6.875000e+01
7.500000e+01
8.125000e+01
8.750000e+01
9.375000e+01
1.000000e+02
1.062500e+02
1.125000e+02
1.187500e+02
1.250000e+02
1.312500e+02
1.375000e+02
1.437500e+02
1.500000e+02
1.562500e+02
1.625000e+02
1.687500e+02
1.750000e+02
1.812500e+02
1.875000e+02
1.937500e+02
2.000000e+02
0.000000e+00
6.250000e+00
1.250000e+01
1.875000e+01
2.500000e+01
3.125000e+01
3.750000e+01
4.375000e+01
5.000000e+01
5.625000e+01
6.250000e+01
6.875000e+01
7.500000e+01
8.125000e+01
8.750000e+01
9.375000e+01
1.000000e+02
1.062500e+02
1.125000e+02
1.187500e+02
1.250000e+02
1.312500e+02
1.375000e+02
1.437500e+02
1.500000e+02
1.562500e+02
1.625000e+02
1.687500e+02
1.750000e+02
1.812500e+02
1.875000e+02
1.937500e+02
2.000000e+02
0.000000e+00
6.250000e+00
1.250000e+01
1.875000e+01
2.500000e+01
3.125000e+01
3.750000e+01
4.375000e+01
5.000000e+01
5.625000e+01
6.250000e+01
6.875000e+01
7.500000e+01
8.125000e+01
8.750000e+01
9.375000e+01
1.000000e+02
1.062500e+02
1.125000e+02
1.187500e+02
1.250000e+02
1.312500e+02
1.375000e+02
1.437500e+02
1.500000e+02
1.562500e+02
1.625000e+02
1.687500e+02
1.750000e+02
1.812500e+02
1.875000e+02
1.937500e+02
2.000000e+02
0.000000e+00
6.250000e+00
1.250000e+01
1.875000e+01
2.500000e+01
3.125000e+01
3.750000e+01
4.375000e+01
5.000000e+01
5.625000e+01
6.250000e+01
6.875000e+01
7.500000e+01
8.125000e+01
8.750000e+01
9.375000e+01
1.000000e+02
1.062500e+02
1.125000e+02
1.187500e+02
1.250000e+02
1.312500e+02
1.375000e+02
1.437500e+02
1.500000e+02
1.562500e+02
1.625000e+02
1.687500e+02
1.750000e+02
1.812500e+02
1.875000e+02
1.937500e+02
2.000000e+02
0.000000e+00
6.250000e+00
1.250000e+01
1.875000e+01
2.500000e+01
3.125000e+01
3.750000e+01
4.375000e+01
5.000000e+01
5.625000e+01
6.250000e+01
6.875000e+01
7.500000e+01
8.125000e+01
8.750000e+01
9.375000e+01
1.000000e+02
1.062500e+02
1.125000e+02
1.187500e+02
1.250000e+02
1.312500e+02
1.375000e+02
1.437500e+02
1.500000e+02
1.562500e+02
1.625000e+02
1.687500e+02
1.750000e+02
1.812500e+02
1.875000e+02
1.937500e+02
2.000000e+02
0.000000e+00
0.000000e+00
0.000000e+00
0.000000e+00
0.000000e+00
0.000000e+00
0.000000e+00
0.000000e+00
0.000000e+00
0.000000e+00
0.000000e+00
0.000000e+00
0.000000e+00
0.000000e+00
0.000000e+00
0.000000e+00
0.000000e+00
0.000000e+00
0.000000e+00
0.000000e+00
0.000000e+00
0.000000e+00
0.000000e+00
0.000000e+00
0.000000e+00
0.000000e+00
0.000000e+00
0.000000e+00
0.000000e+00
0.000000e+00
0.000000e+00
0.000000e+00
0.000000e+00
6.250000e+00
6.250000e+00
6.250000e+00
6.250000e+00
6.250000e+00
6.250000e+00
6.250000e+00
6.250000e+00
6.250000e+00
6.250000e+00
6.250000e+00
6.250000e+00
6.250000e+00
6.250000e+00
6.250000e+00
6.250000e+00
6.250000e+00
6.250000e+00
6.250000e+00
6.250000e+00
6.250000e+00
6.250000e+00
6.250000e+00
6.250000e+00
6.250000e+00
6.250000e+00
6.250000e+00
6.250000e+00
6.250000e+00
6.250000e+00
6.250000e+00
6.250000e+00
6.250000e+00
1.250000e+01
1.250000e+01
1.250000e+01
1.250000e+01
1.250000e+01
1.250000e+01
1.250000e+01
1.250000e+01
1.250000e+01
1.250000e+01
1.250000e+01
1.250000e+01
1.250000e+01
1.250000e+01
1.250000e+01
1.250000e+01
1.250000e+01
1.250000e+01
1.250000e+01
1.250000e+01
1.250000e+01
1.250000e+01
1.250000e+01
1.250000e+01
1.250000e+01
1.250000e+01
1.250000e+01
1.250000e+01
1.250000e+01
1.250000e+01
1.250000e+01
1.250000e+01
1.250000e+01
1.875000e+01
1.875000e+01
1.875000e+01
1.875000e+01
1.875000e+01
1.875000e+01
1.875000e+01
1.875000e+01
1.875000e+01
1.875000e+01
1.875000e+01
1.875000e+01
1.875000e+01
1.875000e+01
1.875000e+01
1.875000e+01
1.875000e+01
1.875000e+01
1.875000e+01
1.875000e+01
1.875000e+01
1.875000e+01
1.875000e+01
1.875000e+01
1.875000e+01
1.875000e+01
1.875000e+01
1.875000e+01
1.875000e+01
1.875000e+01
1.875000e+01
1.875000e+01
1.875000e+01
2.500000e+01
2.500000e+01
2.500000e+01
2.500000e+01
2.500000e+01
2.500000e+01
2.500000e+01
2.500000e+01
2.500000e+01
2.500000e+01
2.500000e+01
2.500000e+01
2.500000e+01
2.500000e+01
2.500000e+01
2.500000e+01
2.500000e+01
2.500000e+01
2.500000e+01
2.500000e+01
2.500000e+01
2.500000e+01
2.500000e+01
2.500000e+01
2.500000e+01
2.500000e+01
2.500000e+01
2.500000e+01
2.500000e+01
2.500000e+01
2.500000e+01
2.500000e+01
2.500000e+01
3.125000e+01
3.125000e+01
3.125000e+01
3.125000e+01
3.125000e+01
3.125000e+01
3.125000e+01
3.125000e+01
3.125000e+01
3.125000e+01
3.125000e+01
3.125000e+01
3.125000e+01
3.125000e+01
3.125000e+01
3.125000e+01
3.125000e+01
3.125000e+01
3.125000e+01
3.125000e+01
3.125000e+01
3.125000e+01
3.125000e+01
3.125000e+01
3.125000e+01
3.125000e+01
3.125000e+01
3.125000e+01
3.125000e+01
3.125000e+01
3.125000e+01
3.125000e+01
3.125000e+01
3.750000e+01
3.750000e+01
3.750000e+01
3.750000e+01
3.750000e+01
3.750000e+01
3.750000e+01
3.750000e+01
3.750000e+01
3.750000e+01
3.750000e+01
3.750000e+01
3.750000e+01
3.750000e+01
3.750000e+01
3.750000e+01
3.750000e+01
3.750000e+01
3.750000e+01
3.750000e+01
3.750000e+01
3.750000e+01
3.750000e+01
3.750000e+01
3.750000e+01
3.750000e+01
3.750000e+01
3.750000e+01
3.750000e+01
3.750000e+01
3.750000e+01
3.750000e+01
3.750000e+01
4.375000e+01
4.375000e+01
4.375000e+01
4.375000e+01
4.375000e+01
4.375000e+01
4.375000e+01
4.375000e+01
4.375000e+01
4.375000e+01
4.375000e+01
4.375000e+01
4.375000e+01
4.375000e+01
4.375000e+01
4.375000e+01
4.375000e+01
4.375000e+01
4.375000e+01
4.375000e+01
4.375000e+01
4.375000e+01
4.375000e+01
4.375000e+01
4.375000e+01
4.375000e+01
4.375000e+01
4.375000e+01
4.375000e+01
4.375000e+01
4.375000e+01
4.375000e+01
4.375000e+01
5.000000e+01
5.000000e+01
5.000000e+01
5.000000e+01
5.000000e+01
5.000000e+01
5.000000e+01
5.000000e+01
5.000000e+01
5.000000e+01
5.000000e+01
5.000000e+01
5.000000e+01
5.000000e+01
5.000000e+01
5.000000e+01
5.000000e+01
5.000000e+01
5.000000e+01
5.000000e+01
5.000000e+01
5.000000e+01
5.000000e+01
5.000000e+01
5.000000e+01
5.000000e+01
5.000000e+01
5.000000e+01
5.000000e+01
5.000000e+01
5.000000e+01
5.000000e+01
5.000000e+01
5.625000e+01
5.625000e+01
5.625000e+01
5.625000e+01
5.625000e+01
5.625000e+01
5.625000e+01
5.625000e+01
5.625000e+01
5.625000e+01
5.625000e+01
5.625000e+01
5.625000e+01
5.625000e+01
5.625000e+01
5.625000e+01
5.625000e+01
5.625000e+01
5.625000e+01
5.625000e+01
5.625000e+01
5.625000e+01
5.625000e+01
5.625000e+01
5.625000e+01
5.625000e+01
5.625000e+01
5.625000e+01
5.625000e+01
5.625000e+01
5.625000e+01
5.625000e+01
5.625000e+01
6.250000e+01
6.250000e+01
6.250000e+01
6.250000e+01
6.250000e+01
6.250000e+01
6.250000e+01
6.250000e+01
6.250000e+01
6.250000e+01
6.250000e+01
6.250000e+01
6.250000e+01
6.250000e+01
6.250000e+01
6.250000e+01
6.250000e+01
6.250000e+01
6.250000e+01
6.250000e+01
6.250000e+01
6.250000e+01
6.250000e+01
6.250000e+01
6.250000e+01
6.250000e+01
6.250000e+01
6.250000e+01
6.250000e+01
6.250000e+01
6.250000e+01
6.250000e+01
6.250000e+01
6.875000e+01
6.875000e+01
6.875000e+01
6.875000e+01
6.875000e+01
6.875000e+01
6.875000e+01
6.875000e+01
6.875000e+01
6.875000e+01
6.875000e+01
6.875000e+01
6.875000e+01
6.875000e+01
6.875000e+01
6.875000e+01
6.875000e+01
6.875000e+01
6.875000e+01
6.875000e+01
6.875000e+01
6.875000e+01
6.875000e+01
6.875000e+01
6.875000e+01
6.875000e+01
6.875000e+01
6.875000e+01
6.875000e+01
6.875000e+01
6.875000e+01
6.875000e+01
6.875000e+01
7.500000e+01
7.500000e+01
7.500000e+01
7.500000e+01
7.500000e+01
7.500000e+01
7.500000e+01
7.500000e+01
7.500000e+01
7.500000e+01
7.500000e+01
7.500000e+01
7.500000e+01
7.500000e+01
7.500000e+01
7.500000e+01
7.500000e+01
7.500000e+01
7.500000e+01
7.500000e+01
7.500000e+01
7.500000e+01
7.500000e+01
7.500000e+01
7.500000e+01
7.500000e+01
7.500000e+01
7.500000e+01
7.500000e+01
7.500000e+01
7.500000e+01
7.500000e+01
7.500000e+01
8.125000e+01
8.125000e+01
8.125000e+01
8.125000e+01
8.125000e+01
8.125000e+01
8.125000e+01
8.125000e+01
8.125000e+01
8.125000e+01
8.125000e+01
8.125000e+01
8.125000e+01
8.125000e+01
8.125000e+01
8.125000e+01
8.125000e+01
8.125000e+01
8.125000e+01
8.125000e+01
8.125000e+01
8.125000e+01
8.125000e+01
8.125000e+01
8.125000e+01
8.125000e+01
8.125000e+01
8.125000e+01
8.125000e+01
8.125000e+01
8.125000e+01
8.125000e+01
8.125000e+01
8.750000e+01
8.750000e+01
8.750000e+01
8.750000e+01
8.750000e+01
8.750000e+01
8.750000e+01
8.750000e+01
8.750000e+01
8.750000e+01
8.750000e+01
8.750000e+01
8.750000e+01
8.750000e+01
8.750000e+01
8.750000e+01
8.750000e+01
8.750000e+01
8.750000e+01
8.750000e+01
8.750000e+01
8.750000e+01
8.750000e+01
8.750000e+01
8.750000e+01
8.750000e+01
8.750000e+01
8.750000e+01
8.750000e+01
8.750000e+01
8.750000e+01
8.750000e+01
8.750000e+01
9.375000e+01
9.375000e+01
9.375000e+01
9.375000e+01
9.375000e+01
9.375000e+01
9.375000e+01
9.375000e+01
9.375000e+01
9.375000e+01
9.375000e+01
9.375000e+01
9.375000e+01
9.375000e+01
9.375000e+01
9.375000e+01
9.375000e+01
9.375000e+01
9.375000e+01
9.375000e+01
9.375000e+01
9.375000e+01
9.375000e+01
9.375000e+01
9.375000e+01
9.375000e+01
9.375000e+01
9.375000e+01
9.375000e+01
9.375000e+01
9.375000e+01
9.375000e+01
9.375000e+01
1.000000e+02
1.000000e+02
1.000000e+02
1.000000e+02
1.000000e+02
1.000000e+02
1.000000e+02
1.000000e+02
1.000000e+02
1.000000e+02
1.000000e+02
1.000000e+02
1.000000e+02
1.000000e+02
1.000000e+02
1.000000e+02
1.000000e+02
1.000000e+02
1.000000e+02
1.000000e+02
1.000000e+02
1.000000e+02
1.000000e+02
1.000000e+02
1.000000e+02
1.000000e+02
1.000000e+02
1.000000e+02
1.000000e+02
1.000000e+02
1.000000e+02
1.000000e+02
1.000000e+02
0.000000e+00
-5.776814e-02
-1.048126e-01
-1.483927e-01
-1.902173e-01
-2.306055e-01
-2.696381e-01
-3.073118e-01
-3.436029e-01
-3.784849e-01
-4.119359e-01
-4.439409e-01
-4.744920e-01
-5.035887e-01
-5.312377e-01
-5.574536e-01
-5.822599e-01
-6.056906e-01
-6.277929e-01
-6.486304e-01
-6.682878e-01
-6.868772e-01
-7.045465e-01
-7.214924e-01
-7.379779e-01
-7.543609e-01
-7.711381e-01
-7.890180e-01
-8.090400e-01
-8.327336e-01
-8.620828e-01
-8.970590e-01
-9.184044e-01
0.000000e+00
-3.873196e-02
-8.058599e-02
-1.200488e-01
-1.575568e-01
-1.934671e-01
-2.279693e-01
-2.611466e-01
-2.930319e-01
-3.236360e-01
-3.529610e-01
-3.810068e-01
-4.077748e-01
-4.332693e-01
-4.574988e-01
-4.804767e-01
-5.022226e-01
-5.227634e-01
-5.421346e-01
-5.603824e-01
-5.775660e-01
-5.937594e-01
-6.090551e-01
-6.235658e-01
-6.374265e-01
-6.507923e-01
-6.638269e-01
-6.766652e-01
-6.893063e-01
-7.013390e-01
-7.113655e-01
-7.172274e-01
-7.253882e-01
0.000000e+00
-3.072227e-02
-6.324917e-02
-9.636677e-02
-1.285469e-01
-1.595411e-01
-1.893297e-01
-2.179409e-01
-2.453999e-01
-2.717240e-01
-2.969245e-01
-3.210091e-01
-3.439846e-01
-3.658577e-01
-3.866365e-01
-4.063311e-01
-4.249543e-01
-4.425222e-01
-4.590545e-01
-4.745747e-01
-4.891100e-01
-5.026899e-01
-5.153432e-01
-5.270924e-01
-5.379421e-01
-5.478576e-01
-5.567254e-01
-5.642845e-01
-5.700236e-01
-5.731140e-01
-5.728430e-01
-5.711077e-01
-5.806373e-01
0.000000e+00
-2.437539e-02
-5.009699e-02
-7.652275e-02
-1.028866e-01
-1.286119e-01
-1.534784e-01
-1.774069e-01
-2.003762e-01
-2.223853e-01
-2.434398e-01
-2.635467e-01
-2.827130e-01
-3.009445e-01
-3.182467e-01
-3.346244e-01
-3.500821e-01
-3.646239e-01
-3.782526e-01
-3.909691e-01
-4.027701e-01
-4.136448e-01
-4.235691e-01
-4.324967e-01
-4.403454e-01
-4.469764e-01
-4.521703e-01
-4.556099e-01
-4.569232e-01
-4.559483e-01
-4.535805e-01
-4.534391e-01
-4.625185e-01
0.000000e+00
-1.891871e-02
-3.873908e-02
-5.919261e-02
-7.981233e-02
-1.001792e-01
-1.200121e-01
-1.391689e-01
-1.575848e-01
-1.752350e-01
-1.921129e-01
-2.082195e-01
-2.235576e-01
-2.381300e-01
-2.519376e-01
-2.649791e-01
-2.772506e-01
-2.887445e-01
-2.994489e-01
-3.093461e-01
-3.184093e-01
-3.265999e-01
-3.338617e-01
-3.401151e-01
-3.452495e-01
-3.491197e-01
-3.515551e-01
-3.524094e-01
-3.517085e-01
-3.499936e-01
-3.488811e-01
-3.514503e-01
-3.591954e-01
0.000000e+00
-1.390416e-02
-2.840403e-02
-4.336974e-02
-5.854272e-02
-7.363973e-02
-8.843591e-02
-1.027851e-01
-1.166071e-01
-1.298630e-01
-1.425361e-01
-1.546208e-01
-1.661149e-01
-1.770164e-01
-1.873212e-01
-1.970220e-01
-2.061072e-01
-2.145602e-01
-2.223581e-01
-2.294706e-01
-2.358574e-01
-2.414668e-01
-2.462333e-01
-2.500769e-01
-2.529063e-01
-2.546328e-01
-2.552055e-01
-2.546915e-01
-2.534246e-01
-2.522192e-01
-2.525127e-01
-2.557880e-01
-2.621966e-01
0.000000e+00
-9.150610e-03
-1.866317e-02
-2.847750e-02
-3.845365e-02
-4.842371e-02
-5.823731e-02
-6.778485e-02
-7.699775e-02
-8.583816e-02
-9.428695e-02
-1.023345e-01
-1.099747e-01
-1.172011e-01
-1.240050e-01
-1.303740e-01
-1.362909e-01
-1.417329e-01
-1.466709e-01
-1.510685e-01
-1.548814e-01
-1.580581e-01
-1.605407e-01
-1.622707e-01
-1.632003e-01
-1.633156e-01
-1.626800e-01
-1.615040e-01
-1.602349e-01
-1.596197e-01
-1.605795e-01
-1.637683e-01
-1.689414e-01
0.000000e+00
-4.545106e-03
-9.262045e-03
-1.412657e-02
-1.907726e-02
-2.403589e-02
-2.892820e-02
-3.369607e-02
-3.830023e-02
-4.271670e-02
-4.693126e-02
-5.093452e-02
-5.471827e-02
-5.827314e-02
-6.158702e-02
-6.464397e-02
-6.742350e-02
-6.989995e-02
-7.204219e-02
-7.381372e-02
-7.517361e-02
-7.607880e-02
-7.648884e-02
-7.637479e-02
-7.573440e-02
-7.461655e-02
-7.315650e-02
-7.161810e-02
-7.042384e-02
-7.012468e-02
-7.125075e-02
-7.403257e-02
-7.813731e-02
0.000000e+00
-7.333299e-06
-1.590066e-05
-2.522746e-05
-3.482313e-05
-4.402618e-05
-5.183973e-05
-5.674890e-05
-5.650738e-05
-4.788058e-05
-2.633549e-05
1.432808e-05
8.240448e-05
1.887578e-04
3.473236e-04
5.755927e-04
8.950029e-04
1.331117e-03
1.913394e-03
2.674265e-03
3.647076e-03
4.862259e-03
6.340894e-03
8.084585e-03
1.006067e-02
1.218258e-02
1.428787e-02
1.612206e-02
1.734647e-02
1.759477e-02
1.659499e-02
1.433081e-02
1.115971e-02
0.000000e+00
4.531294e-03
9.232035e-03
1.407886e-02
1.901125e-02
2.395219e-02
2.882928e-02
3.358722e-02
3.819092e-02
4.262246e-02
4.687611e-02
5.095411e-02
5.486386e-02
5.861645e-02
6.222604e-02
6.570978e-02
6.908780e-02
7.238304e-02
7.562061e-02
7.882640e-02
8.202435e-02
8.523207e-02
8.845414e-02
9.167267e-02
9.483534e-02
9.784234e-02
1.005363e-01
1.027030e-01
1.040952e-01
1.044894e-01
1.037755e-01
1.020555e-01
9.970196e-02
0.000000e+00
9.139327e-03
1.863848e-02
2.843798e-02
3.839854e-02
4.835318e-02
5.815298e-02
6.769057e-02
7.690069e-02
8.575036e-02
9.422731e-02
1.023313e-01
1.100690e-01
1.174508e-01
1.244896e-01
1.312003e-01
1.375999e-01
1.437066e-01
1.495393e-01
1.551160e-01
1.604513e-01
1.655519e-01
1.704109e-01
1.750002e-01
1.792621e-01
1.831022e-01
1.863868e-01
1.889523e-01
1.906314e-01
1.913028e-01
1.909576e-01
1.897674e-01
1.881248e-01
0.000000e+00
1.389696e-02
2.838799e-02
4.334363e-02
5.850564e-02
7.359132e-02
8.837670e-02
1.027170e-01
1.165340e-01
1.297918e-01
1.424783e-01
1.545937e-01
1.661443e-01
1.771391e-01
1.875883e-01
1.975031e-01
2.068952e-01
2.157765e-01
2.241583e-01
2.320503e-01
2.394582e-01
2.463800e-01
2.528025e-01
2.586954e-01
2.640065e-01
2.686587e-01
2.725517e-01
2.755731e-01
2.776221e-01
2.786488e-01
2.787065e-01
2.780083e-01
2.769702e-01
0.000000e+00
1.891692e-02
3.873461e-02
5.918460e-02
7.979996e-02
1.001617e-01
1.199892e-01
1.391404e-01
1.575513e-01
1.751980e-01
1.920753e-01
2.081860e-01
2.235360e-01
2.381318e-01
2.519794e-01
2.650845e-01
2.774520e-01
2.890861e-01
2.999894e-01
3.101625e-01
3.196024e-01
3.283003e-01
3.362396e-01
3.433927e-01
3.497195e-01
3.551670e-01
3.596726e-01
3.631744e-01
3.656285e-01
3.670385e-01
3.674958e-01
3.672337e-01
3.666868e-01
0.000000e+00
2.437992e-02
5.010620e-02
7.653644e-02
1.029044e-01
1.286333e-01
1.535026e-01
1.774328e-01
2.004018e-01
2.224074e-01
2.434536e-01
2.635453e-01
2.826863e-01
3.008787e-01
3.181227e-01
3.344170e-01
3.497586e-01
3.641423e-01
3.775612e-01
3.900056e-01
4.014631e-01
4.119176e-01
4.213493e-01
4.297345e-01
4.370462e-01
4.432573e-01
4.483442e-01
4.522957e-01
4.551238e-01
4.568813e-01
4.576897e-01
4.577861e-01
4.576047e-01
0.000000e+00
3.073332e-02
6.327277e-02
9.640372e-02
1.285979e-01
1.596068e-01
1.894102e-01
2.180352e-01
2.455054e-01
2.718352e-01
2.970319e-01
3.210974e-01
3.440300e-01
3.658254e-01
3.864768e-01
4.059748e-01
4.243074e-01
4.414597e-01
4.574136e-01
4.721476e-01
4.856378e-01
4.978578e-01
5.087811e-01
5.183831e-01
5.266458e-01
5.335628e-01
5.391466e-01
5.434365e-01
5.465068e-01
5.484733e-01
5.495025e-01
5.498378e-01
5.498778e-01
0.000000e+00
3.874855e-02
8.062224e-02
1.201072e-01
1.576401e-01
1.935781e-01
2.281105e-01
2.613193e-01
2.932355e-01
3.238664e-01
3.532087e-01
3.812541e-01
4.079922e-01
4.334106e-01
4.574951e-01
4.802283e-01
5.015896e-01
5.215538e-01
5.400909e-01
5.571661e-01
5.727398e-01
5.867702e-01
5.992158e-01
6.100409e-01
6.192231e-01
6.267629e-01
6.326959e-01
6.371057e-01
6.401349e-01
6.419910e-01
6.429393e-01
6.432832e-01
6.433674e-01
0.000000e+00
5.778631e-02
1.048550e-01
1.484653e-01
1.903260e-01
2.307562e-01
2.698370e-01
3.075647e-01
3.439143e-01
3.788567e-01
4.123651e-01
4.444161e-01
4.749890e-01
5.040644e-01
5.316220e-01
5.576388e-01
5.820870e-01
6.049327e-01
6.261340e-01
6.456408e-01
6.633943e-01
6.793292e-01
6.933771e-01
7.054735e-01
7.155686e-01
7.236419e-01
7.297222e-01
7.339109e-01
7.364076e-01
7.375325e-01
7.377370e-01
7.375676e-01
7.374723e-01
0.000000e+00
-3.569961e-02
-6.230358e-02
-9.133495e-02
-1.236631e-01
-1.601811e-01
-2.011425e-01
-2.466186e-01
-2.965642e-01
-3.508721e-01
-4.093984e-01
-4.719775e-01
-5.384309e-01
-6.085727e-01
-6.822130e-01
-7.591610e-01
-8.392266e-01
-9.222234e-01
-1.007971e+00
-1.096300e+00
-1.187056e+00
-1.280110e+00
-1.375370e+00
-1.472798e+00
-1.572444e+00
-1.674492e+00
-1.779348e+00
-1.887803e+00
-2.001371e+00
-2.123050e+00
-2.259309e+00
-2.425408e+00
-2.654878e+00
0.000000e+00
-2.218595e-02
-5.003329e-02
-7.926049e-02
-1.120392e-01
-1.489539e-01
-1.903133e-01
-2.361875e-01
-2.865350e-01
-3.412488e-01
-4.001842e-01
-4.631742e-01
-5.300387e-01
-6.005903e-01
-6.746374e-01
-7.519872e-01
-8.324473e-01
-9.158285e-01
-1.001947e+00
-1.090629e+00
-1.181715e+00
-1.275069e+00
-1.370590e+00
-1.468232e+00
-1.568028e+00
-1.670148e+00
-1.774975e+00
-1.883277e+00
-1.996535e+00
-2.117698e+00
-2.252904e+00
-2.415305e+00
-2.629690e+00
0.000000e+00
-1.629687e-02
-4.033661e-02
-6.916510e-02
-1.020011e-01
-1.391878e-01
-1.808736e-01
-2.270974e-01
-2.778035e-01
-3.328798e-01
-3.921790e-01
-4.555331e-01
-5.227609e-01
-5.936745e-01
-6.680815e-01
-7.457884e-01
-8.266019e-01
-9.103317e-01
-9.967927e-01
-1.085810e+00
-1.177222e+00
-1.270892e+00
-1.366719e+00
-1.464658e+00
-1.564747e+00
-1.667165e+00
-1.772311e+00
-1.880973e+00
-1.994616e+00
-2.115893e+00
-2.249340e+00
-2.400316e+00
-2.567793e+00
0.000000e+00
-1.304985e-02
-3.415699e-02
-6.144820e-02
-9.386221e-02
-1.310373e-01
-1.729015e-01
-2.193841e-01
-2.703853e-01
-3.257722e-01
-3.853883e-01
-4.490612e-01
-5.166084e-01
-5.878413e-01
-6.625681e-01
-7.405955e-01
-8.217309e-01
-9.057848e-01
-9.925732e-01
-1.081922e+00
-1.173673e+00
-1.267692e+00
-1.363883e+00
-1.462208e+00
-1.562715e+00
-1.665591e+00
-1.771233e+00
-1.880366e+00
-1.994187e+00
-2.114447e+00
-2.242819e+00
-2.378212e+00
-2.504248e+00
0.000000e+00
-1.104234e-02
-3.011574e-02
-5.596828e-02
-8.764339e-02
-1.245747e-01
-1.664546e-01
-2.130884e-01
-2.643075e-01
-3.199445e-01
-3.798255e-01
-4.437701e-01
-5.115926e-01
-5.831037e-01
-6.581124e-01
-7.364268e-01
-8.178562e-01
-9.022131e-01
-9.893160e-01
-1.078994e+00
-1.171092e+00
-1.265480e+00
-1.362067e+00
-1.460816e+00
-1.561773e+00
-1.665101e+00
-1.771124e+00
-1.880364e+00
-1.993509e+00
-2.111115e+00
-2.232620e+00
-2.353565e+00
-2.463329e+00
0.000000e+00
-9.764936e-03
-2.746418e-02
-5.219725e-02
-8.315933e-02
-1.197447e-01
-1.615336e-01
-2.082270e-01
-2.595895e-01
-3.154140e-01
-3.755050e-01
-4.396713e-01
-5.077228e-01
-5.794694e-01
-6.547208e-01
-7.332873e-01
-8.149805e-01
-8.996158e-01
-9.870146e-01
-1.077008e+00
-1.169445e+00
-1.264195e+00
-1.361163e+00
-1.460304e+00
-1.561634e+00
-1.665251e+00
-1.771338e+00
-1.880123e+00
-1.991733e+00
-2.105792e+00
-2.220561e+00
-2.331940e+00
-2.433739e+00
0.000000e+00
-8.971046e-03
-2.578774e-02
-4.974600e-02
-8.015535e-02
-1.164255e-01
-1.580902e-01
-2.047895e-01
-2.562368e-01
-3.121910e-01
-3.724367e-01
-4.367724e-01
-5.050037e-01
-5.769395e-01
-6.523906e-01
-7.311695e-01
-8.130905e-01
-8.979712e-01
-9.856354e-01
-1.075916e+00
-1.168658e+00
-1.263728e+00
-1.361019e+00
-1.460457e+00
-1.562008e+00
-1.665673e+00
-1.771462e+00
-1.879315e+00
-1.988919e+00
-2.099384e+00
-2.208797e+00
-2.314005e+00
-2.411142e+00
0.000000e+00
-8.534792e-03
-2.485751e-02
-4.836467e-02
-7.843282e-02
-1.144920e-01
-1.560612e-01
-2.027501e-01
-2.542433e-01
-3.102778e-01
-3.706249e-01
-4.350761e-01
-5.034343e-01
-5.755085e-01
-6.511109e-01
-7.300559e-01
-8.121601e-01
-8.972429e-01
-9.851283e-01
-1.075647e+00
-1.168641e+00
-1.263962e+00
-1.361482e+00
-1.461088e+00
-1.562681e+00
-1.666155e+00
-1.771358e+00
-1.878004e+00
-1.985523e+00
-2.092858e+00
-2.198284e+00
-2.299430e+00
-2.393657e+00
0.000000e+00
-8.394233e-03
-2.455740e-02
-4.791696e-02
-7.787143e-02
-1.138592e-01
-1.553965e-01
-2.020848e-01
-2.535996e-01
-3.096716e-01
-3.700681e-01
-4.345793e-01
-5.030084e-01
-5.751654e-01
-6.508645e-01
-7.299221e-01
-8.121560e-01
-8.973865e-01
-9.854360e-01
-1.076131e+00
-1.169303e+00
-1.264789e+00
-1.362430e+00
-1.462068e+00
-1.563536e+00
-1.666631e+00
-1.771073e+00
-1.876433e+00
-1.982028e+00
-2.086820e+00
-2.189349e+00
-2.287806e+00
-2.380257e+00
0.000000e+00
-8.530726e-03
-2.485187e-02
-4.835981e-02
-7.843135e-02
-1.144972e-01
-1.560772e-01
-2.027827e-01
-2.542999e-01
-3.103682e-01
-3.707617e-01
-4.352752e-01
-5.037154e-01
-5.758951e-01
-6.516307e-01
-7.307401e-01
-8.130422e-01
-8.983564e-01
-9.865022e-01
-1.077300e+00
-1.170568e+00
-1.266123e+00
-1.363776e+00
-1.463324e+00
-1.564536e+00
-1.667131e+00
-1.770743e+00
-1.874866e+00
-1.978798e+00
-2.081594e+00
-2.182051e+00
-2.278769e+00
-2.370270e+00
0.000000e+00
-8.963244e-03
-2.577691e-02
-4.973663e-02
-8.015241e-02
-1.164351e-01
-1.581207e-01
-2.048516e-01
-2.563449e-01
-3.123639e-01
-3.726987e-01
-4.371539e-01
-5.055424e-01
-5.776808e-01
-6.533878e-01
-7.324827e-01
-8.147844e-01
-9.001107e-01
-9.882773e-01
-1.079096e+00
-1.172373e+00
-1.267905e+00
-1.365471e+00
-1.464828e+00
-1.565695e+00
-1.667733e+00
-1.770519e+00
-1.873522e+00
-1.976067e+00
-2.077327e+00
-2.176328e+00
-2.271990e+00
-2.363181e+00
0.000000e+00
-9.754091e-03
-2.744913e-02
-5.218417e-02
-8.315510e-02
-1.197580e-01
-1.615757e-01
-2.083132e-01
-2.597400e-01
-3.156551e-01
-3.758706e-01
-4.402041e-01
-5.084757e-01
-5.805061e-01
-6.561161e-01
-7.351258e-01
-8.173537e-01
-9.026154e-01
-9.907224e-01
-1.081479e+00
-1.174678e+00
-1.270097e+00
-1.367491e+00
-1.466583e+00
-1.567052e+00
-1.668519e+00
-1.770534e+00
-1.872559e+00
-1.973971e+00
-2.074059e+00
-2.172054e+00
-2.267155e+00
-2.358534e+00
0.000000e+00
-1.102956e-02
-3.009803e-02
-5.595287e-02
-8.763849e-02
-1.245908e-01
-1.665055e-01
-2.131924e-01
-2.644892e-01
-3.202358e-01
-3.802674e-01
-4.444143e-01
-5.125031e-01
-5.843579e-01
-6.598008e-01
-7.386522e-01
-8.207298e-01
-9.058472e-01
-9.938115e-01
-1.084420e+00
-1.177456e+00
-1.272681e+00
-1.369831e+00
-1.468602e+00
-1.568647e+00
-1.669561e+00
-1.770879e+00
-1.872074e+00
-1.972569e+00
-2.071765e+00
-2.169072e+00
-2.263944e+00
-2.355874e+00
0.000000e+00
-1.303672e-02
-3.413880e-02
-6.143252e-02
-9.385800e-02
-1.310561e-01
-1.729587e-01
-2.195003e-01
-2.705874e-01
-3.260955e-01
-3.858781e-01
-4.497746e-01
-5.176159e-01
-5.892282e-01
-6.644341e-01
-7.430538e-01
-8.249038e-01
-9.097959e-01
-9.975338e-01
-1.087910e+00
-1.180699e+00
-1.275652e+00
-1.372492e+00
-1.470898e+00
-1.570506e+00
-1.670897e+00
-1.771600e+00
-1.872100e+00
-1.971863e+00
-2.070374e+00
-2.167197e+00
-2.262028e+00
-2.354715e+00
0.000000e+00
-1.628542e-02
-4.032068e-02
-6.915187e-02
-1.019999e-01
-1.392107e-01
-1.809369e-01
-2.272223e-01
-2.780182e-01
-3.332208e-01
-3.926932e-01
-4.562793e-01
-5.238117e-01
-5.951171e-01
-6.700180e-01
-7.483338e-01
-8.298801e-01
-9.144667e-01
-1.001895e+00
-1.091953e+00
-1.184413e+00
-1.279018e+00
-1.375483e+00
-1.473480e+00
-1.572636e+00
-1.672528e+00
-1.772685e+00
-1.872605e+00
-1.971783e+00
-2.069765e+00
-2.166224e+00
-2.261064e+00
-2.354512e+00
0.000000e+00
-2.217860e-02
-5.002245e-02
-7.925270e-02
-1.120441e-01
-1.489838e-01
-1.903846e-01
-2.363216e-01
-2.867599e-01
-3.416008e-01
-4.007094e-01
-4.639304e-01
-5.310966e-01
-6.020343e-01
-6.765655e-01
-7.545087e-01
-8.356781e-01
-9.198822e-01
-1.006920e+00
-1.096579e+00
-1.188625e+00
-1.282802e+00
-1.378820e+00
-1.476351e+00
-1.575022e+00
-1.674411e+00
-1.774056e+00
-1.873470e+00
-1.972169e+00
-2.069737e+00
-2.165908e+00
-2.260716e+00
-2.354685e+00
0.000000e+00
-3.569857e-02
-6.229996e-02
-9.133564e-02
-1.236777e-01
-1.602221e-01
-2.012263e-01
-2.467664e-01
-2.968034e-01
-3.512379e-01
-4.099353e-01
-4.727405e-01
-5.394866e-01
-6.099997e-01
-6.841011e-01
-7.616082e-01
-8.423339e-01
-9.260846e-01
-1.012658e+00
-1.101837e+00
-1.193388e+00
-1.287052e+00
-1.382540e+00