TITLE = "Solution"
VARIABLES = x, y, u, v, psiu, psiv, t, stress
ZONE T="structure" N=561 E=512 F=FEBLOCK ET=QUADRILATERAL VARLOCATION=([7,8]=cellcentered)
0.000000e+00
6.250000e+00
1.250000e+01
1.875000e+01
2.500000e+01
3.125000e+01
3.750000e+01
4.375000e+01
5.000000e+01
5.625000e+01
6.250000e+01
6.875000e+01
7.500000e+01
8.125000e+01
8.750000e+01
9.375000e+01
1.000000e+02
1.062500e+02
1.125000e+02
1.187500e+02
1.250000e+02
1.312500e+02
1.375000e+02
1.437500e+02
1.500000e+02
1.562500e+02
1.625000e+02
1.687500e+02
1.750000e+02
1.812500e+02
1.875000e+02
1.937500e+02
2.000000e+02
0.000000e+00
6.250000e+00
1.250000e+01
1.875000e+01
2.500000e+01
3.125000e+01
3.750000e+01
4.375000e+01
5.000000e+01
5.625000e+01
6.250000e+01
6.875000e+01
7.500000e+01
8.125000e+01
8.750000e+01
9.375000e+01
1.000000e+02
1.062500e+02
1.125000e+02
1.187500e+02
1.250000e+02
1.312500e+02
1.375000e+02
1.437500e+02
1.500000e+02
1.562500e+02
1.625000e+02
1.687500e+02
1.750000e+02
1.812500e+02
1.875000e+02
1.937500e+02
2.000000e+02
0.000000e+00
6.250000e+00
1.250000e+01
1.875000e+01
2.500000e+01
3.125000e+01
3.750000e+01
4.375000e+01
5.000000e+01
5.625000e+01
6.250000e+01
6.875000e+01
7.500000e+01
8.125000e+01
8.750000e+01
9.375000e+01
1.000000e+02
1.062500e+02
1.125000e+02
1.187500e+02
1.250000e+02
1.312500e+02
1.375000e+02
1.437500e+02
1.500000e+02
1.562500e+02
1.625000e+02
1.687500e+02
1.750000e+02
1.812500e+02
1.875000e+02
1.937500e+02
2.000000e+02
0.000000e+00
6.250000e+00
1.250000e+01
1.875000e+01
2.500000e+01
3.125000e+01
3.750000e+01
4.375000e+01
5.000000e+01
5.625000e+01
6.250000e+01
6.875000e+01
7.500000e+01
8.125000e+01
8.750000e+01
9.375000e+01
1.000000e+02
1.062500e+02
1.125000e+02
1.187500e+02
1.250000e+02
1.312500e+02
1.375000e+02
1.437500e+02
1.500000e+02
1.562500e+02
1.625000e+02
1.687500e+02
1.750000e+02
1.812500e+02
1.875000e+02
1.937500e+02
2.000000e+02
0.000000e+00
6.250000e+00
1.250000e+01
1.875000e+01
2.500000e+01
3.125000e+01
3.750000e+01
4.375000e+01
5.000000e+01
5.625000e+01
6.250000e+01
6.875000e+01
7.500000e+01
8.125000e+01
8.750000e+01
9.375000e+01
1.000000e+02
1.062500e+02
1.125000e+02
1.187500e+02
1.250000e+02
1.312500e+02
1.375000e+02
1.437500e+02
1.500000e+02
1.562500e+02
1.625000e+02
1.687500e+02
1.750000e+02
1.812500e+02
1.875000e+02
1.937500e+02
2.000000e+02
0.000000e+00
6.250000e+00
1.250000e+01
1.875000e+01
2.500000e+01
3.125000e+01
3.750000e+01
4.375000e+01
5.000000e+01
5.625000e+01
6.250000e+01
6.875000e+01
7.500000e+01
8.125000e+01
8.750000e+01
9.375000e+01
1.000000e+02
1.062500e+02
1.125000e+02
1.187500e+02
1.250000e+02
1.312500e+02
1.375000e+02
1.437500e+02
1.500000e+02
1.562500e+02
1.625000e+02
1.687500e+02
1.750000e+02
1.812500e+02
1.875000e+02
1.937500e+02
2.000000e+02
0.000000e+00
6.250000e+00
1.250000e+01
1.875000e+01
2.500000e+01
3.125000e+01
3.750000e+01
4.375000e+01
5.000000e+01
5.625000e+01
6.250000e+01
6.875000e+01
7.500000e+01
8.125000e+01
8.750000e+01
9.375000e+01
1.000000e+02
1.062500e+02
1.125000e+02
1.187500e+02
1.250000e+02
1.312500e+02
1.375000e+02
1.437500e+02
1.500000e+02
1.562500e+02
1.625000e+02
1.687500e+02
1.750000e+02
1.812500e+02
1.875000e+02
1.937500e+02
2.000000e+02
0.000000e+00
6.250000e+00
1.250000e+01
1.875000e+01
2.500000e+01
3.125000e+01
3.750000e+01
4.375000e+01
5.000000e+01
5.625000e+01
6.250000e+01
6.875000e+01
7.500000e+01
8.125000e+01
8.750000e+01
9.375000e+01
1.000000e+02
1.062500e+02
1.125000e+02
1.187500e+02
1.250000e+02
1.312500e+02
1.375000e+02
1.437500e+02
1.500000e+02
1.562500e+02
1.625000e+02
1.687500e+02
1.750000e+02
1.812500e+02
1.875000e+02
1.937500e+02
2.000000e+02
0.000000e+00
6.250000e+00
1.250000e+01
1.875000e+01
2.500000e+01
3.125000e+01
3.750000e+01
4.375000e+01
5.000000e+01
5.625000e+01
6.250000e+01
6.875000e+01
7.500000e+01
8.125000e+01
8.750000e+01
9.375000e+01
1.000000e+02
1.062500e+02
1.125000e+02
1.187500e+02
1.250000e+02
1.312500e+02
1.375000e+02
1.437500e+02
1.500000e+02
1.562500e+02
1.625000e+02
1.687500e+02
1.750000e+02
1.812500e+02
1.875000e+02
1.937500e+02
2.000000e+02
0.000000e+00
6.250000e+00
1.250000e+01
1.875000e+01
2.500000e+01
3.125000e+01
3.750000e+01
4.375000e+01
5.000000e+01
5.625000e+01
6.250000e+01
6.875000e+01
7.500000e+01
8.125000e+01
8.750000e+01
9.375000e+01
1.000000e+02
1.062500e+02
1.125000e+02
1.187500e+02
1.250000e+02
1.312500e+02
1.375000e+02
1.437500e+02
1.500000e+02
1.562500e+02
1.625000e+02
1.687500e+02
1.750000e+02
1.812500e+02
1.875000e+02
1.937500e+02
2.000000e+02
0.000000e+00
6.250000e+00
1.250000e+01
1.875000e+01
2.500000e+01
3.125000e+01
3.750000e+01
4.375000e+01
5.000000e+01
5.625000e+01
6.250000e+01
6.875000e+01
7.500000e+01
8.125000e+01
8.750000e+01
9.375000e+01
1.000000e+02
1.062500e+02
1.125000e+02
1.187500e+02
1.250000e+02
1.312500e+02
1.375000e+02
1.437500e+02
1.500000e+02
1.562500e+02
1.625000e+02
1.687500e+02
1.750000e+02
1.812500e+02
1.875000e+02
1.937500e+02
2.000000e+02
0.000000e+00
6.250000e+00
1.250000e+01
1.875000e+01
2.500000e+01
3.125000e+01
3.750000e+01
4.375000e+01
5.000000e+01
5.625000e+01
6.250000e+01
6.875000e+01
7.500000e+01
8.125000e+01
8.750000e+01
9.375000e+01
1.000000e+02
1.062500e+02
1.125000e+02
1.187500e+02
1.250000e+02
1.312500e+02
1.375000e+02
1.437500e+02
1.500000e+02
1.562500e+02
1.625000e+02
1.687500e+02
1.750000e+02
1.812500e+02
1.875000e+02
1.937500e+02
2.000000e+02
0.000000e+00
6.250000e+00
1.250000e+01
1.875000e+01
2.500000e+01
3.125000e+01
3.750000e+01
4.375000e+01
5.000000e+01
5.625000e+01
6.250000e+01
6.875000e+01
7.500000e+01
8.125000e+01
8.750000e+01
9.375000e+01
1.000000e+02
1.062500e+02
1.125000e+02
1.187500e+02
1.250000e+02
1.312500e+02
1.375000e+02
1.437500e+02
1.500000e+02
1.562500e+02
1.625000e+02
1.687500e+02
1.750000e+02
1.812500e+02
1.875000e+02
1.937500e+02
2.000000e+02
0.000000e+00
6.250000e+00
1.250000e+01
1.875000e+01
2.500000e+01
3.125000e+01
3.750000e+01
4.375000e+01
5.000000e+01
5.625000e+01
6.250000e+01
6.875000e+01
7.500000e+01
8.125000e+01
8.750000e+01
9.375000e+01
1.000000e+02
1.062500e+02
1.125000e+02
1.187500e+02
1.250000e+02
1.312500e+02
1.375000e+02
1.437500e+02
1.500000e+02
1.562500e+02
1.625000e+02
1.687500e+02
1.750000e+02
1.812500e+02
1.875000e+02
1.937500e+02
2.000000e+02
0.000000e+00
6.250000e+00
1.250000e+01
1.875000e+01
2.500000e+01
3.125000e+01
3.750000e+01
4.375000e+01
5.000000e+01
5.625000e+01
6.250000e+01
6.875000e+01
7.500000e+01
8.125000e+01
8.750000e+01
9.375000e+01
1.000000e+02
1.062500e+02
1.125000e+02
1.187500e+02
1.250000e+02
1.312500e+02
1.375000e+02
1.437500e+02
1.500000e+02
1.562500e+02
1.625000e+02
1.687500e+02
1.750000e+02
1.812500e+02
1.875000e+02
1.937500e+02
2.000000e+02
0.000000e+00
6.250000e+00
1.250000e+01
1.875000e+01
2.500000e+01
3.125000e+01
3.750000e+01
4.375000e+01
5.000000e+01
5.625000e+01
6.250000e+01
6.875000e+01
7.500000e+01
8.125000e+01
8.750000e+01
9.375000e+01
1.000000e+02
1.062500e+02
1.125000e+02
1.187500e+02
1.250000e+02
1.312500e+02
1.375000e+02
1.437500e+02
1.500000e+02
1.562500e+02
1.625000e+02
1.687500e+02
1.750000e+02
1.812500e+02
1.875000e+02
1.937500e+02
2.000000e+02
0.000000e+00
6.250000e+00
1.250000e+01
1.875000e+01
2.500000e+01
3.125000e+01
3.750000e+01
4.375000e+01
5.000000e+01
5.625000e+01
6.250000e+01
6.875000e+01
7.500000e+01
8.125000e+01
8.750000e+01
9.375000e+01
1.000000e+02
1.062500e+02
1.125000e+02
1.187500e+02
1.250000e+02
1.312500e+02
1.375000e+02
1.437500e+02
1.500000e+02
1.562500e+02
1.625000e+02
1.687500e+02
1.750000e+02
1.812500e+02
1.875000e+02
1.937500e+02
2.000000e+02
0.000000e+00
0.000000e+00
0.000000e+00
0.000000e+00
0.000000e+00
0.000000e+00
0.000000e+00
0.000000e+00
0.000000e+00
0.000000e+00
0.000000e+00
0.000000e+00
0.000000e+00
0.000000e+00
0.000000e+00
0.000000e+00
0.000000e+00
0.000000e+00
0.000000e+00
0.000000e+00
0.000000e+00
0.000000e+00
0.000000e+00
0.000000e+00
0.000000e+00
0.000000e+00
0.000000e+00
0.000000e+00
0.000000e+00
0.000000e+00
0.000000e+00
0.000000e+00
0.000000e+00
6.250000e+00
6.250000e+00
6.250000e+00
6.250000e+00
6.250000e+00
6.250000e+00
6.250000e+00
6.250000e+00
6.250000e+00
6.250000e+00
6.250000e+00
6.250000e+00
6.250000e+00
6.250000e+00
6.250000e+00
6.250000e+00
6.250000e+00
6.250000e+00
6.250000e+00
6.250000e+00
6.250000e+00
6.250000e+00
6.250000e+00
6.250000e+00
6.250000e+00
6.250000e+00
6.250000e+00
6.250000e+00
6.250000e+00
6.250000e+00
6.250000e+00
6.250000e+00
6.250000e+00
1.250000e+01
1.250000e+01
1.250000e+01
1.250000e+01
1.250000e+01
1.250000e+01
1.250000e+01
1.250000e+01
1.250000e+01
1.250000e+01
1.250000e+01
1.250000e+01
1.250000e+01
1.250000e+01
1.250000e+01
1.250000e+01
1.250000e+01
1.250000e+01
1.250000e+01
1.250000e+01
1.250000e+01
1.250000e+01
1.250000e+01
1.250000e+01
1.250000e+01
1.250000e+01
1.250000e+01
1.250000e+01
1.250000e+01
1.250000e+01
1.250000e+01
1.250000e+01
1.250000e+01
1.875000e+01
1.875000e+01
1.875000e+01
1.875000e+01
1.875000e+01
1.875000e+01
1.875000e+01
1.875000e+01
1.875000e+01
1.875000e+01
1.875000e+01
1.875000e+01
1.875000e+01
1.875000e+01
1.875000e+01
1.875000e+01
1.875000e+01
1.875000e+01
1.875000e+01
1.875000e+01
1.875000e+01
1.875000e+01
1.875000e+01
1.875000e+01
1.875000e+01
1.875000e+01
1.875000e+01
1.875000e+01
1.875000e+01
1.875000e+01
1.875000e+01
1.875000e+01
1.875000e+01
2.500000e+01
2.500000e+01
2.500000e+01
2.500000e+01
2.500000e+01
2.500000e+01
2.500000e+01
2.500000e+01
2.500000e+01
2.500000e+01
2.500000e+01
2.500000e+01
2.500000e+01
2.500000e+01
2.500000e+01
2.500000e+01
2.500000e+01
2.500000e+01
2.500000e+01
2.500000e+01
2.500000e+01
2.500000e+01
2.500000e+01
2.500000e+01
2.500000e+01
2.500000e+01
2.500000e+01
2.500000e+01
2.500000e+01
2.500000e+01
2.500000e+01
2.500000e+01
2.500000e+01
3.125000e+01
3.125000e+01
3.125000e+01
3.125000e+01
3.125000e+01
3.125000e+01
3.125000e+01
3.125000e+01
3.125000e+01
3.125000e+01
3.125000e+01
3.125000e+01
3.125000e+01
3.125000e+01
3.125000e+01
3.125000e+01
3.125000e+01
3.125000e+01
3.125000e+01
3.125000e+01
3.125000e+01
3.125000e+01
3.125000e+01
3.125000e+01
3.125000e+01
3.125000e+01
3.125000e+01
3.125000e+01
3.125000e+01
3.125000e+01
3.125000e+01
3.125000e+01
3.125000e+01
3.750000e+01
3.750000e+01
3.750000e+01
3.750000e+01
3.750000e+01
3.750000e+01
3.750000e+01
3.750000e+01
3.750000e+01
3.750000e+01
3.750000e+01
3.750000e+01
3.750000e+01
3.750000e+01
3.750000e+01
3.750000e+01
3.750000e+01
3.750000e+01
3.750000e+01
3.750000e+01
3.750000e+01
3.750000e+01
3.750000e+01
3.750000e+01
3.750000e+01
3.750000e+01
3.750000e+01
3.750000e+01
3.750000e+01
3.750000e+01
3.750000e+01
3.750000e+01
3.750000e+01
4.375000e+01
4.375000e+01
4.375000e+01
4.375000e+01
4.375000e+01
4.375000e+01
4.375000e+01
4.375000e+01
4.375000e+01
4.375000e+01
4.375000e+01
4.375000e+01
4.375000e+01
4.375000e+01
4.375000e+01
4.375000e+01
4.375000e+01
4.375000e+01
4.375000e+01
4.375000e+01
4.375000e+01
4.375000e+01
4.375000e+01
4.375000e+01
4.375000e+01
4.375000e+01
4.375000e+01
4.375000e+01
4.375000e+01
4.375000e+01
4.375000e+01
4.375000e+01
4.375000e+01
5.000000e+01
5.000000e+01
5.000000e+01
5.000000e+01
5.000000e+01
5.000000e+01
5.000000e+01
5.000000e+01
5.000000e+01
5.000000e+01
5.000000e+01
5.000000e+01
5.000000e+01
5.000000e+01
5.000000e+01
5.000000e+01
5.000000e+01
5.000000e+01
5.000000e+01
5.000000e+01
5.000000e+01
5.000000e+01
5.000000e+01
5.000000e+01
5.000000e+01
5.000000e+01
5.000000e+01
5.000000e+01
5.000000e+01
5.000000e+01
5.000000e+01
5.000000e+01
5.000000e+01
5.625000e+01
5.625000e+01
5.625000e+01
5.625000e+01
5.625000e+01
5.625000e+01
5.625000e+01
5.625000e+01
5.625000e+01
5.625000e+01
5.625000e+01
5.625000e+01
5.625000e+01
5.625000e+01
5.625000e+01
5.625000e+01
5.625000e+01
5.625000e+01
5.625000e+01
5.625000e+01
5.625000e+01
5.625000e+01
5.625000e+01
5.625000e+01
5.625000e+01
5.625000e+01
5.625000e+01
5.625000e+01
5.625000e+01
5.625000e+01
5.625000e+01
5.625000e+01
5.625000e+01
6.250000e+01
6.250000e+01
6.250000e+01
6.250000e+01
6.250000e+01
6.250000e+01
6.250000e+01
6.250000e+01
6.250000e+01
6.250000e+01
6.250000e+01
6.250000e+01
6.250000e+01
6.250000e+01
6.250000e+01
6.250000e+01
6.250000e+01
6.250000e+01
6.250000e+01
6.250000e+01
6.250000e+01
6.250000e+01
6.250000e+01
6.250000e+01
6.250000e+01
6.250000e+01
6.250000e+01
6.250000e+01
6.250000e+01
6.250000e+01
6.250000e+01
6.250000e+01
6.250000e+01
6.875000e+01
6.875000e+01
6.875000e+01
6.875000e+01
6.875000e+01
6.875000e+01
6.875000e+01
6.875000e+01
6.875000e+01
6.875000e+01
6.875000e+01
6.875000e+01
6.875000e+01
6.875000e+01
6.875000e+01
6.875000e+01
6.875000e+01
6.875000e+01
6.875000e+01
6.875000e+01
6.875000e+01
6.875000e+01
6.875000e+01
6.875000e+01
6.875000e+01
6.875000e+01
6.875000e+01
6.875000e+01
6.875000e+01
6.875000e+01
6.875000e+01
6.875000e+01
6.875000e+01
7.500000e+01
7.500000e+01
7.500000e+01
7.500000e+01
7.500000e+01
7.500000e+01
7.500000e+01
7.500000e+01
7.500000e+01
7.500000e+01
7.500000e+01
7.500000e+01
7.500000e+01
7.500000e+01
7.500000e+01
7.500000e+01
7.500000e+01
7.500000e+01
7.500000e+01
7.500000e+01
7.500000e+01
7.500000e+01
7.500000e+01
7.500000e+01
7.500000e+01
7.500000e+01
7.500000e+01
7.500000e+01
7.500000e+01
7.500000e+01
7.500000e+01
7.500000e+01
7.500000e+01
8.125000e+01
8.125000e+01
8.125000e+01
8.125000e+01
8.125000e+01
8.125000e+01
8.125000e+01
8.125000e+01
8.125000e+01
8.125000e+01
8.125000e+01
8.125000e+01
8.125000e+01
8.125000e+01
8.125000e+01
8.125000e+01
8.125000e+01
8.125000e+01
8.125000e+01
8.125000e+01
8.125000e+01
8.125000e+01
8.125000e+01
8.125000e+01
8.125000e+01
8.125000e+01
8.125000e+01
8.125000e+01
8.125000e+01
8.125000e+01
8.125000e+01
8.125000e+01
8.125000e+01
8.750000e+01
8.750000e+01
8.750000e+01
8.750000e+01
8.750000e+01
8.750000e+01
8.750000e+01
8.750000e+01
8.750000e+01
8.750000e+01
8.750000e+01
8.750000e+01
8.750000e+01
8.750000e+01
8.750000e+01
8.750000e+01
8.750000e+01
8.750000e+01
8.750000e+01
8.750000e+01
8.750000e+01
8.750000e+01
8.750000e+01
8.750000e+01
8.750000e+01
8.750000e+01
8.750000e+01
8.750000e+01
8.750000e+01
8.750000e+01
8.750000e+01
8.750000e+01
8.750000e+01
9.375000e+01
9.375000e+01
9.375000e+01
9.375000e+01
9.375000e+01
9.375000e+01
9.375000e+01
9.375000e+01
9.375000e+01
9.375000e+01
9.375000e+01
9.375000e+01
9.375000e+01
9.375000e+01
9.375000e+01
9.375000e+01
9.375000e+01
9.375000e+01
9.375000e+01
9.375000e+01
9.375000e+01
9.375000e+01
9.375000e+01
9.375000e+01
9.375000e+01
9.375000e+01
9.375000e+01
9.375000e+01
9.375000e+01
9.375000e+01
9.375000e+01
9.375000e+01
9.375000e+01
1.000000e+02
1.000000e+02
1.000000e+02
1.000000e+02
1.000000e+02
1.000000e+02
1.000000e+02
1.000000e+02
1.000000e+02
1.000000e+02
1.000000e+02
1.000000e+02
1.000000e+02
1.000000e+02
1.000000e+02
1.000000e+02
1.000000e+02
1.000000e+02
1.000000e+02
1.000000e+02
1.000000e+02
1.000000e+02
1.000000e+02
1.000000e+02
1.000000e+02
1.000000e+02
1.000000e+02
1.000000e+02
1.000000e+02
1.000000e+02
1.000000e+02
1.000000e+02
1.000000e+02
0.000000e+00
-3.977045e-02
-7.215820e-02
-1.021609e-01
-1.309550e-01
-1.587601e-01
-1.856319e-01
-2.115682e-01
-2.365526e-01
-2.605669e-01
-2.835960e-01
-3.056297e-01
-3.266624e-01
-3.466938e-01
-3.657285e-01
-3.837766e-01
-4.008542e-01
-4.169849e-01
-4.322011e-01
-4.465465e-01
-4.600794e-01
-4.728770e-01
-4.850413e-01
-4.967076e-01
-5.080569e-01
-5.193356e-01
-5.308857e-01
-5.431950e-01
-5.569790e-01
-5.732906e-01
-5.934958e-01
-6.175750e-01
-6.322701e-01
0.000000e+00
-2.666502e-02
-5.547944e-02
-8.264763e-02
-1.084699e-01
-1.331922e-01
-1.569452e-01
-1.797859e-01
-2.017372e-01
-2.228064e-01
-2.429950e-01
-2.623029e-01
-2.807312e-01
-2.982827e-01
-3.149632e-01
-3.307822e-01
-3.457530e-01
-3.598941e-01
-3.732300e-01
-3.857926e-01
-3.976224e-01
-4.087707e-01
-4.193008e-01
-4.292906e-01
-4.388328e-01
-4.480344e-01
-4.570079e-01
-4.658464e-01
-4.745490e-01
-4.828328e-01
-4.897354e-01
-4.937710e-01
-4.993893e-01
0.000000e+00
-2.115076e-02
-4.354392e-02
-6.634372e-02
-8.849807e-02
-1.098360e-01
-1.303438e-01
-1.500410e-01
-1.689450e-01
-1.870677e-01
-2.044168e-01
-2.209977e-01
-2.368150e-01
-2.518734e-01
-2.661784e-01
-2.797370e-01
-2.925580e-01
-3.046524e-01
-3.160339e-01
-3.267187e-01
-3.367254e-01
-3.460743e-01
-3.547854e-01
-3.628740e-01
-3.703434e-01
-3.771696e-01
-3.832745e-01
-3.884785e-01
-3.924296e-01
-3.945571e-01
-3.943706e-01
-3.931759e-01
-3.997365e-01
0.000000e+00
-1.678125e-02
-3.448930e-02
-5.268210e-02
-7.083227e-02
-8.854280e-02
-1.056620e-01
-1.221355e-01
-1.379486e-01
-1.531006e-01
-1.675954e-01
-1.814380e-01
-1.946328e-01
-2.071842e-01
-2.190957e-01
-2.303708e-01
-2.410126e-01
-2.510237e-01
-2.604063e-01
-2.691609e-01
-2.772851e-01
-2.847717e-01
-2.916040e-01
-2.977501e-01
-3.031534e-01
-3.077185e-01
-3.112942e-01
-3.136622e-01
-3.145663e-01
-3.138951e-01
-3.122650e-01
-3.121677e-01
-3.184183e-01
0.000000e+00
-1.302459e-02
-2.666993e-02
-4.075115e-02
-5.494677e-02
-6.896828e-02
-8.262222e-02
-9.581063e-02
-1.084890e-01
-1.206401e-01
-1.322596e-01
-1.433481e-01
-1.539075e-01
-1.639398e-01
-1.734455e-01
-1.824238e-01
-1.908720e-01
-1.987849e-01
-2.061543e-01
-2.129679e-01
-2.192074e-01
-2.248461e-01
-2.298454e-01
-2.341505e-01
-2.376853e-01
-2.403496e-01
-2.420262e-01
-2.426144e-01
-2.421319e-01
-2.409513e-01
-2.401853e-01
-2.419541e-01
-2.472861e-01
0.000000e+00
-9.572318e-03
-1.955475e-02
-2.985789e-02
-4.030370e-02
-5.069721e-02
-6.088360e-02
-7.076226e-02
-8.027797e-02
-8.940385e-02
-9.812860e-02
-1.064482e-01
-1.143612e-01
-1.218663e-01
-1.289606e-01
-1.356390e-01
-1.418936e-01
-1.477130e-01
-1.530815e-01
-1.579780e-01
-1.623749e-01
-1.662366e-01
-1.695181e-01
-1.721641e-01
-1.741121e-01
-1.753006e-01
-1.756949e-01
-1.753411e-01
-1.744689e-01
-1.736391e-01
-1.738411e-01
-1.760959e-01
-1.805078e-01
0.000000e+00
-6.299736e-03
-1.284866e-02
-1.960532e-02
-2.647339e-02
-3.333726e-02
-4.009340e-02
-4.666637e-02
-5.300895e-02
-5.909508e-02
-6.491160e-02
-7.045189e-02
-7.571171e-02
-8.068667e-02
-8.537078e-02
-8.975546e-02
-9.382890e-02
-9.757542e-02
-1.009749e-01
-1.040024e-01
-1.066274e-01
-1.088143e-01
-1.105235e-01
-1.117145e-01
-1.123544e-01
-1.124338e-01
-1.119963e-01
-1.111866e-01
-1.103129e-01
-1.098894e-01
-1.105502e-01
-1.127455e-01
-1.163069e-01
0.000000e+00
-3.129077e-03
-6.376451e-03
-9.725432e-03
-1.313372e-02
-1.654748e-02
-1.991558e-02
-2.319800e-02
-2.636772e-02
-2.940821e-02
-3.230970e-02
-3.506572e-02
-3.767062e-02
-4.011794e-02
-4.239935e-02
-4.450389e-02
-4.641743e-02
-4.812232e-02
-4.959713e-02
-5.081672e-02
-5.175293e-02
-5.237609e-02
-5.265839e-02
-5.257987e-02
-5.213900e-02
-5.136942e-02
-5.036427e-02
-4.930517e-02
-4.848300e-02
-4.827704e-02
-4.905228e-02
-5.096740e-02
-5.379327e-02
0.000000e+00
-5.048452e-06
-1.094648e-05
-1.736735e-05
-2.397333e-05
-3.030901e-05
-3.568812e-05
-3.906774e-05
-3.890141e-05
-3.296233e-05
-1.812977e-05
9.864725e-06
5.673133e-05
1.299494e-04
2.391125e-04
3.962623e-04
6.161573e-04
9.163959e-04
1.317259e-03
1.841074e-03
2.510796e-03
3.347378e-03
4.365330e-03
5.565758e-03
6.926174e-03
8.386985e-03
9.836348e-03
1.109908e-02
1.194201e-02
1.211295e-02
1.142466e-02
9.865907e-03
7.682789e-03
0.000000e+00
3.119568e-03
6.355791e-03
9.692587e-03
1.308828e-02
1.648986e-02
1.984748e-02
2.312306e-02
2.629246e-02
2.934333e-02
3.227173e-02
3.507921e-02
3.777085e-02
4.035429e-02
4.283928e-02
4.523764e-02
4.756321e-02
4.983178e-02
5.206066e-02
5.426766e-02
5.646925e-02
5.867758e-02
6.089579e-02
6.311155e-02
6.528886e-02
6.735901e-02
6.921362e-02
7.070529e-02
7.166373e-02
7.193508e-02
7.144365e-02
7.025954e-02
6.863924e-02
0.000000e+00
6.291968e-03
1.283166e-02
1.957811e-02
2.643545e-02
3.328870e-02
4.003534e-02
4.660146e-02
5.294213e-02
5.903464e-02
6.487054e-02
7.044972e-02
7.577667e-02
8.085858e-02
8.570437e-02
9.032435e-02
9.473010e-02
9.893418e-02
1.029496e-01
1.067889e-01
1.104619e-01
1.139734e-01
1.173185e-01
1.204780e-01
1.234121e-01
1.260557e-01
1.283170e-01
1.300831e-01
1.312391e-01
1.317013e-01
1.314637e-01
1.306443e-01
1.295134e-01
0.000000e+00
9.567363e-03
1.954371e-02
2.983991e-02
4.027818e-02
5.066389e-02
6.084283e-02
7.071533e-02
8.022760e-02
8.935486e-02
9.808880e-02
1.064296e-01
1.143815e-01
1.219508e-01
1.291445e-01
1.359702e-01
1.424361e-01
1.485504e-01
1.543208e-01
1.597540e-01
1.648538e-01
1.696191e-01
1.740406e-01
1.780975e-01
1.817539e-01
1.849566e-01
1.876367e-01
1.897168e-01
1.911274e-01
1.918342e-01
1.918740e-01
1.913933e-01
1.906786e-01
0.000000e+00
1.302336e-02
2.666685e-02
4.074564e-02
5.493826e-02
6.895628e-02
8.260641e-02
9.579099e-02
1.084659e-01
1.206147e-01
1.322337e-01
1.433250e-01
1.538927e-01
1.639410e-01
1.734743e-01
1.824964e-01
1.910107e-01
1.990200e-01
2.065263e-01
2.135299e-01
2.200287e-01
2.260167e-01
2.314824e-01
2.364069e-01
2.407626e-01
2.445128e-01
2.476147e-01
2.500255e-01
2.517150e-01
2.526856e-01
2.530005e-01
2.528200e-01
2.524435e-01
0.000000e+00
1.678437e-02
3.449563e-02
5.269153e-02
7.084452e-02
8.855752e-02
1.056787e-01
1.221534e-01
1.379662e-01
1.531158e-01
1.676050e-01
1.814370e-01
1.946145e-01
2.071388e-01
2.190104e-01
2.302281e-01
2.407898e-01
2.506922e-01
2.599303e-01
2.684975e-01
2.763853e-01
2.835826e-01
2.900758e-01
2.958485e-01
3.008822e-01
3.051581e-01
3.086602e-01
3.113806e-01
3.133275e-01
3.145375e-01
3.150940e-01
3.151604e-01
3.150354e-01
0.000000e+00
2.115837e-02
4.356017e-02
6.636917e-02
8.853319e-02
1.098812e-01
1.303992e-01
1.501060e-01
1.690177e-01
1.871443e-01
2.044908e-01
2.210585e-01
2.368463e-01
2.518512e-01
2.660684e-01
2.794917e-01
2.921126e-01
3.039210e-01
3.149043e-01
3.250478e-01
3.343350e-01
3.427477e-01
3.502677e-01
3.568782e-01
3.625666e-01
3.673285e-01
3.711726e-01
3.741260e-01
3.762397e-01
3.775935e-01
3.783020e-01
3.785328e-01
3.785604e-01
0.000000e+00
2.667644e-02
5.550440e-02
8.268778e-02
1.085272e-01
1.332687e-01
1.570424e-01
1.799048e-01
2.018774e-01
2.229650e-01
2.431655e-01
2.624732e-01
2.808808e-01
2.983800e-01
3.149607e-01
3.306112e-01
3.453171e-01
3.590613e-01
3.718231e-01
3.835783e-01
3.942999e-01
4.039590e-01
4.125270e-01
4.199795e-01
4.263009e-01
4.314916e-01
4.355761e-01
4.386120e-01
4.406974e-01
4.419752e-01
4.426281e-01
4.428648e-01
4.429228e-01
0.000000e+00
3.978296e-02
7.218738e-02
1.022109e-01
1.310298e-01
1.588638e-01
1.857688e-01
2.117423e-01
2.367670e-01
2.608229e-01
2.838915e-01
3.059568e-01
3.270045e-01
3.470212e-01
3.659930e-01
3.839040e-01
4.007352e-01
4.164631e-01
4.310590e-01
4.444883e-01
4.567105e-01
4.676807e-01
4.773518e-01
4.856795e-01
4.926294e-01
4.981874e-01
5.023733e-01
5.052570e-01
5.069758e-01
5.077502e-01
5.078910e-01
5.077744e-01
5.077088e-01
0.000000e+00
-2.457738e-02
-4.289283e-02
-6.287940e-02
-8.513563e-02
-1.102763e-01
-1.384760e-01
-1.697839e-01
-2.041687e-01
-2.415568e-01
-2.818490e-01
-3.249314e-01
-3.706809e-01
-4.189697e-01
-4.696670e-01
-5.226415e-01
-5.777623e-01
-6.349010e-01
-6.939335e-01
-7.547429e-01
-8.172235e-01
-8.812861e-01
-9.468671e-01
-1.013941e+00
-1.082542e+00
-1.152796e+00
-1.224984e+00
-1.299649e+00
-1.377834e+00
-1.461603e+00
-1.555410e+00
-1.669759e+00
-1.827737e+00
0.000000e+00
-1.527390e-02
-3.444535e-02
-5.456675e-02
-7.713319e-02
-1.025470e-01
-1.310207e-01
-1.626026e-01
-1.972642e-01
-2.349317e-01
-2.755056e-01
-3.188708e-01
-3.649034e-01
-4.134743e-01
-4.644517e-01
-5.177027e-01
-5.730951e-01
-6.304985e-01
-6.897863e-01
-7.508388e-01
-8.135464e-01
-8.778156e-01
-9.435768e-01
-1.010797e+00
-1.079502e+00
-1.149805e+00
-1.221973e+00
-1.296533e+00
-1.374505e+00
-1.457919e+00
-1.551000e+00
-1.662805e+00
-1.810396e+00
0.000000e+00
-1.121956e-02
-2.776968e-02
-4.761659e-02
-7.022245e-02
-9.582349e-02
-1.245220e-01
-1.563446e-01
-1.912530e-01
-2.291701e-01
-2.699945e-01
-3.136103e-01
-3.598930e-01
-4.087131e-01
-4.599383e-01
-5.134352e-01
-5.690709e-01
-6.267142e-01
-6.862379e-01
-7.475210e-01
-8.104532e-01
-8.749401e-01
-9.409119e-01
-1.008337e+00
-1.077243e+00
-1.147752e+00
-1.220139e+00
-1.294947e+00
-1.373183e+00
-1.456676e+00
-1.548546e+00
-1.652485e+00
-1.767784e+00
0.000000e+00
-8.984150e-03
-2.351532e-02
-4.230389e-02
-6.461924e-02
-9.021232e-02
-1.190336e-01
-1.510345e-01
-1.861461e-01
-2.242770e-01
-2.653194e-01
-3.091548e-01
-3.556573e-01
-4.046973e-01
-4.561426e-01
-5.098602e-01
-5.657175e-01
-6.235840e-01
-6.833330e-01
-7.448446e-01
-8.080099e-01
-8.727368e-01
-9.389591e-01
-1.006650e+00
-1.075844e+00
-1.146668e+00
-1.219397e+00
-1.294529e+00
-1.372888e+00
-1.455681e+00
-1.544058e+00
-1.637268e+00
-1.724036e+00
0.000000e+00
-7.602068e-03
-2.073311e-02
-3.853124e-02
-6.033789e-02
-8.576318e-02
-1.145953e-01
-1.467001e-01
-1.819618e-01
-2.202649e-01
-2.614898e-01
-3.055121e-01
-3.522042e-01
-4.014358e-01
-4.530751e-01
-5.069903e-01
-5.630500e-01
-6.211251e-01
-6.810906e-01
-7.428289e-01
-8.062333e-01
-8.712145e-01
-9.377092e-01
-1.005692e+00
-1.075196e+00
-1.146331e+00
-1.219322e+00
-1.294527e+00
-1.372421e+00
-1.453386e+00
-1.537036e+00
-1.620300e+00
-1.695866e+00
0.000000e+00
-6.722637e-03
-1.890764e-02
-3.593507e-02
-5.725085e-02
-8.243797e-02
-1.112074e-01
-1.433533e-01
-1.787137e-01
-2.171459e-01
-2.585153e-01
-3.026903e-01
-3.495401e-01
-3.989337e-01
-4.507403e-01
-5.048290e-01
-5.610703e-01
-6.193370e-01
-6.795062e-01
-7.414620e-01
-8.050993e-01
-8.703294e-01
-9.370870e-01
-1.005340e+00
-1.075100e+00
-1.146434e+00
-1.219469e+00
-1.294362e+00
-1.371199e+00
-1.449722e+00
-1.528734e+00
-1.605412e+00
-1.675495e+00
0.000000e+00
-6.176081e-03
-1.775349e-02
-3.424750e-02
-5.518275e-02
-8.015283e-02
-1.088368e-01
-1.409868e-01
-1.764055e-01
-2.149270e-01
-2.564030e-01
-3.006946e-01
-3.476682e-01
-3.971920e-01
-4.491361e-01
-5.033710e-01
-5.597691e-01
-6.182048e-01
-6.785567e-01
-7.407096e-01
-8.045576e-01
-8.700082e-01
-9.369875e-01
-1.005445e+00
-1.075357e+00
-1.146725e+00
-1.219555e+00
-1.293805e+00
-1.369262e+00
-1.445310e+00
-1.520635e+00
-1.593065e+00
-1.659938e+00
0.000000e+00
-5.875740e-03
-1.711307e-02
-3.329652e-02
-5.399688e-02
-7.882176e-02
-1.074399e-01
-1.395828e-01
-1.750331e-01
-2.136099e-01
-2.551556e-01
-2.995268e-01
-3.465877e-01
-3.962069e-01
-4.482550e-01
-5.026044e-01
-5.591286e-01
-6.177034e-01
-6.782076e-01
-7.405249e-01
-8.045457e-01
-8.701693e-01
-9.373064e-01
-1.005880e+00
-1.075820e+00
-1.147056e+00
-1.219483e+00
-1.292903e+00
-1.366923e+00
-1.440817e+00
-1.513398e+00
-1.583031e+00
-1.647901e+00
0.000000e+00
-5.778971e-03
-1.690646e-02
-3.298830e-02
-5.361039e-02
-7.838612e-02
-1.069823e-01
-1.391247e-01
-1.745900e-01
-2.131925e-01
-2.547723e-01
-2.991848e-01
-3.462945e-01
-3.959707e-01
-4.480854e-01
-5.025122e-01
-5.591258e-01
-6.178022e-01
-6.784195e-01
-7.408581e-01
-8.050018e-01
-8.707383e-01
-9.379587e-01
-1.006554e+00
-1.076409e+00
-1.147384e+00
-1.219287e+00
-1.291821e+00
-1.364518e+00
-1.436661e+00
-1.507247e+00
-1.575029e+00
-1.638676e+00
0.000000e+00
-5.872941e-03
-1.710919e-02
-3.329318e-02
-5.399587e-02
-7.882530e-02
-1.074510e-01
-1.396052e-01
-1.750721e-01
-2.136721e-01
-2.552498e-01
-2.996639e-01
-3.467812e-01
-3.964730e-01
-4.486129e-01
-5.030754e-01
-5.597359e-01
-6.184699e-01
-6.791535e-01
-7.416624e-01
-8.058723e-01
-8.716568e-01
-9.388855e-01
-1.007419e+00
-1.077097e+00
-1.147729e+00
-1.219060e+00
-1.290742e+00
-1.362294e+00
-1.433063e+00
-1.502222e+00
-1.568807e+00
-1.631801e+00
0.000000e+00
-6.170709e-03
-1.774603e-02
-3.424105e-02
-5.518073e-02
-8.015950e-02
-1.088578e-01
-1.410295e-01
-1.764800e-01
-2.150461e-01
-2.565833e-01
-3.009573e-01
-3.480390e-01
-3.977024e-01
-4.498225e-01
-5.042750e-01
-5.609352e-01
-6.196777e-01
-6.803755e-01
-7.428993e-01
-8.071153e-01
-8.728834e-01
-9.400524e-01
-1.008454e+00
-1.077896e+00
-1.148143e+00
-1.218906e+00
-1.289817e+00
-1.360414e+00
-1.430125e+00
-1.498282e+00
-1.564140e+00
-1.626920e+00
0.000000e+00
-6.715171e-03
-1.889728e-02
-3.592606e-02
-5.724793e-02
-8.244710e-02
-1.112364e-01
-1.434127e-01
-1.788173e-01
-2.173119e-01
-2.587670e-01
-3.030571e-01
-3.500584e-01
-3.996475e-01
-4.517008e-01
-5.060947e-01
-5.627040e-01
-6.214020e-01
-6.820588e-01
-7.445395e-01
-8.087019e-01
-8.743927e-01
-9.414433e-01
-1.009663e+00
-1.078830e+00
-1.148684e+00
-1.218916e+00
-1.289155e+00
-1.358970e+00
-1.427876e+00
-1.495340e+00
-1.560811e+00
-1.623721e+00
0.000000e+00
-7.593274e-03
-2.072092e-02
-3.852063e-02
-6.033452e-02
-8.577423e-02
-1.146303e-01
-1.467718e-01
-1.820869e-01
-2.204654e-01
-2.617939e-01
-3.059556e-01
-3.528311e-01
-4.022992e-01
-4.542375e-01
-5.085224e-01
-5.650283e-01
-6.236269e-01
-6.841855e-01
-7.465645e-01
-8.106145e-01
-8.761719e-01
-9.430539e-01
-1.011053e+00
-1.079928e+00
-1.149402e+00
-1.219153e+00
-1.288820e+00
-1.358006e+00
-1.426297e+00
-1.493287e+00
-1.558601e+00
-1.621890e+00
0.000000e+00
-8.975111e-03
-2.350279e-02
-4.229310e-02
-6.461634e-02
-9.022530e-02
-1.190730e-01
-1.511144e-01
-1.862852e-01
-2.244995e-01
-2.656566e-01
-3.096459e-01
-3.563510e-01
-4.056521e-01
-4.574273e-01
-5.115526e-01
-5.679019e-01
-6.263454e-01
-6.867481e-01
-7.489668e-01
-8.128469e-01
-8.782173e-01
-9.448859e-01
-1.012633e+00
-1.081208e+00
-1.150321e+00
-1.219650e+00
-1.288838e+00
-1.357519e+00
-1.425339e+00
-1.491996e+00
-1.557282e+00
-1.621092e+00
0.000000e+00
-1.121169e-02
-2.775871e-02
-4.760748e-02
-7.022159e-02
-9.583929e-02
-1.245656e-01
-1.564306e-01
-1.914009e-01
-2.294049e-01
-2.703484e-01
-3.141240e-01
-3.606164e-01
-4.097063e-01
-4.612715e-01
-5.151876e-01
-5.713277e-01
-6.295609e-01
-6.897505e-01
-7.517508e-01
-8.154038e-01
-8.805343e-01
-9.469449e-01
-1.014411e+00
-1.082674e+00
-1.151444e+00
-1.220397e+00
-1.289186e+00
-1.357465e+00
-1.424920e+00
-1.491326e+00
-1.556618e+00
-1.620952e+00
0.000000e+00
-1.526884e-02
-3.443789e-02
-5.456139e-02
-7.713650e-02
-1.025675e-01
-1.310698e-01
-1.626949e-01
-1.974190e-01
-2.351740e-01
-2.758671e-01
-3.193913e-01
-3.656316e-01
-4.144684e-01
-4.657790e-01
-5.194386e-01
-5.753193e-01
-6.332892e-01
-6.932101e-01
-7.549348e-01
-8.183036e-01
-8.831392e-01
-9.492425e-01
-1.016387e+00
-1.084316e+00
-1.152740e+00
-1.221340e+00
-1.289781e+00
-1.357730e+00
-1.424900e+00
-1.491109e+00
-1.556379e+00
-1.621071e+00
0.000000e+00
-2.457666e-02
-4.289034e-02
-6.287987e-02
-8.514567e-02
-1.103045e-01
-1.385337e-01
-1.698856e-01
-2.043334e-01
-2.418086e-01
-2.822186e-01
-3.254566e-01
-3.714077e-01
-4.199521e-01
-4.709668e-01
-5.243262e-01
-5.799014e-01
-6.375592e-01
-6.971599e-01
-7.585549e-01
-8.215829e-01
-8.860656e-01
-9.518037e-01