TITLE = "Solution"
VARIABLES = x, y, u, v, psiu, psiv, t, stress
ZONE T="structure" N=561 E=512 F=FEBLOCK ET=QUADRILATERAL VARLOCATION=([7,8]=cellcentered)
0.000000e+00
6.250000e+00
1.250000e+01
1.875000e+01
2.500000e+01
3.125000e+01
3.750000e+01
4.375000e+01
5.000000e+01
5.625000e+01
6.250000e+01
6.875000e+01
7.500000e+01
8.125000e+01
8.750000e+01
9.375000e+01
1.000000e+02
1.062500e+02
1.125000e+02
1.187500e+02
1.250000e+02
1.312500e+02
1.375000e+02
1.437500e+02
1.500000e+02
1.562500e+02
1.625000e+02
1.687500e+02
1.750000e+02
1.812500e+02
1.875000e+02
1.937500e+02
2.000000e+02
0.000000e+00
6.250000e+00
1.250000e+01
1.875000e+01
2.500000e+01
3.125000e+01
3.750000e+01
4.375000e+01
5.000000e+01
5.625000e+01
6.250000e+01
6.875000e+01
7.500000e+01
8.125000e+01
8.750000e+01
9.375000e+01
1.000000e+02
1.062500e+02
1.125000e+02
1.187500e+02
1.250000e+02
1.312500e+02
1.375000e+02
1.437500e+02
1.500000e+02
1.562500e+02
1.625000e+02
1.687500e+02
1.750000e+02
1.812500e+02
1.875000e+02
1.937500e+02
2.000000e+02
0.000000e+00
6.250000e+00
1.250000e+01
1.875000e+01
2.500000e+01
3.125000e+01
3.750000e+01
4.375000e+01
5.000000e+01
5.625000e+01
6.250000e+01
6.875000e+01
7.500000e+01
8.125000e+01
8.750000e+01
9.375000e+01
1.000000e+02
1.062500e+02
1.125000e+02
1.187500e+02
1.250000e+02
1.312500e+02
1.375000e+02
1.437500e+02
1.500000e+02
1.562500e+02
1.625000e+02
1.687500e+02
1.750000e+02
1.812500e+02
1.875000e+02
1.937500e+02
2.000000e+02
0.000000e+00
6.250000e+00
1.250000e+01
1.875000e+01
2.500000e+01
3.125000e+01
3.750000e+01
4.375000e+01
5.000000e+01
5.625000e+01
6.250000e+01
6.875000e+01
7.500000e+01
8.125000e+01
8.750000e+01
9.375000e+01
1.000000e+02
1.062500e+02
1.125000e+02
1.187500e+02
1.250000e+02
1.312500e+02
1.375000e+02
1.437500e+02
1.500000e+02
1.562500e+02
1.625000e+02
1.687500e+02
1.750000e+02
1.812500e+02
1.875000e+02
1.937500e+02
2.000000e+02
0.000000e+00
6.250000e+00
1.250000e+01
1.875000e+01
2.500000e+01
3.125000e+01
3.750000e+01
4.375000e+01
5.000000e+01
5.625000e+01
6.250000e+01
6.875000e+01
7.500000e+01
8.125000e+01
8.750000e+01
9.375000e+01
1.000000e+02
1.062500e+02
1.125000e+02
1.187500e+02
1.250000e+02
1.312500e+02
1.375000e+02
1.437500e+02
1.500000e+02
1.562500e+02
1.625000e+02
1.687500e+02
1.750000e+02
1.812500e+02
1.875000e+02
1.937500e+02
2.000000e+02
0.000000e+00
6.250000e+00
1.250000e+01
1.875000e+01
2.500000e+01
3.125000e+01
3.750000e+01
4.375000e+01
5.000000e+01
5.625000e+01
6.250000e+01
6.875000e+01
7.500000e+01
8.125000e+01
8.750000e+01
9.375000e+01
1.000000e+02
1.062500e+02
1.125000e+02
1.187500e+02
1.250000e+02
1.312500e+02
1.375000e+02
1.437500e+02
1.500000e+02
1.562500e+02
1.625000e+02
1.687500e+02
1.750000e+02
1.812500e+02
1.875000e+02
1.937500e+02
2.000000e+02
0.000000e+00
6.250000e+00
1.250000e+01
1.875000e+01
2.500000e+01
3.125000e+01
3.750000e+01
4.375000e+01
5.000000e+01
5.625000e+01
6.250000e+01
6.875000e+01
7.500000e+01
8.125000e+01
8.750000e+01
9.375000e+01
1.000000e+02
1.062500e+02
1.125000e+02
1.187500e+02
1.250000e+02
1.312500e+02
1.375000e+02
1.437500e+02
1.500000e+02
1.562500e+02
1.625000e+02
1.687500e+02
1.750000e+02
1.812500e+02
1.875000e+02
1.937500e+02
2.000000e+02
0.000000e+00
6.250000e+00
1.250000e+01
1.875000e+01
2.500000e+01
3.125000e+01
3.750000e+01
4.375000e+01
5.000000e+01
5.625000e+01
6.250000e+01
6.875000e+01
7.500000e+01
8.125000e+01
8.750000e+01
9.375000e+01
1.000000e+02
1.062500e+02
1.125000e+02
1.187500e+02
1.250000e+02
1.312500e+02
1.375000e+02
1.437500e+02
1.500000e+02
1.562500e+02
1.625000e+02
1.687500e+02
1.750000e+02
1.812500e+02
1.875000e+02
1.937500e+02
2.000000e+02
0.000000e+00
6.250000e+00
1.250000e+01
1.875000e+01
2.500000e+01
3.125000e+01
3.750000e+01
4.375000e+01
5.000000e+01
5.625000e+01
6.250000e+01
6.875000e+01
7.500000e+01
8.125000e+01
8.750000e+01
9.375000e+01
1.000000e+02
1.062500e+02
1.125000e+02
1.187500e+02
1.250000e+02
1.312500e+02
1.375000e+02
1.437500e+02
1.500000e+02
1.562500e+02
1.625000e+02
1.687500e+02
1.750000e+02
1.812500e+02
1.875000e+02
1.937500e+02
2.000000e+02
0.000000e+00
6.250000e+00
1.250000e+01
1.875000e+01
2.500000e+01
3.125000e+01
3.750000e+01
4.375000e+01
5.000000e+01
5.625000e+01
6.250000e+01
6.875000e+01
7.500000e+01
8.125000e+01
8.750000e+01
9.375000e+01
1.000000e+02
1.062500e+02
1.125000e+02
1.187500e+02
1.250000e+02
1.312500e+02
1.375000e+02
1.437500e+02
1.500000e+02
1.562500e+02
1.625000e+02
1.687500e+02
1.750000e+02
1.812500e+02
1.875000e+02
1.937500e+02
2.000000e+02
0.000000e+00
6.250000e+00
1.250000e+01
1.875000e+01
2.500000e+01
3.125000e+01
3.750000e+01
4.375000e+01
5.000000e+01
5.625000e+01
6.250000e+01
6.875000e+01
7.500000e+01
8.125000e+01
8.750000e+01
9.375000e+01
1.000000e+02
1.062500e+02
1.125000e+02
1.187500e+02
1.250000e+02
1.312500e+02
1.375000e+02
1.437500e+02
1.500000e+02
1.562500e+02
1.625000e+02
1.687500e+02
1.750000e+02
1.812500e+02
1.875000e+02
1.937500e+02
2.000000e+02
0.000000e+00
6.250000e+00
1.250000e+01
1.875000e+01
2.500000e+01
3.125000e+01
3.750000e+01
4.375000e+01
5.000000e+01
5.625000e+01
6.250000e+01
6.875000e+01
7.500000e+01
8.125000e+01
8.750000e+01
9.375000e+01
1.000000e+02
1.062500e+02
1.125000e+02
1.187500e+02
1.250000e+02
1.312500e+02
1.375000e+02
1.437500e+02
1.500000e+02
1.562500e+02
1.625000e+02
1.687500e+02
1.750000e+02
1.812500e+02
1.875000e+02
1.937500e+02
2.000000e+02
0.000000e+00
6.250000e+00
1.250000e+01
1.875000e+01
2.500000e+01
3.125000e+01
3.750000e+01
4.375000e+01
5.000000e+01
5.625000e+01
6.250000e+01
6.875000e+01
7.500000e+01
8.125000e+01
8.750000e+01
9.375000e+01
1.000000e+02
1.062500e+02
1.125000e+02
1.187500e+02
1.250000e+02
1.312500e+02
1.375000e+02
1.437500e+02
1.500000e+02
1.562500e+02
1.625000e+02
1.687500e+02
1.750000e+02
1.812500e+02
1.875000e+02
1.937500e+02
2.000000e+02
0.000000e+00
6.250000e+00
1.250000e+01
1.875000e+01
2.500000e+01
3.125000e+01
3.750000e+01
4.375000e+01
5.000000e+01
5.625000e+01
6.250000e+01
6.875000e+01
7.500000e+01
8.125000e+01
8.750000e+01
9.375000e+01
1.000000e+02
1.062500e+02
1.125000e+02
1.187500e+02
1.250000e+02
1.312500e+02
1.375000e+02
1.437500e+02
1.500000e+02
1.562500e+02
1.625000e+02
1.687500e+02
1.750000e+02
1.812500e+02
1.875000e+02
1.937500e+02
2.000000e+02
0.000000e+00
6.250000e+00
1.250000e+01
1.875000e+01
2.500000e+01
3.125000e+01
3.750000e+01
4.375000e+01
5.000000e+01
5.625000e+01
6.250000e+01
6.875000e+01
7.500000e+01
8.125000e+01
8.750000e+01
9.375000e+01
1.000000e+02
1.062500e+02
1.125000e+02
1.187500e+02
1.250000e+02
1.312500e+02
1.375000e+02
1.437500e+02
1.500000e+02
1.562500e+02
1.625000e+02
1.687500e+02
1.750000e+02
1.812500e+02
1.875000e+02
1.937500e+02
2.000000e+02
0.000000e+00
6.250000e+00
1.250000e+01
1.875000e+01
2.500000e+01
3.125000e+01
3.750000e+01
4.375000e+01
5.000000e+01
5.625000e+01
6.250000e+01
6.875000e+01
7.500000e+01
8.125000e+01
8.750000e+01
9.375000e+01
1.000000e+02
1.062500e+02
1.125000e+02
1.187500e+02
1.250000e+02
1.312500e+02
1.375000e+02
1.437500e+02
1.500000e+02
1.562500e+02
1.625000e+02
1.687500e+02
1.750000e+02
1.812500e+02
1.875000e+02
1.937500e+02
2.000000e+02
0.000000e+00
6.250000e+00
1.250000e+01
1.875000e+01
2.500000e+01
3.125000e+01
3.750000e+01
4.375000e+01
5.000000e+01
5.625000e+01
6.250000e+01
6.875000e+01
7.500000e+01
8.125000e+01
8.750000e+01
9.375000e+01
1.000000e+02
1.062500e+02
1.125000e+02
1.187500e+02
1.250000e+02
1.312500e+02
1.375000e+02
1.437500e+02
1.500000e+02
1.562500e+02
1.625000e+02
1.687500e+02
1.750000e+02
1.812500e+02
1.875000e+02
1.937500e+02
2.000000e+02
0.000000e+00
0.000000e+00
0.000000e+00
0.000000e+00
0.000000e+00
0.000000e+00
0.000000e+00
0.000000e+00
0.000000e+00
0.000000e+00
0.000000e+00
0.000000e+00
0.000000e+00
0.000000e+00
0.000000e+00
0.000000e+00
0.000000e+00
0.000000e+00
0.000000e+00
0.000000e+00
0.000000e+00
0.000000e+00
0.000000e+00
0.000000e+00
0.000000e+00
0.000000e+00
0.000000e+00
0.000000e+00
0.000000e+00
0.000000e+00
0.000000e+00
0.000000e+00
0.000000e+00
6.250000e+00
6.250000e+00
6.250000e+00
6.250000e+00
6.250000e+00
6.250000e+00
6.250000e+00
6.250000e+00
6.250000e+00
6.250000e+00
6.250000e+00
6.250000e+00
6.250000e+00
6.250000e+00
6.250000e+00
6.250000e+00
6.250000e+00
6.250000e+00
6.250000e+00
6.250000e+00
6.250000e+00
6.250000e+00
6.250000e+00
6.250000e+00
6.250000e+00
6.250000e+00
6.250000e+00
6.250000e+00
6.250000e+00
6.250000e+00
6.250000e+00
6.250000e+00
6.250000e+00
1.250000e+01
1.250000e+01
1.250000e+01
1.250000e+01
1.250000e+01
1.250000e+01
1.250000e+01
1.250000e+01
1.250000e+01
1.250000e+01
1.250000e+01
1.250000e+01
1.250000e+01
1.250000e+01
1.250000e+01
1.250000e+01
1.250000e+01
1.250000e+01
1.250000e+01
1.250000e+01
1.250000e+01
1.250000e+01
1.250000e+01
1.250000e+01
1.250000e+01
1.250000e+01
1.250000e+01
1.250000e+01
1.250000e+01
1.250000e+01
1.250000e+01
1.250000e+01
1.250000e+01
1.875000e+01
1.875000e+01
1.875000e+01
1.875000e+01
1.875000e+01
1.875000e+01
1.875000e+01
1.875000e+01
1.875000e+01
1.875000e+01
1.875000e+01
1.875000e+01
1.875000e+01
1.875000e+01
1.875000e+01
1.875000e+01
1.875000e+01
1.875000e+01
1.875000e+01
1.875000e+01
1.875000e+01
1.875000e+01
1.875000e+01
1.875000e+01
1.875000e+01
1.875000e+01
1.875000e+01
1.875000e+01
1.875000e+01
1.875000e+01
1.875000e+01
1.875000e+01
1.875000e+01
2.500000e+01
2.500000e+01
2.500000e+01
2.500000e+01
2.500000e+01
2.500000e+01
2.500000e+01
2.500000e+01
2.500000e+01
2.500000e+01
2.500000e+01
2.500000e+01
2.500000e+01
2.500000e+01
2.500000e+01
2.500000e+01
2.500000e+01
2.500000e+01
2.500000e+01
2.500000e+01
2.500000e+01
2.500000e+01
2.500000e+01
2.500000e+01
2.500000e+01
2.500000e+01
2.500000e+01
2.500000e+01
2.500000e+01
2.500000e+01
2.500000e+01
2.500000e+01
2.500000e+01
3.125000e+01
3.125000e+01
3.125000e+01
3.125000e+01
3.125000e+01
3.125000e+01
3.125000e+01
3.125000e+01
3.125000e+01
3.125000e+01
3.125000e+01
3.125000e+01
3.125000e+01
3.125000e+01
3.125000e+01
3.125000e+01
3.125000e+01
3.125000e+01
3.125000e+01
3.125000e+01
3.125000e+01
3.125000e+01
3.125000e+01
3.125000e+01
3.125000e+01
3.125000e+01
3.125000e+01
3.125000e+01
3.125000e+01
3.125000e+01
3.125000e+01
3.125000e+01
3.125000e+01
3.750000e+01
3.750000e+01
3.750000e+01
3.750000e+01
3.750000e+01
3.750000e+01
3.750000e+01
3.750000e+01
3.750000e+01
3.750000e+01
3.750000e+01
3.750000e+01
3.750000e+01
3.750000e+01
3.750000e+01
3.750000e+01
3.750000e+01
3.750000e+01
3.750000e+01
3.750000e+01
3.750000e+01
3.750000e+01
3.750000e+01
3.750000e+01
3.750000e+01
3.750000e+01
3.750000e+01
3.750000e+01
3.750000e+01
3.750000e+01
3.750000e+01
3.750000e+01
3.750000e+01
4.375000e+01
4.375000e+01
4.375000e+01
4.375000e+01
4.375000e+01
4.375000e+01
4.375000e+01
4.375000e+01
4.375000e+01
4.375000e+01
4.375000e+01
4.375000e+01
4.375000e+01
4.375000e+01
4.375000e+01
4.375000e+01
4.375000e+01
4.375000e+01
4.375000e+01
4.375000e+01
4.375000e+01
4.375000e+01
4.375000e+01
4.375000e+01
4.375000e+01
4.375000e+01
4.375000e+01
4.375000e+01
4.375000e+01
4.375000e+01
4.375000e+01
4.375000e+01
4.375000e+01
5.000000e+01
5.000000e+01
5.000000e+01
5.000000e+01
5.000000e+01
5.000000e+01
5.000000e+01
5.000000e+01
5.000000e+01
5.000000e+01
5.000000e+01
5.000000e+01
5.000000e+01
5.000000e+01
5.000000e+01
5.000000e+01
5.000000e+01
5.000000e+01
5.000000e+01
5.000000e+01
5.000000e+01
5.000000e+01
5.000000e+01
5.000000e+01
5.000000e+01
5.000000e+01
5.000000e+01
5.000000e+01
5.000000e+01
5.000000e+01
5.000000e+01
5.000000e+01
5.000000e+01
5.625000e+01
5.625000e+01
5.625000e+01
5.625000e+01
5.625000e+01
5.625000e+01
5.625000e+01
5.625000e+01
5.625000e+01
5.625000e+01
5.625000e+01
5.625000e+01
5.625000e+01
5.625000e+01
5.625000e+01
5.625000e+01
5.625000e+01
5.625000e+01
5.625000e+01
5.625000e+01
5.625000e+01
5.625000e+01
5.625000e+01
5.625000e+01
5.625000e+01
5.625000e+01
5.625000e+01
5.625000e+01
5.625000e+01
5.625000e+01
5.625000e+01
5.625000e+01
5.625000e+01
6.250000e+01
6.250000e+01
6.250000e+01
6.250000e+01
6.250000e+01
6.250000e+01
6.250000e+01
6.250000e+01
6.250000e+01
6.250000e+01
6.250000e+01
6.250000e+01
6.250000e+01
6.250000e+01
6.250000e+01
6.250000e+01
6.250000e+01
6.250000e+01
6.250000e+01
6.250000e+01
6.250000e+01
6.250000e+01
6.250000e+01
6.250000e+01
6.250000e+01
6.250000e+01
6.250000e+01
6.250000e+01
6.250000e+01
6.250000e+01
6.250000e+01
6.250000e+01
6.250000e+01
6.875000e+01
6.875000e+01
6.875000e+01
6.875000e+01
6.875000e+01
6.875000e+01
6.875000e+01
6.875000e+01
6.875000e+01
6.875000e+01
6.875000e+01
6.875000e+01
6.875000e+01
6.875000e+01
6.875000e+01
6.875000e+01
6.875000e+01
6.875000e+01
6.875000e+01
6.875000e+01
6.875000e+01
6.875000e+01
6.875000e+01
6.875000e+01
6.875000e+01
6.875000e+01
6.875000e+01
6.875000e+01
6.875000e+01
6.875000e+01
6.875000e+01
6.875000e+01
6.875000e+01
7.500000e+01
7.500000e+01
7.500000e+01
7.500000e+01
7.500000e+01
7.500000e+01
7.500000e+01
7.500000e+01
7.500000e+01
7.500000e+01
7.500000e+01
7.500000e+01
7.500000e+01
7.500000e+01
7.500000e+01
7.500000e+01
7.500000e+01
7.500000e+01
7.500000e+01
7.500000e+01
7.500000e+01
7.500000e+01
7.500000e+01
7.500000e+01
7.500000e+01
7.500000e+01
7.500000e+01
7.500000e+01
7.500000e+01
7.500000e+01
7.500000e+01
7.500000e+01
7.500000e+01
8.125000e+01
8.125000e+01
8.125000e+01
8.125000e+01
8.125000e+01
8.125000e+01
8.125000e+01
8.125000e+01
8.125000e+01
8.125000e+01
8.125000e+01
8.125000e+01
8.125000e+01
8.125000e+01
8.125000e+01
8.125000e+01
8.125000e+01
8.125000e+01
8.125000e+01
8.125000e+01
8.125000e+01
8.125000e+01
8.125000e+01
8.125000e+01
8.125000e+01
8.125000e+01
8.125000e+01
8.125000e+01
8.125000e+01
8.125000e+01
8.125000e+01
8.125000e+01
8.125000e+01
8.750000e+01
8.750000e+01
8.750000e+01
8.750000e+01
8.750000e+01
8.750000e+01
8.750000e+01
8.750000e+01
8.750000e+01
8.750000e+01
8.750000e+01
8.750000e+01
8.750000e+01
8.750000e+01
8.750000e+01
8.750000e+01
8.750000e+01
8.750000e+01
8.750000e+01
8.750000e+01
8.750000e+01
8.750000e+01
8.750000e+01
8.750000e+01
8.750000e+01
8.750000e+01
8.750000e+01
8.750000e+01
8.750000e+01
8.750000e+01
8.750000e+01
8.750000e+01
8.750000e+01
9.375000e+01
9.375000e+01
9.375000e+01
9.375000e+01
9.375000e+01
9.375000e+01
9.375000e+01
9.375000e+01
9.375000e+01
9.375000e+01
9.375000e+01
9.375000e+01
9.375000e+01
9.375000e+01
9.375000e+01
9.375000e+01
9.375000e+01
9.375000e+01
9.375000e+01
9.375000e+01
9.375000e+01
9.375000e+01
9.375000e+01
9.375000e+01
9.375000e+01
9.375000e+01
9.375000e+01
9.375000e+01
9.375000e+01
9.375000e+01
9.375000e+01
9.375000e+01
9.375000e+01
1.000000e+02
1.000000e+02
1.000000e+02
1.000000e+02
1.000000e+02
1.000000e+02
1.000000e+02
1.000000e+02
1.000000e+02
1.000000e+02
1.000000e+02
1.000000e+02
1.000000e+02
1.000000e+02
1.000000e+02
1.000000e+02
1.000000e+02
1.000000e+02
1.000000e+02
1.000000e+02
1.000000e+02
1.000000e+02
1.000000e+02
1.000000e+02
1.000000e+02
1.000000e+02
1.000000e+02
1.000000e+02
1.000000e+02
1.000000e+02
1.000000e+02
1.000000e+02
1.000000e+02
0.000000e+00
-3.507822e-01
-6.345851e-01
-9.057795e-01
-1.178791e+00
-1.449514e+00
-1.716711e+00
-1.980586e+00
-2.240809e+00
-2.496663e+00
-2.747386e+00
-2.992218e+00
-3.230375e+00
-3.461072e+00
-3.683574e+00
-3.897243e+00
-4.101583e+00
-4.296274e+00
-4.481202e+00
-4.656487e+00
-4.822507e+00
-4.979939e+00
-5.129810e+00
-5.273577e+00
-5.413247e+00
-5.551558e+00
-5.692268e+00
-5.840621e+00
-6.004150e+00
-6.193363e+00
-6.418900e+00
-6.675475e+00
-6.828589e+00
0.000000e+00
-2.296763e-01
-4.778767e-01
-7.198078e-01
-9.621745e-01
-1.201443e+00
-1.436650e+00
-1.668368e+00
-1.896577e+00
-2.120782e+00
-2.340396e+00
-2.554811e+00
-2.763385e+00
-2.965460e+00
-3.160404e+00
-3.347659e+00
-3.526778e+00
-3.697451e+00
-3.859528e+00
-4.013031e+00
-4.158164e+00
-4.295321e+00
-4.425092e+00
-4.548276e+00
-4.665871e+00
-4.779051e+00
-4.889066e+00
-4.996947e+00
-5.102621e+00
-5.202206e+00
-5.282674e+00
-5.327919e+00
-5.389162e+00
0.000000e+00
-1.791182e-01
-3.703943e-01
-5.725218e-01
-7.783980e-01
-9.829386e-01
-1.184734e+00
-1.383727e+00
-1.579657e+00
-1.772058e+00
-1.960430e+00
-2.144257e+00
-2.322998e+00
-2.496100e+00
-2.663028e+00
-2.823295e+00
-2.976487e+00
-3.122286e+00
-3.260471e+00
-3.390927e+00
-3.513631e+00
-3.628639e+00
-3.736047e+00
-3.835944e+00
-3.928313e+00
-4.012865e+00
-4.088739e+00
-4.153959e+00
-4.204518e+00
-4.233496e+00
-4.234815e+00
-4.224080e+00
-4.294041e+00
0.000000e+00
-1.424677e-01
-2.941893e-01
-4.553080e-01
-6.223811e-01
-7.904393e-01
-9.576532e-01
-1.123167e+00
-1.286329e+00
-1.446583e+00
-1.603437e+00
-1.756421e+00
-1.905066e+00
-2.048905e+00
-2.187482e+00
-2.320369e+00
-2.447180e+00
-2.567572e+00
-2.681253e+00
-2.787967e+00
-2.887477e+00
-2.979535e+00
-3.063827e+00
-3.139897e+00
-3.207039e+00
-3.264137e+00
-3.309462e+00
-3.340504e+00
-3.354197e+00
-3.348893e+00
-3.331772e+00
-3.331457e+00
-3.398632e+00
0.000000e+00
-1.124452e-01
-2.307932e-01
-3.557299e-01
-4.854114e-01
-6.173734e-01
-7.497780e-01
-8.814380e-01
-1.011508e+00
-1.139364e+00
-1.264508e+00
-1.386502e+00
-1.504934e+00
-1.619407e+00
-1.729531e+00
-1.834927e+00
-1.935225e+00
-2.030069e+00
-2.119104e+00
-2.201969e+00
-2.278271e+00
-2.347556e+00
-2.409263e+00
-2.462671e+00
-2.506834e+00
-2.540548e+00
-2.562402e+00
-2.571123e+00
-2.566697e+00
-2.553204e+00
-2.543909e+00
-2.563495e+00
-2.623382e+00
0.000000e+00
-8.379287e-02
-1.714556e-01
-2.632583e-01
-3.585294e-01
-4.559212e-01
-5.541803e-01
-6.522568e-01
-7.493599e-01
-8.449008e-01
-9.384200e-01
-1.029531e+00
-1.117883e+00
-1.203142e+00
-1.284977e+00
-1.363053e+00
-1.437026e+00
-1.506536e+00
-1.571201e+00
-1.630603e+00
-1.684276e+00
-1.731683e+00
-1.772199e+00
-1.805100e+00
-1.829586e+00
-1.844872e+00
-1.850463e+00
-1.846761e+00
-1.836292e+00
-1.825622e+00
-1.826869e+00
-1.852657e+00
-1.904534e+00
0.000000e+00
-5.563878e-02
-1.136531e-01
-1.741928e-01
-2.369190e-01
-3.011539e-01
-3.661300e-01
-4.311402e-01
-4.956027e-01
-5.590640e-01
-6.211647e-01
-6.816025e-01
-7.401040e-01
-7.964042e-01
-8.502329e-01
-9.013044e-01
-9.493104e-01
-9.939131e-01
-1.034739e+00
-1.071373e+00
-1.103352e+00
-1.130168e+00
-1.151277e+00
-1.166137e+00
-1.174298e+00
-1.175580e+00
-1.170416e+00
-1.160426e+00
-1.149211e+00
-1.143031e+00
-1.149945e+00
-1.175904e+00
-1.219086e+00
0.000000e+00
-2.778978e-02
-5.672911e-02
-8.687588e-02
-1.180805e-01
-1.500436e-01
-1.824055e-01
-2.148117e-01
-2.469539e-01
-2.785778e-01
-3.094719e-01
-3.394497e-01
-3.683324e-01
-3.959360e-01
-4.220602e-01
-4.464808e-01
-4.689431e-01
-4.891569e-01
-5.067946e-01
-5.214916e-01
-5.328540e-01
-5.404770e-01
-5.439822e-01
-5.430884e-01
-5.377325e-01
-5.282677e-01
-5.157555e-01
-5.023344e-01
-4.915285e-01
-4.880981e-01
-4.968280e-01
-5.199839e-01
-5.547785e-01
0.000000e+00
-1.014421e-04
-2.114627e-04
-3.254546e-04
-4.383932e-04
-5.439961e-04
-6.335647e-04
-6.944687e-04
-7.083051e-04
-6.486668e-04
-4.784367e-04
-1.465488e-04
4.157821e-04
1.299261e-03
2.620925e-03
4.528368e-03
7.203151e-03
1.086237e-02
1.575683e-02
2.216338e-02
3.036800e-02
4.063431e-02
5.315072e-02
6.794731e-02
8.477369e-02
1.029343e-01
1.210972e-01
1.371368e-01
1.481570e-01
1.509224e-01
1.429113e-01
1.238282e-01
9.676542e-02
0.000000e+00
2.759291e-02
5.631852e-02
8.624373e-02
1.172286e-01
1.489852e-01
1.811705e-01
2.134536e-01
2.455605e-01
2.772867e-01
3.084903e-01
3.390807e-01
3.690086e-01
3.982604e-01
4.268566e-01
4.548517e-01
4.823343e-01
5.094262e-01
5.362776e-01
5.630549e-01
5.899187e-01
6.169864e-01
6.442762e-01
6.716272e-01
6.985978e-01
7.243516e-01
7.475625e-01
7.664038e-01
7.787225e-01
7.825118e-01
7.767085e-01
7.621162e-01
7.419726e-01
0.000000e+00
5.545981e-02
1.132792e-01
1.736166e-01
2.361410e-01
3.001843e-01
3.649919e-01
4.298760e-01
4.942830e-01
5.577996e-01
6.201233e-01
6.810299e-01
7.403516e-01
7.979632e-01
8.537756e-01
9.077335e-01
9.598140e-01
1.010025e+00
1.058398e+00
1.104979e+00
1.149800e+00
1.192849e+00
1.234014e+00
1.273021e+00
1.309360e+00
1.342214e+00
1.370434e+00
1.392599e+00
1.407234e+00
1.413230e+00
1.410440e+00
1.400308e+00
1.386231e+00
0.000000e+00
8.364326e-02
1.711424e-01
2.627747e-01
3.578742e-01
4.550996e-01
5.532061e-01
6.511565e-01
7.481786e-01
8.437105e-01
9.373301e-01
1.028702e+00
1.117545e+00
1.203617e+00
1.286707e+00
1.366633e+00
1.443243e+00
1.516414e+00
1.586048e+00
1.652063e+00
1.714370e+00
1.772846e+00
1.827295e+00
1.877402e+00
1.922681e+00
1.962446e+00
1.995817e+00
2.021801e+00
2.039495e+00
2.048424e+00
2.049004e+00
2.043050e+00
2.034147e+00
0.000000e+00
1.123353e-01
2.305631e-01
3.553749e-01
4.849282e-01
6.167617e-01
7.490417e-01
8.805868e-01
1.010559e+00
1.138346e+00
1.263465e+00
1.385496e+00
1.504053e+00
1.618772e+00
1.729304e+00
1.835324e+00
1.936534e+00
2.032667e+00
2.123482e+00
2.208766e+00
2.288311e+00
2.361902e+00
2.429290e+00
2.490160e+00
2.544116e+00
2.590663e+00
2.629237e+00
2.659274e+00
2.680367e+00
2.692512e+00
2.696471e+00
2.694235e+00
2.689543e+00
0.000000e+00
1.424046e-01
2.940610e-01
4.551153e-01
6.221194e-01
7.901030e-01
9.572401e-01
1.122674e+00
1.285752e+00
1.445913e+00
1.602657e+00
1.755503e+00
1.903959e+00
2.047529e+00
2.185713e+00
2.318026e+00
2.444008e+00
2.563233e+00
2.675310e+00
2.779884e+00
2.876627e+00
2.965230e+00
3.045394e+00
3.116820e+00
3.179214e+00
3.232294e+00
3.275824e+00
3.309679e+00
3.333934e+00
3.349021e+00
3.355965e+00
3.356795e+00
3.355236e+00
0.000000e+00
1.791043e-01
3.703782e-01
5.725143e-01
7.783990e-01
9.829408e-01
1.184736e+00
1.383725e+00
1.579638e+00
1.771993e+00
1.960265e+00
2.143899e+00
2.322294e+00
2.494807e+00
2.660776e+00
2.819545e+00
2.970481e+00
3.112989e+00
3.246517e+00
3.370555e+00
3.484636e+00
3.588335e+00
3.681273e+00
3.763132e+00
3.833680e+00
3.892808e+00
3.940588e+00
3.977327e+00
4.003639e+00
4.020500e+00
4.029328e+00
4.032202e+00
4.032543e+00
0.000000e+00
2.297043e-01
4.779588e-01
7.199760e-01
9.624433e-01
1.201813e+00
1.437130e+00
1.668971e+00
1.897303e+00
2.121611e+00
2.341276e+00
2.555637e+00
2.763962e+00
2.965460e+00
3.159306e+00
3.344678e+00
3.520775e+00
3.686835e+00
3.842136e+00
3.986001e+00
4.117792e+00
4.236919e+00
4.342857e+00
4.435176e+00
4.513596e+00
4.578060e+00
4.628832e+00
4.666597e+00
4.692555e+00
4.708470e+00
4.716605e+00
4.719555e+00
4.720278e+00
0.000000e+00
3.508031e-01
6.347108e-01
9.060711e-01
1.179282e+00
1.450222e+00
1.717673e+00
1.981846e+00
2.242409e+00
2.498632e+00
2.749727e+00
2.994879e+00
3.233211e+00
3.463788e+00
3.685646e+00
3.897823e+00
4.099377e+00
4.289396e+00
4.466999e+00
4.631326e+00
4.781537e+00
4.916811e+00
5.036370e+00
5.139521e+00
5.225736e+00
5.294770e+00
5.346817e+00
5.382707e+00
5.404121e+00
5.413784e+00
5.415551e+00
5.414106e+00
5.413290e+00
0.000000e+00
-2.175801e-01
-3.895437e-01
-5.847851e-01
-8.048232e-01
-1.053246e+00
-1.332503e+00
-1.643712e+00
-1.986983e+00
-2.362084e+00
-2.768573e+00
-3.205803e+00
-3.672951e+00
-4.169047e+00
-4.693005e+00
-5.243647e+00
-5.819721e+00
-6.419935e+00
-7.042990e+00
-7.687618e+00
-8.352648e+00
-9.037074e+00
-9.740172e+00
-1.046166e+01
-1.120194e+01
-1.196248e+01
-1.274650e+01
-1.356009e+01
-1.441447e+01
-1.533113e+01
-1.635626e+01
-1.759887e+01
-1.930325e+01
0.000000e+00
-1.357384e-01
-3.150788e-01
-5.083636e-01
-7.283139e-01
-9.775082e-01
-1.257762e+00
-1.569968e+00
-1.914381e+00
-2.290831e+00
-2.698880e+00
-3.137884e+00
-3.607024e+00
-4.105325e+00
-4.631684e+00
-5.184891e+00
-5.763653e+00
-6.366628e+00
-6.992460e+00
-7.639822e+00
-8.307474e+00
-8.994337e+00
-9.699604e+00
-1.042290e+01
-1.116450e+01
-1.192577e+01
-1.270974e+01
-1.352237e+01
-1.437482e+01
-1.528886e+01
-1.630880e+01
-1.752578e+01
-1.911459e+01
0.000000e+00
-1.006845e-01
-2.564900e-01
-4.455004e-01
-6.634817e-01
-9.125296e-01
-1.193288e+00
-1.506255e+00
-1.851631e+00
-2.229253e+00
-2.638673e+00
-3.079240e+00
-3.550132e+00
-4.050371e+00
-4.578841e+00
-5.134314e+00
-5.715469e+00
-6.320936e+00
-6.949323e+00
-7.599271e+00
-8.269507e+00
-8.958925e+00
-9.666701e+00
-1.039245e+01
-1.113647e+01
-1.190017e+01
-1.268672e+01
-1.350226e+01
-1.435816e+01
-1.527468e+01
-1.628409e+01
-1.741849e+01
-1.866493e+01
0.000000e+00
-8.310607e-02
-2.203442e-01
-3.986358e-01
-6.123422e-01
-8.595516e-01
-1.139824e+00
-1.453017e+00
-1.799039e+00
-2.177595e+00
-2.588177e+00
-3.030101e+00
-3.502528e+00
-4.004471e+00
-4.534807e+00
-5.092298e+00
-5.675618e+00
-6.283384e+00
-6.914197e+00
-7.566691e+00
-8.239593e+00
-8.931807e+00
-9.642530e+00
-1.037141e+01
-1.111882e+01
-1.188619e+01
-1.267668e+01
-1.349602e+01
-1.435387e+01
-1.526417e+01
-1.623781e+01
-1.725999e+01
-1.820788e+01
0.000000e+00
-7.342158e-02
-1.980545e-01
-3.667225e-01
-5.745782e-01
-8.187324e-01
-1.097610e+00
-1.410451e+00
-1.756740e+00
-2.135956e+00
-2.547471e+00
-2.990539e+00
-3.464287e+00
-3.967712e+00
-4.499689e+00
-5.058981e+00
-5.644268e+00
-6.254174e+00
-6.887309e+00
-7.542318e+00
-8.217942e+00
-8.913102e+00
-9.627012e+00
-1.035933e+01
-1.111036e+01
-1.188136e+01
-1.267492e+01
-1.349528e+01
-1.434829e+01
-1.523888e+01
-1.616117e+01
-1.707633e+01
-1.790050e+01
0.000000e+00
-6.716070e-02
-1.838372e-01
-3.454315e-01
-5.481266e-01
-7.890076e-01
-1.066143e+00
-1.378286e+00
-1.724554e+00
-2.104184e+00
-2.516412e+00
-2.960411e+00
-3.435267e+00
-3.939961e+00
-4.473365e+00
-5.034252e+00
-5.621315e+00
-6.233196e+00
-6.868521e+00
-7.525946e+00
-8.204223e+00
-8.902265e+00
-9.619250e+00
-1.035473e+01
-1.110879e+01
-1.188215e+01
-1.267630e+01
-1.349319e+01
-1.433422e+01
-1.519677e+01
-1.606587e+01
-1.690602e+01
-1.766513e+01
0.000000e+00
-6.311712e-02
-1.748603e-01
-3.317808e-01
-5.307048e-01
-7.689670e-01
-1.044548e+00
-1.355965e+00
-1.702088e+00
-2.081969e+00
-2.494722e+00
-2.939452e+00
-3.415206e+00
-3.920952e+00
-4.455566e+00
-5.017833e+00
-5.606465e+00
-6.220118e+00
-6.857433e+00
-7.517070e+00
-8.197760e+00
-8.898369e+00
-9.617958e+00
-1.035586e+01
-1.111173e+01
-1.188553e+01
-1.267735e+01
-1.348679e+01
-1.431157e+01
-1.514458e+01
-1.596941e+01
-1.675840e+01
-1.747778e+01
0.000000e+00
-6.084433e-02
-1.698471e-01
-3.241084e-01
-5.207988e-01
-7.574317e-01
-1.031996e+00
-1.342912e+00
-1.688924e+00
-2.068975e+00
-2.482106e+00
-2.927377e+00
-3.403817e+00
-3.910389e+00
-4.445977e+00
-5.009382e+00
-5.599331e+00
-6.214494e+00
-6.853513e+00
-7.515031e+00
-8.197731e+00
-8.900374e+00
-9.621838e+00
-1.036113e+01
-1.111737e+01
-1.188965e+01
-1.267671e+01
-1.347628e+01
-1.428377e+01
-1.509041e+01
-1.588129e+01
-1.663549e+01
-1.732978e+01
0.000000e+00
-6.010201e-02
-1.682189e-01
-3.216198e-01
-5.175840e-01
-7.536879e-01
-1.027932e+00
-1.338715e+00
-1.684748e+00
-2.064945e+00
-2.478331e+00
-2.923958e+00
-3.400858e+00
-3.908006e+00
-4.444301e+00
-5.008558e+00
-5.599518e+00
-6.215855e+00
-6.856200e+00
-7.519157e+00
-8.203330e+00
-8.907337e+00
-9.629816e+00
-1.036940e+01
-1.112464e+01
-1.189383e+01
-1.267463e+01
-1.346350e+01
-1.425479e+01
-1.503969e+01
-1.580554e+01
-1.653642e+01
-1.721538e+01
0.000000e+00
-6.081371e-02
-1.698060e-01
-3.240780e-01
-5.208027e-01
-7.574976e-01
-1.032159e+00
-1.343217e+00
-1.689432e+00
-2.069763e+00
-2.483277e+00
-2.929060e+00
-3.406174e+00
-3.913616e+00
-4.450307e+00
-5.015079e+00
-5.606680e+00
-6.223782e+00
-6.864989e+00
-7.528854e+00
-8.213878e+00
-8.918515e+00
-9.641143e+00
-1.038002e+01
-1.113318e+01
-1.189825e+01
-1.267213e+01
-1.345060e+01
-1.422775e+01
-1.499547e+01
-1.574333e+01
-1.645907e+01
-1.712984e+01
0.000000e+00
-6.305670e-02
-1.747793e-01
-3.317201e-01
-5.307097e-01
-7.690908e-01
-1.044857e+00
-1.356548e+00
-1.703058e+00
-2.083477e+00
-2.496963e+00
-2.942674e+00
-3.419721e+00
-3.927137e+00
-4.463869e+00
-5.028762e+00
-5.620571e+00
-6.237956e+00
-6.879492e+00
-7.543667e+00
-8.228878e+00
-8.933407e+00
-9.655389e+00
-1.039274e+01
-1.114307e+01
-1.190350e+01
-1.267046e+01
-1.343945e+01
-1.420474e+01
-1.495921e+01
-1.569442e+01
-1.640096e+01
-1.706905e+01
0.000000e+00
-6.707255e-02
-1.837188e-01
-3.453411e-01
-5.481278e-01
-7.891748e-01
-1.066570e+00
-1.379094e+00
-1.725903e+00
-2.106285e+00
-2.519537e+00
-2.964908e+00
-3.441572e+00
-3.948604e+00
-4.484973e+00
-5.049543e+00
-5.641066e+00
-6.258192e+00
-6.899462e+00
-7.563306e+00
-8.248018e+00
-8.951734e+00
-9.672373e+00
-1.040758e+01
-1.115462e+01
-1.191029e+01
-1.267074e+01
-1.343143e+01
-1.418700e+01
-1.493137e+01
-1.565785e+01
-1.635949e+01
-1.702917e+01
0.000000e+00
-7.330995e-02
-1.979044e-01
-3.666058e-01
-5.745721e-01
-8.189268e-01
-1.098118e+00
-1.411419e+00
-1.758363e+00
-2.138487e+00
-2.551241e+00
-2.995969e+00
-3.471903e+00
-3.978157e+00
-4.513724e+00
-5.077477e+00
-5.668169e+00
-6.284439e+00
-6.924802e+00
-7.587637e+00
-8.271160e+00
-8.973386e+00
-9.692075e+00
-1.042466e+01
-1.116819e+01
-1.191922e+01
-1.267378e+01
-1.342740e+01
-1.417513e+01
-1.491179e+01
-1.563231e+01
-1.633195e+01
-1.700634e+01
0.000000e+00
-8.297907e-02
-2.201740e-01
-3.985014e-01
-6.123294e-01
-8.597602e-01
-1.140379e+00
-1.454082e+00
-1.800829e+00
-2.180391e+00
-2.592344e+00
-3.036102e+00
-3.510944e+00
-4.016010e+00
-4.550308e+00
-5.112718e+00
-5.701996e+00
-6.316774e+00
-6.955551e+00
-7.616673e+00
-8.298304e+00
-8.998381e+00
-9.714556e+00
-1.044414e+01
-1.118402e+01
-1.193064e+01
-1.268000e+01
-1.342769e+01
-1.416914e+01
-1.489991e+01
-1.561625e+01
-1.631551e+01
-1.699638e+01
0.000000e+00
-1.005579e-01
-2.563189e-01
-4.453643e-01
-6.634708e-01
-9.127498e-01
-1.193870e+00
-1.507372e+00
-1.853507e+00
-2.232180e+00
-2.643027e+00
-3.085501e+00
-3.558897e+00
-4.062367e+00
-4.594925e+00
-5.155458e+00
-5.742724e+00
-6.355358e+00
-6.991853e+00
-7.650543e+00
-8.329568e+00
-9.026826e+00
-9.739918e+00
-1.046609e+01
-1.120218e+01
-1.194458e+01
-1.268931e+01
-1.343205e+01
-1.416849e+01
-1.489472e+01
-1.560792e+01
-1.630724e+01
-1.699463e+01
0.000000e+00
-1.356306e-01
-3.149260e-01
-5.082461e-01
-7.283232e-01
-9.777526e-01
-1.258377e+00
-1.571126e+00
-1.916309e+00
-2.293820e+00
-2.703304e+00
-3.144215e+00
-3.615845e+00
-4.117340e+00
-4.647716e+00
-5.205860e+00
-5.790541e+00
-6.400400e+00
-7.033935e+00
-7.689484e+00
-8.365183e+00
-9.058925e+00
-9.768304e+00
-1.049056e+01
-1.122255e+01
-1.196069e+01
-1.270105e+01
-1.343947e+01
-1.417181e+01
-1.489448e+01
-1.560521e+01
-1.630425e+01
-1.699610e+01
0.000000e+00
-2.174954e-01
-3.894245e-01
-5.847103e-01
-8.048794e-01
-1.053542e+00
-1.333179e+00
-1.644942e+00
-1.988990e+00
-2.365154e+00
-2.773070e+00
-3.212180e+00
-3.681760e+00
-4.180943e+00
-4.708741e+00
-5.264046e+00
-5.845634e+00
-6.452155e+00
-7.082118e+00
-7.733867e+00
-8.405544e+00
-9.095049e+00
-9.799992e+00