TITLE = "Solution"
VARIABLES = x, y, u, v, psiu, psiv, t, stress
ZONE T="structure" N=561 E=512 F=FEBLOCK ET=QUADRILATERAL VARLOCATION=([7,8]=cellcentered)
0.000000e+00
6.250000e+00
1.250000e+01
1.875000e+01
2.500000e+01
3.125000e+01
3.750000e+01
4.375000e+01
5.000000e+01
5.625000e+01
6.250000e+01
6.875000e+01
7.500000e+01
8.125000e+01
8.750000e+01
9.375000e+01
1.000000e+02
1.062500e+02
1.125000e+02
1.187500e+02
1.250000e+02
1.312500e+02
1.375000e+02
1.437500e+02
1.500000e+02
1.562500e+02
1.625000e+02
1.687500e+02
1.750000e+02
1.812500e+02
1.875000e+02
1.937500e+02
2.000000e+02
0.000000e+00
6.250000e+00
1.250000e+01
1.875000e+01
2.500000e+01
3.125000e+01
3.750000e+01
4.375000e+01
5.000000e+01
5.625000e+01
6.250000e+01
6.875000e+01
7.500000e+01
8.125000e+01
8.750000e+01
9.375000e+01
1.000000e+02
1.062500e+02
1.125000e+02
1.187500e+02
1.250000e+02
1.312500e+02
1.375000e+02
1.437500e+02
1.500000e+02
1.562500e+02
1.625000e+02
1.687500e+02
1.750000e+02
1.812500e+02
1.875000e+02
1.937500e+02
2.000000e+02
0.000000e+00
6.250000e+00
1.250000e+01
1.875000e+01
2.500000e+01
3.125000e+01
3.750000e+01
4.375000e+01
5.000000e+01
5.625000e+01
6.250000e+01
6.875000e+01
7.500000e+01
8.125000e+01
8.750000e+01
9.375000e+01
1.000000e+02
1.062500e+02
1.125000e+02
1.187500e+02
1.250000e+02
1.312500e+02
1.375000e+02
1.437500e+02
1.500000e+02
1.562500e+02
1.625000e+02
1.687500e+02
1.750000e+02
1.812500e+02
1.875000e+02
1.937500e+02
2.000000e+02
0.000000e+00
6.250000e+00
1.250000e+01
1.875000e+01
2.500000e+01
3.125000e+01
3.750000e+01
4.375000e+01
5.000000e+01
5.625000e+01
6.250000e+01
6.875000e+01
7.500000e+01
8.125000e+01
8.750000e+01
9.375000e+01
1.000000e+02
1.062500e+02
1.125000e+02
1.187500e+02
1.250000e+02
1.312500e+02
1.375000e+02
1.437500e+02
1.500000e+02
1.562500e+02
1.625000e+02
1.687500e+02
1.750000e+02
1.812500e+02
1.875000e+02
1.937500e+02
2.000000e+02
0.000000e+00
6.250000e+00
1.250000e+01
1.875000e+01
2.500000e+01
3.125000e+01
3.750000e+01
4.375000e+01
5.000000e+01
5.625000e+01
6.250000e+01
6.875000e+01
7.500000e+01
8.125000e+01
8.750000e+01
9.375000e+01
1.000000e+02
1.062500e+02
1.125000e+02
1.187500e+02
1.250000e+02
1.312500e+02
1.375000e+02
1.437500e+02
1.500000e+02
1.562500e+02
1.625000e+02
1.687500e+02
1.750000e+02
1.812500e+02
1.875000e+02
1.937500e+02
2.000000e+02
0.000000e+00
6.250000e+00
1.250000e+01
1.875000e+01
2.500000e+01
3.125000e+01
3.750000e+01
4.375000e+01
5.000000e+01
5.625000e+01
6.250000e+01
6.875000e+01
7.500000e+01
8.125000e+01
8.750000e+01
9.375000e+01
1.000000e+02
1.062500e+02
1.125000e+02
1.187500e+02
1.250000e+02
1.312500e+02
1.375000e+02
1.437500e+02
1.500000e+02
1.562500e+02
1.625000e+02
1.687500e+02
1.750000e+02
1.812500e+02
1.875000e+02
1.937500e+02
2.000000e+02
0.000000e+00
6.250000e+00
1.250000e+01
1.875000e+01
2.500000e+01
3.125000e+01
3.750000e+01
4.375000e+01
5.000000e+01
5.625000e+01
6.250000e+01
6.875000e+01
7.500000e+01
8.125000e+01
8.750000e+01
9.375000e+01
1.000000e+02
1.062500e+02
1.125000e+02
1.187500e+02
1.250000e+02
1.312500e+02
1.375000e+02
1.437500e+02
1.500000e+02
1.562500e+02
1.625000e+02
1.687500e+02
1.750000e+02
1.812500e+02
1.875000e+02
1.937500e+02
2.000000e+02
0.000000e+00
6.250000e+00
1.250000e+01
1.875000e+01
2.500000e+01
3.125000e+01
3.750000e+01
4.375000e+01
5.000000e+01
5.625000e+01
6.250000e+01
6.875000e+01
7.500000e+01
8.125000e+01
8.750000e+01
9.375000e+01
1.000000e+02
1.062500e+02
1.125000e+02
1.187500e+02
1.250000e+02
1.312500e+02
1.375000e+02
1.437500e+02
1.500000e+02
1.562500e+02
1.625000e+02
1.687500e+02
1.750000e+02
1.812500e+02
1.875000e+02
1.937500e+02
2.000000e+02
0.000000e+00
6.250000e+00
1.250000e+01
1.875000e+01
2.500000e+01
3.125000e+01
3.750000e+01
4.375000e+01
5.000000e+01
5.625000e+01
6.250000e+01
6.875000e+01
7.500000e+01
8.125000e+01
8.750000e+01
9.375000e+01
1.000000e+02
1.062500e+02
1.125000e+02
1.187500e+02
1.250000e+02
1.312500e+02
1.375000e+02
1.437500e+02
1.500000e+02
1.562500e+02
1.625000e+02
1.687500e+02
1.750000e+02
1.812500e+02
1.875000e+02
1.937500e+02
2.000000e+02
0.000000e+00
6.250000e+00
1.250000e+01
1.875000e+01
2.500000e+01
3.125000e+01
3.750000e+01
4.375000e+01
5.000000e+01
5.625000e+01
6.250000e+01
6.875000e+01
7.500000e+01
8.125000e+01
8.750000e+01
9.375000e+01
1.000000e+02
1.062500e+02
1.125000e+02
1.187500e+02
1.250000e+02
1.312500e+02
1.375000e+02
1.437500e+02
1.500000e+02
1.562500e+02
1.625000e+02
1.687500e+02
1.750000e+02
1.812500e+02
1.875000e+02
1.937500e+02
2.000000e+02
0.000000e+00
6.250000e+00
1.250000e+01
1.875000e+01
2.500000e+01
3.125000e+01
3.750000e+01
4.375000e+01
5.000000e+01
5.625000e+01
6.250000e+01
6.875000e+01
7.500000e+01
8.125000e+01
8.750000e+01
9.375000e+01
1.000000e+02
1.062500e+02
1.125000e+02
1.187500e+02
1.250000e+02
1.312500e+02
1.375000e+02
1.437500e+02
1.500000e+02
1.562500e+02
1.625000e+02
1.687500e+02
1.750000e+02
1.812500e+02
1.875000e+02
1.937500e+02
2.000000e+02
0.000000e+00
6.250000e+00
1.250000e+01
1.875000e+01
2.500000e+01
3.125000e+01
3.750000e+01
4.375000e+01
5.000000e+01
5.625000e+01
6.250000e+01
6.875000e+01
7.500000e+01
8.125000e+01
8.750000e+01
9.375000e+01
1.000000e+02
1.062500e+02
1.125000e+02
1.187500e+02
1.250000e+02
1.312500e+02
1.375000e+02
1.437500e+02
1.500000e+02
1.562500e+02
1.625000e+02
1.687500e+02
1.750000e+02
1.812500e+02
1.875000e+02
1.937500e+02
2.000000e+02
0.000000e+00
6.250000e+00
1.250000e+01
1.875000e+01
2.500000e+01
3.125000e+01
3.750000e+01
4.375000e+01
5.000000e+01
5.625000e+01
6.250000e+01
6.875000e+01
7.500000e+01
8.125000e+01
8.750000e+01
9.375000e+01
1.000000e+02
1.062500e+02
1.125000e+02
1.187500e+02
1.250000e+02
1.312500e+02
1.375000e+02
1.437500e+02
1.500000e+02
1.562500e+02
1.625000e+02
1.687500e+02
1.750000e+02
1.812500e+02
1.875000e+02
1.937500e+02
2.000000e+02
0.000000e+00
6.250000e+00
1.250000e+01
1.875000e+01
2.500000e+01
3.125000e+01
3.750000e+01
4.375000e+01
5.000000e+01
5.625000e+01
6.250000e+01
6.875000e+01
7.500000e+01
8.125000e+01
8.750000e+01
9.375000e+01
1.000000e+02
1.062500e+02
1.125000e+02
1.187500e+02
1.250000e+02
1.312500e+02
1.375000e+02
1.437500e+02
1.500000e+02
1.562500e+02
1.625000e+02
1.687500e+02
1.750000e+02
1.812500e+02
1.875000e+02
1.937500e+02
2.000000e+02
0.000000e+00
6.250000e+00
1.250000e+01
1.875000e+01
2.500000e+01
3.125000e+01
3.750000e+01
4.375000e+01
5.000000e+01
5.625000e+01
6.250000e+01
6.875000e+01
7.500000e+01
8.125000e+01
8.750000e+01
9.375000e+01
1.000000e+02
1.062500e+02
1.125000e+02
1.187500e+02
1.250000e+02
1.312500e+02
1.375000e+02
1.437500e+02
1.500000e+02
1.562500e+02
1.625000e+02
1.687500e+02
1.750000e+02
1.812500e+02
1.875000e+02
1.937500e+02
2.000000e+02
0.000000e+00
6.250000e+00
1.250000e+01
1.875000e+01
2.500000e+01
3.125000e+01
3.750000e+01
4.375000e+01
5.000000e+01
5.625000e+01
6.250000e+01
6.875000e+01
7.500000e+01
8.125000e+01
8.750000e+01
9.375000e+01
1.000000e+02
1.062500e+02
1.125000e+02
1.187500e+02
1.250000e+02
1.312500e+02
1.375000e+02
1.437500e+02
1.500000e+02
1.562500e+02
1.625000e+02
1.687500e+02
1.750000e+02
1.812500e+02
1.875000e+02
1.937500e+02
2.000000e+02
0.000000e+00
6.250000e+00
1.250000e+01
1.875000e+01
2.500000e+01
3.125000e+01
3.750000e+01
4.375000e+01
5.000000e+01
5.625000e+01
6.250000e+01
6.875000e+01
7.500000e+01
8.125000e+01
8.750000e+01
9.375000e+01
1.000000e+02
1.062500e+02
1.125000e+02
1.187500e+02
1.250000e+02
1.312500e+02
1.375000e+02
1.437500e+02
1.500000e+02
1.562500e+02
1.625000e+02
1.687500e+02
1.750000e+02
1.812500e+02
1.875000e+02
1.937500e+02
2.000000e+02
0.000000e+00
0.000000e+00
0.000000e+00
0.000000e+00
0.000000e+00
0.000000e+00
0.000000e+00
0.000000e+00
0.000000e+00
0.000000e+00
0.000000e+00
0.000000e+00
0.000000e+00
0.000000e+00
0.000000e+00
0.000000e+00
0.000000e+00
0.000000e+00
0.000000e+00
0.000000e+00
0.000000e+00
0.000000e+00
0.000000e+00
0.000000e+00
0.000000e+00
0.000000e+00
0.000000e+00
0.000000e+00
0.000000e+00
0.000000e+00
0.000000e+00
0.000000e+00
0.000000e+00
6.250000e+00
6.250000e+00
6.250000e+00
6.250000e+00
6.250000e+00
6.250000e+00
6.250000e+00
6.250000e+00
6.250000e+00
6.250000e+00
6.250000e+00
6.250000e+00
6.250000e+00
6.250000e+00
6.250000e+00
6.250000e+00
6.250000e+00
6.250000e+00
6.250000e+00
6.250000e+00
6.250000e+00
6.250000e+00
6.250000e+00
6.250000e+00
6.250000e+00
6.250000e+00
6.250000e+00
6.250000e+00
6.250000e+00
6.250000e+00
6.250000e+00
6.250000e+00
6.250000e+00
1.250000e+01
1.250000e+01
1.250000e+01
1.250000e+01
1.250000e+01
1.250000e+01
1.250000e+01
1.250000e+01
1.250000e+01
1.250000e+01
1.250000e+01
1.250000e+01
1.250000e+01
1.250000e+01
1.250000e+01
1.250000e+01
1.250000e+01
1.250000e+01
1.250000e+01
1.250000e+01
1.250000e+01
1.250000e+01
1.250000e+01
1.250000e+01
1.250000e+01
1.250000e+01
1.250000e+01
1.250000e+01
1.250000e+01
1.250000e+01
1.250000e+01
1.250000e+01
1.250000e+01
1.875000e+01
1.875000e+01
1.875000e+01
1.875000e+01
1.875000e+01
1.875000e+01
1.875000e+01
1.875000e+01
1.875000e+01
1.875000e+01
1.875000e+01
1.875000e+01
1.875000e+01
1.875000e+01
1.875000e+01
1.875000e+01
1.875000e+01
1.875000e+01
1.875000e+01
1.875000e+01
1.875000e+01
1.875000e+01
1.875000e+01
1.875000e+01
1.875000e+01
1.875000e+01
1.875000e+01
1.875000e+01
1.875000e+01
1.875000e+01
1.875000e+01
1.875000e+01
1.875000e+01
2.500000e+01
2.500000e+01
2.500000e+01
2.500000e+01
2.500000e+01
2.500000e+01
2.500000e+01
2.500000e+01
2.500000e+01
2.500000e+01
2.500000e+01
2.500000e+01
2.500000e+01
2.500000e+01
2.500000e+01
2.500000e+01
2.500000e+01
2.500000e+01
2.500000e+01
2.500000e+01
2.500000e+01
2.500000e+01
2.500000e+01
2.500000e+01
2.500000e+01
2.500000e+01
2.500000e+01
2.500000e+01
2.500000e+01
2.500000e+01
2.500000e+01
2.500000e+01
2.500000e+01
3.125000e+01
3.125000e+01
3.125000e+01
3.125000e+01
3.125000e+01
3.125000e+01
3.125000e+01
3.125000e+01
3.125000e+01
3.125000e+01
3.125000e+01
3.125000e+01
3.125000e+01
3.125000e+01
3.125000e+01
3.125000e+01
3.125000e+01
3.125000e+01
3.125000e+01
3.125000e+01
3.125000e+01
3.125000e+01
3.125000e+01
3.125000e+01
3.125000e+01
3.125000e+01
3.125000e+01
3.125000e+01
3.125000e+01
3.125000e+01
3.125000e+01
3.125000e+01
3.125000e+01
3.750000e+01
3.750000e+01
3.750000e+01
3.750000e+01
3.750000e+01
3.750000e+01
3.750000e+01
3.750000e+01
3.750000e+01
3.750000e+01
3.750000e+01
3.750000e+01
3.750000e+01
3.750000e+01
3.750000e+01
3.750000e+01
3.750000e+01
3.750000e+01
3.750000e+01
3.750000e+01
3.750000e+01
3.750000e+01
3.750000e+01
3.750000e+01
3.750000e+01
3.750000e+01
3.750000e+01
3.750000e+01
3.750000e+01
3.750000e+01
3.750000e+01
3.750000e+01
3.750000e+01
4.375000e+01
4.375000e+01
4.375000e+01
4.375000e+01
4.375000e+01
4.375000e+01
4.375000e+01
4.375000e+01
4.375000e+01
4.375000e+01
4.375000e+01
4.375000e+01
4.375000e+01
4.375000e+01
4.375000e+01
4.375000e+01
4.375000e+01
4.375000e+01
4.375000e+01
4.375000e+01
4.375000e+01
4.375000e+01
4.375000e+01
4.375000e+01
4.375000e+01
4.375000e+01
4.375000e+01
4.375000e+01
4.375000e+01
4.375000e+01
4.375000e+01
4.375000e+01
4.375000e+01
5.000000e+01
5.000000e+01
5.000000e+01
5.000000e+01
5.000000e+01
5.000000e+01
5.000000e+01
5.000000e+01
5.000000e+01
5.000000e+01
5.000000e+01
5.000000e+01
5.000000e+01
5.000000e+01
5.000000e+01
5.000000e+01
5.000000e+01
5.000000e+01
5.000000e+01
5.000000e+01
5.000000e+01
5.000000e+01
5.000000e+01
5.000000e+01
5.000000e+01
5.000000e+01
5.000000e+01
5.000000e+01
5.000000e+01
5.000000e+01
5.000000e+01
5.000000e+01
5.000000e+01
5.625000e+01
5.625000e+01
5.625000e+01
5.625000e+01
5.625000e+01
5.625000e+01
5.625000e+01
5.625000e+01
5.625000e+01
5.625000e+01
5.625000e+01
5.625000e+01
5.625000e+01
5.625000e+01
5.625000e+01
5.625000e+01
5.625000e+01
5.625000e+01
5.625000e+01
5.625000e+01
5.625000e+01
5.625000e+01
5.625000e+01
5.625000e+01
5.625000e+01
5.625000e+01
5.625000e+01
5.625000e+01
5.625000e+01
5.625000e+01
5.625000e+01
5.625000e+01
5.625000e+01
6.250000e+01
6.250000e+01
6.250000e+01
6.250000e+01
6.250000e+01
6.250000e+01
6.250000e+01
6.250000e+01
6.250000e+01
6.250000e+01
6.250000e+01
6.250000e+01
6.250000e+01
6.250000e+01
6.250000e+01
6.250000e+01
6.250000e+01
6.250000e+01
6.250000e+01
6.250000e+01
6.250000e+01
6.250000e+01
6.250000e+01
6.250000e+01
6.250000e+01
6.250000e+01
6.250000e+01
6.250000e+01
6.250000e+01
6.250000e+01
6.250000e+01
6.250000e+01
6.250000e+01
6.875000e+01
6.875000e+01
6.875000e+01
6.875000e+01
6.875000e+01
6.875000e+01
6.875000e+01
6.875000e+01
6.875000e+01
6.875000e+01
6.875000e+01
6.875000e+01
6.875000e+01
6.875000e+01
6.875000e+01
6.875000e+01
6.875000e+01
6.875000e+01
6.875000e+01
6.875000e+01
6.875000e+01
6.875000e+01
6.875000e+01
6.875000e+01
6.875000e+01
6.875000e+01
6.875000e+01
6.875000e+01
6.875000e+01
6.875000e+01
6.875000e+01
6.875000e+01
6.875000e+01
7.500000e+01
7.500000e+01
7.500000e+01
7.500000e+01
7.500000e+01
7.500000e+01
7.500000e+01
7.500000e+01
7.500000e+01
7.500000e+01
7.500000e+01
7.500000e+01
7.500000e+01
7.500000e+01
7.500000e+01
7.500000e+01
7.500000e+01
7.500000e+01
7.500000e+01
7.500000e+01
7.500000e+01
7.500000e+01
7.500000e+01
7.500000e+01
7.500000e+01
7.500000e+01
7.500000e+01
7.500000e+01
7.500000e+01
7.500000e+01
7.500000e+01
7.500000e+01
7.500000e+01
8.125000e+01
8.125000e+01
8.125000e+01
8.125000e+01
8.125000e+01
8.125000e+01
8.125000e+01
8.125000e+01
8.125000e+01
8.125000e+01
8.125000e+01
8.125000e+01
8.125000e+01
8.125000e+01
8.125000e+01
8.125000e+01
8.125000e+01
8.125000e+01
8.125000e+01
8.125000e+01
8.125000e+01
8.125000e+01
8.125000e+01
8.125000e+01
8.125000e+01
8.125000e+01
8.125000e+01
8.125000e+01
8.125000e+01
8.125000e+01
8.125000e+01
8.125000e+01
8.125000e+01
8.750000e+01
8.750000e+01
8.750000e+01
8.750000e+01
8.750000e+01
8.750000e+01
8.750000e+01
8.750000e+01
8.750000e+01
8.750000e+01
8.750000e+01
8.750000e+01
8.750000e+01
8.750000e+01
8.750000e+01
8.750000e+01
8.750000e+01
8.750000e+01
8.750000e+01
8.750000e+01
8.750000e+01
8.750000e+01
8.750000e+01
8.750000e+01
8.750000e+01
8.750000e+01
8.750000e+01
8.750000e+01
8.750000e+01
8.750000e+01
8.750000e+01
8.750000e+01
8.750000e+01
9.375000e+01
9.375000e+01
9.375000e+01
9.375000e+01
9.375000e+01
9.375000e+01
9.375000e+01
9.375000e+01
9.375000e+01
9.375000e+01
9.375000e+01
9.375000e+01
9.375000e+01
9.375000e+01
9.375000e+01
9.375000e+01
9.375000e+01
9.375000e+01
9.375000e+01
9.375000e+01
9.375000e+01
9.375000e+01
9.375000e+01
9.375000e+01
9.375000e+01
9.375000e+01
9.375000e+01
9.375000e+01
9.375000e+01
9.375000e+01
9.375000e+01
9.375000e+01
9.375000e+01
1.000000e+02
1.000000e+02
1.000000e+02
1.000000e+02
1.000000e+02
1.000000e+02
1.000000e+02
1.000000e+02
1.000000e+02
1.000000e+02
1.000000e+02
1.000000e+02
1.000000e+02
1.000000e+02
1.000000e+02
1.000000e+02
1.000000e+02
1.000000e+02
1.000000e+02
1.000000e+02
1.000000e+02
1.000000e+02
1.000000e+02
1.000000e+02
1.000000e+02
1.000000e+02
1.000000e+02
1.000000e+02
1.000000e+02
1.000000e+02
1.000000e+02
1.000000e+02
1.000000e+02
0.000000e+00
-3.984263e-02
-7.228915e-02
-1.023463e-01
-1.311926e-01
-1.590482e-01
-1.859688e-01
-2.119522e-01
-2.369819e-01
-2.610398e-01
-2.841107e-01
-3.061843e-01
-3.272552e-01
-3.473229e-01
-3.663922e-01
-3.844731e-01
-4.015817e-01
-4.177417e-01
-4.329854e-01
-4.473569e-01
-4.609144e-01
-4.737352e-01
-4.859216e-01
-4.976090e-01
-5.089789e-01
-5.202781e-01
-5.318492e-01
-5.441808e-01
-5.579898e-01
-5.743310e-01
-5.945729e-01
-6.186958e-01
-6.334176e-01
0.000000e+00
-2.671341e-02
-5.558012e-02
-8.279762e-02
-1.086668e-01
-1.334340e-01
-1.572300e-01
-1.801122e-01
-2.021033e-01
-2.232108e-01
-2.434360e-01
-2.627790e-01
-2.812406e-01
-2.988240e-01
-3.155348e-01
-3.313825e-01
-3.463805e-01
-3.605472e-01
-3.739073e-01
-3.864927e-01
-3.983440e-01
-4.095125e-01
-4.200618e-01
-4.300697e-01
-4.396293e-01
-4.488475e-01
-4.578373e-01
-4.666918e-01
-4.754103e-01
-4.837090e-01
-4.906242e-01
-4.946672e-01
-5.002956e-01
0.000000e+00
-2.118914e-02
-4.362295e-02
-6.646413e-02
-8.865868e-02
-1.100353e-01
-1.305804e-01
-1.503133e-01
-1.692517e-01
-1.874072e-01
-2.047878e-01
-2.213988e-01
-2.372448e-01
-2.523305e-01
-2.666615e-01
-2.802447e-01
-2.930889e-01
-3.052053e-01
-3.166075e-01
-3.273116e-01
-3.373365e-01
-3.467024e-01
-3.554292e-01
-3.635326e-01
-3.710155e-01
-3.778541e-01
-3.839701e-01
-3.891835e-01
-3.931418e-01
-3.952732e-01
-3.950863e-01
-3.938894e-01
-4.004619e-01
0.000000e+00
-1.681171e-02
-3.455189e-02
-5.277771e-02
-7.096082e-02
-8.870349e-02
-1.058538e-01
-1.223572e-01
-1.381990e-01
-1.533785e-01
-1.678996e-01
-1.817672e-01
-1.949860e-01
-2.075602e-01
-2.194933e-01
-2.307889e-01
-2.414500e-01
-2.514793e-01
-2.608789e-01
-2.696493e-01
-2.777884e-01
-2.852885e-01
-2.921332e-01
-2.982905e-01
-3.037036e-01
-3.082770e-01
-3.118592e-01
-3.142314e-01
-3.151372e-01
-3.144648e-01
-3.128317e-01
-3.127342e-01
-3.189962e-01
0.000000e+00
-1.304823e-02
-2.671833e-02
-4.082511e-02
-5.504649e-02
-6.909345e-02
-8.277216e-02
-9.598451e-02
-1.086859e-01
-1.208591e-01
-1.324997e-01
-1.436082e-01
-1.541868e-01
-1.642373e-01
-1.737603e-01
-1.827549e-01
-1.912184e-01
-1.991456e-01
-2.065284e-01
-2.133544e-01
-2.196052e-01
-2.252541e-01
-2.302626e-01
-2.345755e-01
-2.381166e-01
-2.407858e-01
-2.424655e-01
-2.430547e-01
-2.425713e-01
-2.413885e-01
-2.406212e-01
-2.423932e-01
-2.477349e-01
0.000000e+00
-9.589690e-03
-1.959024e-02
-2.991208e-02
-4.037685e-02
-5.078921e-02
-6.099409e-02
-7.089068e-02
-8.042366e-02
-8.956611e-02
-9.830669e-02
-1.066414e-01
-1.145688e-01
-1.220875e-01
-1.291946e-01
-1.358852e-01
-1.421511e-01
-1.479811e-01
-1.533593e-01
-1.582647e-01
-1.626696e-01
-1.665383e-01
-1.698257e-01
-1.724766e-01
-1.744280e-01
-1.756188e-01
-1.760138e-01
-1.756593e-01
-1.747855e-01
-1.739542e-01
-1.741566e-01
-1.764155e-01
-1.808354e-01
0.000000e+00
-6.311169e-03
-1.287197e-02
-1.964090e-02
-2.652144e-02
-3.339776e-02
-4.016616e-02
-4.675106e-02
-5.310515e-02
-5.920233e-02
-6.502941e-02
-7.057975e-02
-7.584911e-02
-8.083311e-02
-8.552572e-02
-8.991835e-02
-9.399918e-02
-9.775250e-02
-1.011582e-01
-1.041911e-01
-1.068209e-01
-1.090118e-01
-1.107240e-01
-1.119172e-01
-1.125583e-01
-1.126379e-01
-1.121995e-01
-1.113884e-01
-1.105131e-01
-1.100888e-01
-1.107508e-01
-1.129501e-01
-1.165180e-01
0.000000e+00
-3.134756e-03
-6.388023e-03
-9.743082e-03
-1.315756e-02
-1.657751e-02
-1.995172e-02
-2.324010e-02
-2.641557e-02
-2.946158e-02
-3.236834e-02
-3.512936e-02
-3.773899e-02
-4.019075e-02
-4.247630e-02
-4.458466e-02
-4.650167e-02
-4.820966e-02
-4.968714e-02
-5.090895e-02
-5.184685e-02
-5.247115e-02
-5.275395e-02
-5.267529e-02
-5.223362e-02
-5.146265e-02
-5.045567e-02
-4.939465e-02
-4.857099e-02
-4.836466e-02
-4.914130e-02
-5.105990e-02
-5.389089e-02
0.000000e+00
-5.057614e-06
-1.096635e-05
-1.739887e-05
-2.401683e-05
-3.036402e-05
-3.575289e-05
-3.913864e-05
-3.897201e-05
-3.302215e-05
-1.816268e-05
9.882628e-06
5.683429e-05
1.301852e-04
2.395465e-04
3.969815e-04
6.172755e-04
9.180590e-04
1.319650e-03
1.844415e-03
2.515353e-03
3.353453e-03
4.373253e-03
5.575859e-03
6.938744e-03
8.402206e-03
9.854200e-03
1.111922e-02
1.196368e-02
1.213493e-02
1.144539e-02
9.883812e-03
7.696732e-03
0.000000e+00
3.125230e-03
6.367326e-03
9.710178e-03
1.311203e-02
1.651979e-02
1.988350e-02
2.316503e-02
2.634018e-02
2.939659e-02
3.233030e-02
3.514287e-02
3.783940e-02
4.042752e-02
4.291703e-02
4.531974e-02
4.764953e-02
4.992222e-02
5.215514e-02
5.436614e-02
5.657174e-02
5.878407e-02
6.100630e-02
6.322609e-02
6.540735e-02
6.748125e-02
6.933923e-02
7.083361e-02
7.179379e-02
7.206563e-02
7.157331e-02
7.038705e-02
6.876381e-02
0.000000e+00
6.303387e-03
1.285495e-02
1.961364e-02
2.648343e-02
3.334912e-02
4.010800e-02
4.668604e-02
5.303821e-02
5.914178e-02
6.498827e-02
7.057757e-02
7.591419e-02
8.100533e-02
8.585991e-02
9.048828e-02
9.490202e-02
9.911373e-02
1.031365e-01
1.069827e-01
1.106624e-01
1.141802e-01
1.175314e-01
1.206966e-01
1.236360e-01
1.262845e-01
1.285499e-01
1.303192e-01
1.314773e-01
1.319403e-01
1.317022e-01
1.308814e-01
1.297485e-01
0.000000e+00
9.584726e-03
1.957918e-02
2.989406e-02
4.035128e-02
5.075583e-02
6.095325e-02
7.084367e-02
8.037320e-02
8.951703e-02
9.826682e-02
1.066227e-01
1.145891e-01
1.221721e-01
1.293788e-01
1.362170e-01
1.426946e-01
1.488200e-01
1.546008e-01
1.600439e-01
1.651530e-01
1.699269e-01
1.743565e-01
1.784207e-01
1.820837e-01
1.852923e-01
1.879773e-01
1.900611e-01
1.914743e-01
1.921824e-01
1.922222e-01
1.917407e-01
1.910247e-01
0.000000e+00
1.304700e-02
2.671524e-02
4.081959e-02
5.503796e-02
6.908142e-02
8.275633e-02
9.596484e-02
1.086628e-01
1.208336e-01
1.324737e-01
1.435851e-01
1.541719e-01
1.642385e-01
1.737891e-01
1.828276e-01
1.913573e-01
1.993812e-01
2.069011e-01
2.139174e-01
2.204280e-01
2.264269e-01
2.319025e-01
2.368360e-01
2.411995e-01
2.449566e-01
2.480641e-01
2.504792e-01
2.521718e-01
2.531442e-01
2.534596e-01
2.532788e-01
2.529017e-01
0.000000e+00
1.681483e-02
3.455824e-02
5.278716e-02
7.097309e-02
8.871824e-02
1.058705e-01
1.223750e-01
1.382166e-01
1.533937e-01
1.679092e-01
1.817663e-01
1.949677e-01
2.075148e-01
2.194078e-01
2.306459e-01
2.412268e-01
2.511472e-01
2.604020e-01
2.689848e-01
2.768869e-01
2.840973e-01
2.906023e-01
2.963854e-01
3.014282e-01
3.057119e-01
3.092204e-01
3.119457e-01
3.138961e-01
3.151083e-01
3.156658e-01
3.157323e-01
3.156072e-01
0.000000e+00
2.119677e-02
4.363922e-02
6.648961e-02
8.869386e-02
1.100806e-01
1.306359e-01
1.503784e-01
1.693244e-01
1.874840e-01
2.048619e-01
2.214597e-01
2.372761e-01
2.523082e-01
2.665513e-01
2.799989e-01
2.926428e-01
3.044726e-01
3.154758e-01
3.256377e-01
3.349417e-01
3.433698e-01
3.509034e-01
3.575259e-01
3.632246e-01
3.679951e-01
3.718462e-01
3.748049e-01
3.769225e-01
3.782787e-01
3.789886e-01
3.792198e-01
3.792474e-01
0.000000e+00
2.672485e-02
5.560513e-02
8.283784e-02
1.087242e-01
1.335105e-01
1.573274e-01
1.802313e-01
2.022437e-01
2.233697e-01
2.436068e-01
2.629495e-01
2.813906e-01
2.989215e-01
3.155323e-01
3.312112e-01
3.459438e-01
3.597130e-01
3.724979e-01
3.842744e-01
3.950155e-01
4.046921e-01
4.132757e-01
4.207417e-01
4.270746e-01
4.322747e-01
4.363666e-01
4.394080e-01
4.414972e-01
4.427774e-01
4.434314e-01
4.436685e-01
4.437266e-01
0.000000e+00
3.985516e-02
7.231839e-02
1.023964e-01
1.312676e-01
1.591521e-01
1.861060e-01
2.121266e-01
2.371967e-01
2.612963e-01
2.844067e-01
3.065120e-01
3.275979e-01
3.476510e-01
3.666572e-01
3.846008e-01
4.014625e-01
4.172189e-01
4.318413e-01
4.452949e-01
4.575394e-01
4.685295e-01
4.782182e-01
4.865609e-01
4.935234e-01
4.990915e-01
5.032850e-01
5.061739e-01
5.078959e-01
5.086717e-01
5.088127e-01
5.086959e-01
5.086302e-01
0.000000e+00
-2.462198e-02
-4.297067e-02
-6.299351e-02
-8.529013e-02
-1.104764e-01
-1.387273e-01
-1.700920e-01
-2.045393e-01
-2.419952e-01
-2.823605e-01
-3.255211e-01
-3.713536e-01
-4.197300e-01
-4.705194e-01
-5.235900e-01
-5.788108e-01
-6.360532e-01
-6.951929e-01
-7.561127e-01
-8.187066e-01
-8.828855e-01
-9.485855e-01
-1.015781e+00
-1.084507e+00
-1.154888e+00
-1.227207e+00
-1.302007e+00
-1.380335e+00
-1.464256e+00
-1.558232e+00
-1.672790e+00
-1.831054e+00
0.000000e+00
-1.530162e-02
-3.450787e-02
-5.466577e-02
-7.727317e-02
-1.027331e-01
-1.312585e-01
-1.628977e-01
-1.976222e-01
-2.353581e-01
-2.760056e-01
-3.194494e-01
-3.655656e-01
-4.142246e-01
-4.652946e-01
-5.186423e-01
-5.741352e-01
-6.316427e-01
-6.910382e-01
-7.522015e-01
-8.150229e-01
-8.794087e-01
-9.452892e-01
-1.012632e+00
-1.081461e+00
-1.151892e+00
-1.224191e+00
-1.298886e+00
-1.376999e+00
-1.460564e+00
-1.553815e+00
-1.665822e+00
-1.813682e+00
0.000000e+00
-1.123993e-02
-2.782008e-02
-4.770300e-02
-7.034990e-02
-9.599740e-02
-1.247480e-01
-1.566283e-01
-1.916001e-01
-2.295860e-01
-2.704845e-01
-3.141794e-01
-3.605462e-01
-4.094549e-01
-4.607730e-01
-5.143670e-01
-5.701037e-01
-6.278516e-01
-6.874833e-01
-7.488777e-01
-8.119240e-01
-8.765279e-01
-9.426195e-01
-1.010167e+00
-1.079198e+00
-1.149835e+00
-1.222354e+00
-1.297297e+00
-1.375676e+00
-1.459319e+00
-1.551357e+00
-1.655484e+00
-1.770992e+00
0.000000e+00
-9.000455e-03
-2.355799e-02
-4.238066e-02
-6.473651e-02
-9.037604e-02
-1.192496e-01
-1.513086e-01
-1.864839e-01
-2.246840e-01
-2.658009e-01
-3.097158e-01
-3.563028e-01
-4.054318e-01
-4.569704e-01
-5.107855e-01
-5.667442e-01
-6.247157e-01
-6.845731e-01
-7.461964e-01
-8.094763e-01
-8.743207e-01
-9.406632e-01
-1.008477e+00
-1.077796e+00
-1.148749e+00
-1.221610e+00
-1.296878e+00
-1.375380e+00
-1.458322e+00
-1.546860e+00
-1.640239e+00
-1.727165e+00
0.000000e+00
-7.615865e-03
-2.077074e-02
-3.860117e-02
-6.044740e-02
-8.591883e-02
-1.148033e-01
-1.469664e-01
-1.822920e-01
-2.206646e-01
-2.619643e-01
-3.060666e-01
-3.528434e-01
-4.021643e-01
-4.538974e-01
-5.079104e-01
-5.640718e-01
-6.222523e-01
-6.823267e-01
-7.441770e-01
-8.076965e-01
-8.727956e-01
-9.394110e-01
-1.007518e+00
-1.077147e+00
-1.148412e+00
-1.221535e+00
-1.296877e+00
-1.374912e+00
-1.456024e+00
-1.539826e+00
-1.623240e+00
-1.698944e+00
0.000000e+00
-6.734838e-03
-1.894195e-02
-3.600028e-02
-5.735475e-02
-8.258758e-02
-1.114092e-01
-1.436135e-01
-1.790381e-01
-2.175400e-01
-2.589845e-01
-3.032397e-01
-3.501745e-01
-3.996577e-01
-4.515583e-01
-5.057451e-01
-5.620885e-01
-6.204610e-01
-6.807394e-01
-7.428076e-01
-8.065605e-01
-8.719089e-01
-9.387876e-01
-1.007164e+00
-1.077051e+00
-1.148515e+00
-1.221682e+00
-1.296711e+00
-1.373688e+00
-1.452353e+00
-1.531508e+00
-1.608326e+00
-1.678536e+00
0.000000e+00
-6.187289e-03
-1.778571e-02
-3.430965e-02
-5.528290e-02
-8.029829e-02
-1.090343e-01
-1.412427e-01
-1.767257e-01
-2.153171e-01
-2.568683e-01
-3.012404e-01
-3.482991e-01
-3.979129e-01
-4.499512e-01
-5.042845e-01
-5.607850e-01
-6.193267e-01
-6.797882e-01
-7.420539e-01
-8.060177e-01
-8.715871e-01
-9.386880e-01
-1.007270e+00
-1.077309e+00
-1.148806e+00
-1.221768e+00
-1.296153e+00
-1.371747e+00
-1.447933e+00
-1.523395e+00
-1.595956e+00
-1.662951e+00
0.000000e+00
-5.886403e-03
-1.714413e-02
-3.335695e-02
-5.409487e-02
-7.896480e-02
-1.076349e-01
-1.398361e-01
-1.753508e-01
-2.139975e-01
-2.556187e-01
-3.000704e-01
-3.472167e-01
-3.969259e-01
-4.490685e-01
-5.035165e-01
-5.601433e-01
-6.188244e-01
-6.794385e-01
-7.418689e-01
-8.060058e-01
-8.717485e-01
-9.390074e-01
-1.007705e+00
-1.077773e+00
-1.149138e+00
-1.221696e+00
-1.295249e+00
-1.369404e+00
-1.443432e+00
-1.516144e+00
-1.585904e+00
-1.650892e+00
0.000000e+00
-5.789459e-03
-1.693714e-02
-3.304817e-02
-5.370768e-02
-7.852837e-02
-1.071765e-01
-1.393772e-01
-1.749068e-01
-2.135794e-01
-2.552347e-01
-2.997278e-01
-3.469230e-01
-3.966893e-01
-4.488986e-01
-5.034242e-01
-5.601405e-01
-6.189234e-01
-6.796507e-01
-7.422026e-01
-8.064627e-01
-8.723186e-01
-9.396609e-01
-1.008381e+00
-1.078362e+00
-1.149466e+00
-1.221500e+00
-1.294165e+00
-1.366994e+00
-1.439268e+00
-1.509982e+00
-1.577887e+00
-1.641650e+00
0.000000e+00
-5.883599e-03
-1.714024e-02
-3.335360e-02
-5.409386e-02
-7.896836e-02
-1.076460e-01
-1.398586e-01
-1.753898e-01
-2.140599e-01
-2.557131e-01
-3.002077e-01
-3.474106e-01
-3.971926e-01
-4.494270e-01
-5.039884e-01
-5.607517e-01
-6.195923e-01
-6.803860e-01
-7.430084e-01
-8.073348e-01
-8.732387e-01
-9.405894e-01
-1.009247e+00
-1.079052e+00
-1.149812e+00
-1.221272e+00
-1.293085e+00
-1.364766e+00
-1.435664e+00
-1.504949e+00
-1.571654e+00
-1.634762e+00
0.000000e+00
-6.181908e-03
-1.777824e-02
-3.430319e-02
-5.528087e-02
-8.030497e-02
-1.090553e-01
-1.412855e-01
-1.768002e-01
-2.154364e-01
-2.570490e-01
-3.015035e-01
-3.486706e-01
-3.984241e-01
-4.506389e-01
-5.051902e-01
-5.619532e-01
-6.208023e-01
-6.816103e-01
-7.442475e-01
-8.085801e-01
-8.744675e-01
-9.417584e-01
-1.010285e+00
-1.079852e+00
-1.150226e+00
-1.221118e+00
-1.292158e+00
-1.362883e+00
-1.432721e+00
-1.501001e+00
-1.566979e+00
-1.629873e+00
0.000000e+00
-6.727358e-03
-1.893157e-02
-3.599126e-02
-5.735183e-02
-8.259672e-02
-1.114383e-01
-1.436730e-01
-1.791419e-01
-2.177063e-01
-2.592366e-01
-3.036071e-01
-3.506937e-01
-4.003728e-01
-4.525206e-01
-5.070132e-01
-5.637252e-01
-6.225298e-01
-6.832966e-01
-7.458907e-01
-8.101695e-01
-8.759796e-01
-9.431519e-01
-1.011495e+00
-1.080788e+00
-1.150769e+00
-1.221128e+00
-1.291494e+00
-1.361437e+00
-1.430467e+00
-1.498054e+00
-1.563644e+00
-1.626667e+00
0.000000e+00
-7.607054e-03
-2.075852e-02
-3.859053e-02
-6.044402e-02
-8.592990e-02
-1.148383e-01
-1.470382e-01
-1.824173e-01
-2.208655e-01
-2.622690e-01
-3.065109e-01
-3.534714e-01
-4.030293e-01
-4.550619e-01
-5.094453e-01
-5.660537e-01
-6.247587e-01
-6.854272e-01
-7.479194e-01
-8.120856e-01
-8.777620e-01
-9.447654e-01
-1.012887e+00
-1.081888e+00
-1.151487e+00
-1.221366e+00
-1.291159e+00
-1.360470e+00
-1.428885e+00
-1.495997e+00
-1.561430e+00
-1.624833e+00
0.000000e+00
-8.991400e-03
-2.354545e-02
-4.236985e-02
-6.473361e-02
-9.038904e-02
-1.192891e-01
-1.513887e-01
-1.866233e-01
-2.249069e-01
-2.661387e-01
-3.102078e-01
-3.569977e-01
-4.063883e-01
-4.582574e-01
-5.124810e-01
-5.689325e-01
-6.274821e-01
-6.879944e-01
-7.503261e-01
-8.143220e-01
-8.798111e-01
-9.466007e-01
-1.014471e+00
-1.083170e+00
-1.152409e+00
-1.221863e+00
-1.291177e+00
-1.359983e+00
-1.427926e+00
-1.494704e+00
-1.560108e+00
-1.624034e+00
0.000000e+00
-1.123203e-02
-2.780909e-02
-4.769388e-02
-7.034903e-02
-9.601322e-02
-1.247916e-01
-1.567145e-01
-1.917482e-01
-2.298212e-01
-2.708391e-01
-3.146941e-01
-3.612709e-01
-4.104498e-01
-4.621086e-01
-5.161226e-01
-5.723646e-01
-6.307035e-01
-6.910022e-01
-7.531151e-01
-8.168836e-01
-8.821323e-01
-9.486635e-01
-1.016252e+00
-1.084639e+00
-1.153534e+00
-1.222611e+00
-1.291526e+00
-1.359928e+00
-1.427506e+00
-1.494033e+00
-1.559443e+00
-1.623894e+00
0.000000e+00
-1.529655e-02
-3.450039e-02
-5.466041e-02
-7.727650e-02
-1.027537e-01
-1.313077e-01
-1.629902e-01
-1.977773e-01
-2.356008e-01
-2.763678e-01
-3.199710e-01
-3.662952e-01
-4.152206e-01
-4.666243e-01
-5.203813e-01
-5.763634e-01
-6.344385e-01
-6.944681e-01
-7.563049e-01
-8.197887e-01
-8.847420e-01
-9.509653e-01
-1.018232e+00
-1.086284e+00
-1.154832e+00
-1.223557e+00
-1.292122e+00
-1.360195e+00
-1.427486e+00
-1.493815e+00
-1.559203e+00
-1.624013e+00
0.000000e+00
-2.462126e-02
-4.296818e-02
-6.299399e-02
-8.530019e-02
-1.105047e-01
-1.387851e-01
-1.701939e-01
-2.047042e-01
-2.422475e-01
-2.827308e-01
-3.260473e-01
-3.720818e-01
-4.207143e-01
-4.718216e-01
-5.252778e-01
-5.809539e-01
-6.387163e-01
-6.984252e-01
-7.599316e-01
-8.230739e-01
-8.876736e-01
-9.535311e-01