TITLE = "Solution"
VARIABLES = x, y, u, v, psiu, psiv, t, stress
ZONE T="structure" N=561 E=512 F=FEBLOCK ET=QUADRILATERAL VARLOCATION=([7,8]=cellcentered)
0.000000e+00
6.250000e+00
1.250000e+01
1.875000e+01
2.500000e+01
3.125000e+01
3.750000e+01
4.375000e+01
5.000000e+01
5.625000e+01
6.250000e+01
6.875000e+01
7.500000e+01
8.125000e+01
8.750000e+01
9.375000e+01
1.000000e+02
1.062500e+02
1.125000e+02
1.187500e+02
1.250000e+02
1.312500e+02
1.375000e+02
1.437500e+02
1.500000e+02
1.562500e+02
1.625000e+02
1.687500e+02
1.750000e+02
1.812500e+02
1.875000e+02
1.937500e+02
2.000000e+02
0.000000e+00
6.250000e+00
1.250000e+01
1.875000e+01
2.500000e+01
3.125000e+01
3.750000e+01
4.375000e+01
5.000000e+01
5.625000e+01
6.250000e+01
6.875000e+01
7.500000e+01
8.125000e+01
8.750000e+01
9.375000e+01
1.000000e+02
1.062500e+02
1.125000e+02
1.187500e+02
1.250000e+02
1.312500e+02
1.375000e+02
1.437500e+02
1.500000e+02
1.562500e+02
1.625000e+02
1.687500e+02
1.750000e+02
1.812500e+02
1.875000e+02
1.937500e+02
2.000000e+02
0.000000e+00
6.250000e+00
1.250000e+01
1.875000e+01
2.500000e+01
3.125000e+01
3.750000e+01
4.375000e+01
5.000000e+01
5.625000e+01
6.250000e+01
6.875000e+01
7.500000e+01
8.125000e+01
8.750000e+01
9.375000e+01
1.000000e+02
1.062500e+02
1.125000e+02
1.187500e+02
1.250000e+02
1.312500e+02
1.375000e+02
1.437500e+02
1.500000e+02
1.562500e+02
1.625000e+02
1.687500e+02
1.750000e+02
1.812500e+02
1.875000e+02
1.937500e+02
2.000000e+02
0.000000e+00
6.250000e+00
1.250000e+01
1.875000e+01
2.500000e+01
3.125000e+01
3.750000e+01
4.375000e+01
5.000000e+01
5.625000e+01
6.250000e+01
6.875000e+01
7.500000e+01
8.125000e+01
8.750000e+01
9.375000e+01
1.000000e+02
1.062500e+02
1.125000e+02
1.187500e+02
1.250000e+02
1.312500e+02
1.375000e+02
1.437500e+02
1.500000e+02
1.562500e+02
1.625000e+02
1.687500e+02
1.750000e+02
1.812500e+02
1.875000e+02
1.937500e+02
2.000000e+02
0.000000e+00
6.250000e+00
1.250000e+01
1.875000e+01
2.500000e+01
3.125000e+01
3.750000e+01
4.375000e+01
5.000000e+01
5.625000e+01
6.250000e+01
6.875000e+01
7.500000e+01
8.125000e+01
8.750000e+01
9.375000e+01
1.000000e+02
1.062500e+02
1.125000e+02
1.187500e+02
1.250000e+02
1.312500e+02
1.375000e+02
1.437500e+02
1.500000e+02
1.562500e+02
1.625000e+02
1.687500e+02
1.750000e+02
1.812500e+02
1.875000e+02
1.937500e+02
2.000000e+02
0.000000e+00
6.250000e+00
1.250000e+01
1.875000e+01
2.500000e+01
3.125000e+01
3.750000e+01
4.375000e+01
5.000000e+01
5.625000e+01
6.250000e+01
6.875000e+01
7.500000e+01
8.125000e+01
8.750000e+01
9.375000e+01
1.000000e+02
1.062500e+02
1.125000e+02
1.187500e+02
1.250000e+02
1.312500e+02
1.375000e+02
1.437500e+02
1.500000e+02
1.562500e+02
1.625000e+02
1.687500e+02
1.750000e+02
1.812500e+02
1.875000e+02
1.937500e+02
2.000000e+02
0.000000e+00
6.250000e+00
1.250000e+01
1.875000e+01
2.500000e+01
3.125000e+01
3.750000e+01
4.375000e+01
5.000000e+01
5.625000e+01
6.250000e+01
6.875000e+01
7.500000e+01
8.125000e+01
8.750000e+01
9.375000e+01
1.000000e+02
1.062500e+02
1.125000e+02
1.187500e+02
1.250000e+02
1.312500e+02
1.375000e+02
1.437500e+02
1.500000e+02
1.562500e+02
1.625000e+02
1.687500e+02
1.750000e+02
1.812500e+02
1.875000e+02
1.937500e+02
2.000000e+02
0.000000e+00
6.250000e+00
1.250000e+01
1.875000e+01
2.500000e+01
3.125000e+01
3.750000e+01
4.375000e+01
5.000000e+01
5.625000e+01
6.250000e+01
6.875000e+01
7.500000e+01
8.125000e+01
8.750000e+01
9.375000e+01
1.000000e+02
1.062500e+02
1.125000e+02
1.187500e+02
1.250000e+02
1.312500e+02
1.375000e+02
1.437500e+02
1.500000e+02
1.562500e+02
1.625000e+02
1.687500e+02
1.750000e+02
1.812500e+02
1.875000e+02
1.937500e+02
2.000000e+02
0.000000e+00
6.250000e+00
1.250000e+01
1.875000e+01
2.500000e+01
3.125000e+01
3.750000e+01
4.375000e+01
5.000000e+01
5.625000e+01
6.250000e+01
6.875000e+01
7.500000e+01
8.125000e+01
8.750000e+01
9.375000e+01
1.000000e+02
1.062500e+02
1.125000e+02
1.187500e+02
1.250000e+02
1.312500e+02
1.375000e+02
1.437500e+02
1.500000e+02
1.562500e+02
1.625000e+02
1.687500e+02
1.750000e+02
1.812500e+02
1.875000e+02
1.937500e+02
2.000000e+02
0.000000e+00
6.250000e+00
1.250000e+01
1.875000e+01
2.500000e+01
3.125000e+01
3.750000e+01
4.375000e+01
5.000000e+01
5.625000e+01
6.250000e+01
6.875000e+01
7.500000e+01
8.125000e+01
8.750000e+01
9.375000e+01
1.000000e+02
1.062500e+02
1.125000e+02
1.187500e+02
1.250000e+02
1.312500e+02
1.375000e+02
1.437500e+02
1.500000e+02
1.562500e+02
1.625000e+02
1.687500e+02
1.750000e+02
1.812500e+02
1.875000e+02
1.937500e+02
2.000000e+02
0.000000e+00
6.250000e+00
1.250000e+01
1.875000e+01
2.500000e+01
3.125000e+01
3.750000e+01
4.375000e+01
5.000000e+01
5.625000e+01
6.250000e+01
6.875000e+01
7.500000e+01
8.125000e+01
8.750000e+01
9.375000e+01
1.000000e+02
1.062500e+02
1.125000e+02
1.187500e+02
1.250000e+02
1.312500e+02
1.375000e+02
1.437500e+02
1.500000e+02
1.562500e+02
1.625000e+02
1.687500e+02
1.750000e+02
1.812500e+02
1.875000e+02
1.937500e+02
2.000000e+02
0.000000e+00
6.250000e+00
1.250000e+01
1.875000e+01
2.500000e+01
3.125000e+01
3.750000e+01
4.375000e+01
5.000000e+01
5.625000e+01
6.250000e+01
6.875000e+01
7.500000e+01
8.125000e+01
8.750000e+01
9.375000e+01
1.000000e+02
1.062500e+02
1.125000e+02
1.187500e+02
1.250000e+02
1.312500e+02
1.375000e+02
1.437500e+02
1.500000e+02
1.562500e+02
1.625000e+02
1.687500e+02
1.750000e+02
1.812500e+02
1.875000e+02
1.937500e+02
2.000000e+02
0.000000e+00
6.250000e+00
1.250000e+01
1.875000e+01
2.500000e+01
3.125000e+01
3.750000e+01
4.375000e+01
5.000000e+01
5.625000e+01
6.250000e+01
6.875000e+01
7.500000e+01
8.125000e+01
8.750000e+01
9.375000e+01
1.000000e+02
1.062500e+02
1.125000e+02
1.187500e+02
1.250000e+02
1.312500e+02
1.375000e+02
1.437500e+02
1.500000e+02
1.562500e+02
1.625000e+02
1.687500e+02
1.750000e+02
1.812500e+02
1.875000e+02
1.937500e+02
2.000000e+02
0.000000e+00
6.250000e+00
1.250000e+01
1.875000e+01
2.500000e+01
3.125000e+01
3.750000e+01
4.375000e+01
5.000000e+01
5.625000e+01
6.250000e+01
6.875000e+01
7.500000e+01
8.125000e+01
8.750000e+01
9.375000e+01
1.000000e+02
1.062500e+02
1.125000e+02
1.187500e+02
1.250000e+02
1.312500e+02
1.375000e+02
1.437500e+02
1.500000e+02
1.562500e+02
1.625000e+02
1.687500e+02
1.750000e+02
1.812500e+02
1.875000e+02
1.937500e+02
2.000000e+02
0.000000e+00
6.250000e+00
1.250000e+01
1.875000e+01
2.500000e+01
3.125000e+01
3.750000e+01
4.375000e+01
5.000000e+01
5.625000e+01
6.250000e+01
6.875000e+01
7.500000e+01
8.125000e+01
8.750000e+01
9.375000e+01
1.000000e+02
1.062500e+02
1.125000e+02
1.187500e+02
1.250000e+02
1.312500e+02
1.375000e+02
1.437500e+02
1.500000e+02
1.562500e+02
1.625000e+02
1.687500e+02
1.750000e+02
1.812500e+02
1.875000e+02
1.937500e+02
2.000000e+02
0.000000e+00
6.250000e+00
1.250000e+01
1.875000e+01
2.500000e+01
3.125000e+01
3.750000e+01
4.375000e+01
5.000000e+01
5.625000e+01
6.250000e+01
6.875000e+01
7.500000e+01
8.125000e+01
8.750000e+01
9.375000e+01
1.000000e+02
1.062500e+02
1.125000e+02
1.187500e+02
1.250000e+02
1.312500e+02
1.375000e+02
1.437500e+02
1.500000e+02
1.562500e+02
1.625000e+02
1.687500e+02
1.750000e+02
1.812500e+02
1.875000e+02
1.937500e+02
2.000000e+02
0.000000e+00
6.250000e+00
1.250000e+01
1.875000e+01
2.500000e+01
3.125000e+01
3.750000e+01
4.375000e+01
5.000000e+01
5.625000e+01
6.250000e+01
6.875000e+01
7.500000e+01
8.125000e+01
8.750000e+01
9.375000e+01
1.000000e+02
1.062500e+02
1.125000e+02
1.187500e+02
1.250000e+02
1.312500e+02
1.375000e+02
1.437500e+02
1.500000e+02
1.562500e+02
1.625000e+02
1.687500e+02
1.750000e+02
1.812500e+02
1.875000e+02
1.937500e+02
2.000000e+02
0.000000e+00
0.000000e+00
0.000000e+00
0.000000e+00
0.000000e+00
0.000000e+00
0.000000e+00
0.000000e+00
0.000000e+00
0.000000e+00
0.000000e+00
0.000000e+00
0.000000e+00
0.000000e+00
0.000000e+00
0.000000e+00
0.000000e+00
0.000000e+00
0.000000e+00
0.000000e+00
0.000000e+00
0.000000e+00
0.000000e+00
0.000000e+00
0.000000e+00
0.000000e+00
0.000000e+00
0.000000e+00
0.000000e+00
0.000000e+00
0.000000e+00
0.000000e+00
0.000000e+00
6.250000e+00
6.250000e+00
6.250000e+00
6.250000e+00
6.250000e+00
6.250000e+00
6.250000e+00
6.250000e+00
6.250000e+00
6.250000e+00
6.250000e+00
6.250000e+00
6.250000e+00
6.250000e+00
6.250000e+00
6.250000e+00
6.250000e+00
6.250000e+00
6.250000e+00
6.250000e+00
6.250000e+00
6.250000e+00
6.250000e+00
6.250000e+00
6.250000e+00
6.250000e+00
6.250000e+00
6.250000e+00
6.250000e+00
6.250000e+00
6.250000e+00
6.250000e+00
6.250000e+00
1.250000e+01
1.250000e+01
1.250000e+01
1.250000e+01
1.250000e+01
1.250000e+01
1.250000e+01
1.250000e+01
1.250000e+01
1.250000e+01
1.250000e+01
1.250000e+01
1.250000e+01
1.250000e+01
1.250000e+01
1.250000e+01
1.250000e+01
1.250000e+01
1.250000e+01
1.250000e+01
1.250000e+01
1.250000e+01
1.250000e+01
1.250000e+01
1.250000e+01
1.250000e+01
1.250000e+01
1.250000e+01
1.250000e+01
1.250000e+01
1.250000e+01
1.250000e+01
1.250000e+01
1.875000e+01
1.875000e+01
1.875000e+01
1.875000e+01
1.875000e+01
1.875000e+01
1.875000e+01
1.875000e+01
1.875000e+01
1.875000e+01
1.875000e+01
1.875000e+01
1.875000e+01
1.875000e+01
1.875000e+01
1.875000e+01
1.875000e+01
1.875000e+01
1.875000e+01
1.875000e+01
1.875000e+01
1.875000e+01
1.875000e+01
1.875000e+01
1.875000e+01
1.875000e+01
1.875000e+01
1.875000e+01
1.875000e+01
1.875000e+01
1.875000e+01
1.875000e+01
1.875000e+01
2.500000e+01
2.500000e+01
2.500000e+01
2.500000e+01
2.500000e+01
2.500000e+01
2.500000e+01
2.500000e+01
2.500000e+01
2.500000e+01
2.500000e+01
2.500000e+01
2.500000e+01
2.500000e+01
2.500000e+01
2.500000e+01
2.500000e+01
2.500000e+01
2.500000e+01
2.500000e+01
2.500000e+01
2.500000e+01
2.500000e+01
2.500000e+01
2.500000e+01
2.500000e+01
2.500000e+01
2.500000e+01
2.500000e+01
2.500000e+01
2.500000e+01
2.500000e+01
2.500000e+01
3.125000e+01
3.125000e+01
3.125000e+01
3.125000e+01
3.125000e+01
3.125000e+01
3.125000e+01
3.125000e+01
3.125000e+01
3.125000e+01
3.125000e+01
3.125000e+01
3.125000e+01
3.125000e+01
3.125000e+01
3.125000e+01
3.125000e+01
3.125000e+01
3.125000e+01
3.125000e+01
3.125000e+01
3.125000e+01
3.125000e+01
3.125000e+01
3.125000e+01
3.125000e+01
3.125000e+01
3.125000e+01
3.125000e+01
3.125000e+01
3.125000e+01
3.125000e+01
3.125000e+01
3.750000e+01
3.750000e+01
3.750000e+01
3.750000e+01
3.750000e+01
3.750000e+01
3.750000e+01
3.750000e+01
3.750000e+01
3.750000e+01
3.750000e+01
3.750000e+01
3.750000e+01
3.750000e+01
3.750000e+01
3.750000e+01
3.750000e+01
3.750000e+01
3.750000e+01
3.750000e+01
3.750000e+01
3.750000e+01
3.750000e+01
3.750000e+01
3.750000e+01
3.750000e+01
3.750000e+01
3.750000e+01
3.750000e+01
3.750000e+01
3.750000e+01
3.750000e+01
3.750000e+01
4.375000e+01
4.375000e+01
4.375000e+01
4.375000e+01
4.375000e+01
4.375000e+01
4.375000e+01
4.375000e+01
4.375000e+01
4.375000e+01
4.375000e+01
4.375000e+01
4.375000e+01
4.375000e+01
4.375000e+01
4.375000e+01
4.375000e+01
4.375000e+01
4.375000e+01
4.375000e+01
4.375000e+01
4.375000e+01
4.375000e+01
4.375000e+01
4.375000e+01
4.375000e+01
4.375000e+01
4.375000e+01
4.375000e+01
4.375000e+01
4.375000e+01
4.375000e+01
4.375000e+01
5.000000e+01
5.000000e+01
5.000000e+01
5.000000e+01
5.000000e+01
5.000000e+01
5.000000e+01
5.000000e+01
5.000000e+01
5.000000e+01
5.000000e+01
5.000000e+01
5.000000e+01
5.000000e+01
5.000000e+01
5.000000e+01
5.000000e+01
5.000000e+01
5.000000e+01
5.000000e+01
5.000000e+01
5.000000e+01
5.000000e+01
5.000000e+01
5.000000e+01
5.000000e+01
5.000000e+01
5.000000e+01
5.000000e+01
5.000000e+01
5.000000e+01
5.000000e+01
5.000000e+01
5.625000e+01
5.625000e+01
5.625000e+01
5.625000e+01
5.625000e+01
5.625000e+01
5.625000e+01
5.625000e+01
5.625000e+01
5.625000e+01
5.625000e+01
5.625000e+01
5.625000e+01
5.625000e+01
5.625000e+01
5.625000e+01
5.625000e+01
5.625000e+01
5.625000e+01
5.625000e+01
5.625000e+01
5.625000e+01
5.625000e+01
5.625000e+01
5.625000e+01
5.625000e+01
5.625000e+01
5.625000e+01
5.625000e+01
5.625000e+01
5.625000e+01
5.625000e+01
5.625000e+01
6.250000e+01
6.250000e+01
6.250000e+01
6.250000e+01
6.250000e+01
6.250000e+01
6.250000e+01
6.250000e+01
6.250000e+01
6.250000e+01
6.250000e+01
6.250000e+01
6.250000e+01
6.250000e+01
6.250000e+01
6.250000e+01
6.250000e+01
6.250000e+01
6.250000e+01
6.250000e+01
6.250000e+01
6.250000e+01
6.250000e+01
6.250000e+01
6.250000e+01
6.250000e+01
6.250000e+01
6.250000e+01
6.250000e+01
6.250000e+01
6.250000e+01
6.250000e+01
6.250000e+01
6.875000e+01
6.875000e+01
6.875000e+01
6.875000e+01
6.875000e+01
6.875000e+01
6.875000e+01
6.875000e+01
6.875000e+01
6.875000e+01
6.875000e+01
6.875000e+01
6.875000e+01
6.875000e+01
6.875000e+01
6.875000e+01
6.875000e+01
6.875000e+01
6.875000e+01
6.875000e+01
6.875000e+01
6.875000e+01
6.875000e+01
6.875000e+01
6.875000e+01
6.875000e+01
6.875000e+01
6.875000e+01
6.875000e+01
6.875000e+01
6.875000e+01
6.875000e+01
6.875000e+01
7.500000e+01
7.500000e+01
7.500000e+01
7.500000e+01
7.500000e+01
7.500000e+01
7.500000e+01
7.500000e+01
7.500000e+01
7.500000e+01
7.500000e+01
7.500000e+01
7.500000e+01
7.500000e+01
7.500000e+01
7.500000e+01
7.500000e+01
7.500000e+01
7.500000e+01
7.500000e+01
7.500000e+01
7.500000e+01
7.500000e+01
7.500000e+01
7.500000e+01
7.500000e+01
7.500000e+01
7.500000e+01
7.500000e+01
7.500000e+01
7.500000e+01
7.500000e+01
7.500000e+01
8.125000e+01
8.125000e+01
8.125000e+01
8.125000e+01
8.125000e+01
8.125000e+01
8.125000e+01
8.125000e+01
8.125000e+01
8.125000e+01
8.125000e+01
8.125000e+01
8.125000e+01
8.125000e+01
8.125000e+01
8.125000e+01
8.125000e+01
8.125000e+01
8.125000e+01
8.125000e+01
8.125000e+01
8.125000e+01
8.125000e+01
8.125000e+01
8.125000e+01
8.125000e+01
8.125000e+01
8.125000e+01
8.125000e+01
8.125000e+01
8.125000e+01
8.125000e+01
8.125000e+01
8.750000e+01
8.750000e+01
8.750000e+01
8.750000e+01
8.750000e+01
8.750000e+01
8.750000e+01
8.750000e+01
8.750000e+01
8.750000e+01
8.750000e+01
8.750000e+01
8.750000e+01
8.750000e+01
8.750000e+01
8.750000e+01
8.750000e+01
8.750000e+01
8.750000e+01
8.750000e+01
8.750000e+01
8.750000e+01
8.750000e+01
8.750000e+01
8.750000e+01
8.750000e+01
8.750000e+01
8.750000e+01
8.750000e+01
8.750000e+01
8.750000e+01
8.750000e+01
8.750000e+01
9.375000e+01
9.375000e+01
9.375000e+01
9.375000e+01
9.375000e+01
9.375000e+01
9.375000e+01
9.375000e+01
9.375000e+01
9.375000e+01
9.375000e+01
9.375000e+01
9.375000e+01
9.375000e+01
9.375000e+01
9.375000e+01
9.375000e+01
9.375000e+01
9.375000e+01
9.375000e+01
9.375000e+01
9.375000e+01
9.375000e+01
9.375000e+01
9.375000e+01
9.375000e+01
9.375000e+01
9.375000e+01
9.375000e+01
9.375000e+01
9.375000e+01
9.375000e+01
9.375000e+01
1.000000e+02
1.000000e+02
1.000000e+02
1.000000e+02
1.000000e+02
1.000000e+02
1.000000e+02
1.000000e+02
1.000000e+02
1.000000e+02
1.000000e+02
1.000000e+02
1.000000e+02
1.000000e+02
1.000000e+02
1.000000e+02
1.000000e+02
1.000000e+02
1.000000e+02
1.000000e+02
1.000000e+02
1.000000e+02
1.000000e+02
1.000000e+02
1.000000e+02
1.000000e+02
1.000000e+02
1.000000e+02
1.000000e+02
1.000000e+02
1.000000e+02
1.000000e+02
1.000000e+02
0.000000e+00
-3.992688e-02
-7.244201e-02
-1.025627e-01
-1.314700e-01
-1.593845e-01
-1.863621e-01
-2.124004e-01
-2.374830e-01
-2.615917e-01
-2.847115e-01
-3.068318e-01
-3.279472e-01
-3.480574e-01
-3.671670e-01
-3.852861e-01
-4.024309e-01
-4.186250e-01
-4.339010e-01
-4.483028e-01
-4.618890e-01
-4.747370e-01
-4.869491e-01
-4.986612e-01
-5.100552e-01
-5.213783e-01
-5.329738e-01
-5.453315e-01
-5.591697e-01
-5.755455e-01
-5.958302e-01
-6.200040e-01
-6.347570e-01
0.000000e+00
-2.676990e-02
-5.569765e-02
-8.297270e-02
-1.088966e-01
-1.337161e-01
-1.575625e-01
-1.804930e-01
-2.025307e-01
-2.236827e-01
-2.439507e-01
-2.633346e-01
-2.818353e-01
-2.994559e-01
-3.162020e-01
-3.320832e-01
-3.471129e-01
-3.613096e-01
-3.746980e-01
-3.873100e-01
-3.991863e-01
-4.103784e-01
-4.209500e-01
-4.309791e-01
-4.405589e-01
-4.497966e-01
-4.588055e-01
-4.676786e-01
-4.764155e-01
-4.847319e-01
-4.916617e-01
-4.957131e-01
-5.013535e-01
0.000000e+00
-2.123395e-02
-4.371519e-02
-6.660467e-02
-8.884615e-02
-1.102680e-01
-1.308565e-01
-1.506312e-01
-1.696095e-01
-1.878035e-01
-2.052208e-01
-2.218670e-01
-2.377465e-01
-2.528641e-01
-2.672253e-01
-2.808372e-01
-2.937087e-01
-3.058507e-01
-3.172769e-01
-3.280037e-01
-3.380498e-01
-3.474355e-01
-3.561808e-01
-3.643012e-01
-3.718000e-01
-3.786531e-01
-3.847820e-01
-3.900065e-01
-3.939731e-01
-3.961090e-01
-3.959217e-01
-3.947223e-01
-4.013087e-01
0.000000e+00
-1.684726e-02
-3.462495e-02
-5.288931e-02
-7.111087e-02
-8.889105e-02
-1.060776e-01
-1.226159e-01
-1.384912e-01
-1.537028e-01
-1.682546e-01
-1.821516e-01
-1.953983e-01
-2.079991e-01
-2.199574e-01
-2.312769e-01
-2.419605e-01
-2.520110e-01
-2.614305e-01
-2.702195e-01
-2.783758e-01
-2.858918e-01
-2.927509e-01
-2.989213e-01
-3.043458e-01
-3.089288e-01
-3.125186e-01
-3.148959e-01
-3.158036e-01
-3.151297e-01
-3.134932e-01
-3.133955e-01
-3.196707e-01
0.000000e+00
-1.307582e-02
-2.677482e-02
-4.091143e-02
-5.516289e-02
-6.923955e-02
-8.294719e-02
-9.618747e-02
-1.089157e-01
-1.211146e-01
-1.327798e-01
-1.439119e-01
-1.545129e-01
-1.645846e-01
-1.741277e-01
-1.831413e-01
-1.916227e-01
-1.995667e-01
-2.069651e-01
-2.138055e-01
-2.200695e-01
-2.257304e-01
-2.307495e-01
-2.350715e-01
-2.386201e-01
-2.412950e-01
-2.429782e-01
-2.435686e-01
-2.430842e-01
-2.418990e-01
-2.411300e-01
-2.429058e-01
-2.482588e-01
0.000000e+00
-9.609968e-03
-1.963166e-02
-2.997533e-02
-4.046222e-02
-5.089661e-02
-6.112307e-02
-7.104058e-02
-8.059371e-02
-8.975550e-02
-9.851456e-02
-1.068669e-01
-1.148111e-01
-1.223456e-01
-1.294678e-01
-1.361725e-01
-1.424517e-01
-1.482940e-01
-1.536836e-01
-1.585993e-01
-1.630135e-01
-1.668905e-01
-1.701848e-01
-1.728413e-01
-1.747969e-01
-1.759901e-01
-1.763860e-01
-1.760307e-01
-1.751551e-01
-1.743220e-01
-1.745248e-01
-1.767886e-01
-1.812178e-01
0.000000e+00
-6.324514e-03
-1.289919e-02
-1.968244e-02
-2.657752e-02
-3.346838e-02
-4.025109e-02
-4.684992e-02
-5.321744e-02
-5.932751e-02
-6.516691e-02
-7.072899e-02
-7.600950e-02
-8.100403e-02
-8.570656e-02
-9.010849e-02
-9.419794e-02
-9.795920e-02
-1.013721e-01
-1.044115e-01
-1.070468e-01
-1.092423e-01
-1.109582e-01
-1.121539e-01
-1.127963e-01
-1.128760e-01
-1.124368e-01
-1.116239e-01
-1.107468e-01
-1.103216e-01
-1.109850e-01
-1.131889e-01
-1.167643e-01
0.000000e+00
-3.141384e-03
-6.401531e-03
-9.763684e-03
-1.318538e-02
-1.661257e-02
-1.999391e-02
-2.328924e-02
-2.647143e-02
-2.952388e-02
-3.243678e-02
-3.520364e-02
-3.781879e-02
-4.027574e-02
-4.256612e-02
-4.467893e-02
-4.660000e-02
-4.831160e-02
-4.979220e-02
-5.101660e-02
-5.195648e-02
-5.258210e-02
-5.286550e-02
-5.278668e-02
-5.234407e-02
-5.157147e-02
-5.056236e-02
-4.949910e-02
-4.867369e-02
-4.846693e-02
-4.924521e-02
-5.116787e-02
-5.400484e-02
0.000000e+00
-5.068308e-06
-1.098954e-05
-1.743566e-05
-2.406762e-05
-3.042822e-05
-3.582849e-05
-3.922140e-05
-3.905442e-05
-3.309197e-05
-1.820108e-05
9.903524e-06
5.695447e-05
1.304605e-04
2.400530e-04
3.978209e-04
6.185808e-04
9.200002e-04
1.322440e-03
1.848315e-03
2.520672e-03
3.360544e-03
4.382500e-03
5.587649e-03
6.953416e-03
8.419973e-03
9.875037e-03
1.114274e-02
1.198898e-02
1.216059e-02
1.146960e-02
9.904712e-03
7.713007e-03
0.000000e+00
3.131838e-03
6.380790e-03
9.730710e-03
1.313976e-02
1.655472e-02
1.992555e-02
2.321401e-02
2.639588e-02
2.945875e-02
3.239867e-02
3.521718e-02
3.791941e-02
4.051301e-02
4.300778e-02
4.541557e-02
4.775028e-02
5.002778e-02
5.226543e-02
5.448110e-02
5.669136e-02
5.890837e-02
6.113530e-02
6.335978e-02
6.554566e-02
6.762394e-02
6.948585e-02
7.098339e-02
7.194560e-02
7.221801e-02
7.172465e-02
7.053588e-02
6.890921e-02
0.000000e+00
6.316716e-03
1.288213e-02
1.965512e-02
2.653943e-02
3.341963e-02
4.019281e-02
4.678475e-02
5.315036e-02
5.926684e-02
6.512569e-02
7.072681e-02
7.607471e-02
8.117661e-02
8.604146e-02
9.067962e-02
9.510269e-02
9.932331e-02
1.033546e-01
1.072089e-01
1.108964e-01
1.144217e-01
1.177800e-01
1.209518e-01
1.238975e-01
1.265515e-01
1.288217e-01
1.305948e-01
1.317553e-01
1.322193e-01
1.319807e-01
1.311582e-01
1.300228e-01
0.000000e+00
9.604993e-03
1.962058e-02
2.995728e-02
4.043660e-02
5.086316e-02
6.108214e-02
7.099347e-02
8.054315e-02
8.970631e-02
9.847461e-02
1.068482e-01
1.148314e-01
1.224304e-01
1.296524e-01
1.365050e-01
1.429964e-01
1.491346e-01
1.549277e-01
1.603823e-01
1.655022e-01
1.702863e-01
1.747252e-01
1.787980e-01
1.824688e-01
1.856841e-01
1.883748e-01
1.904630e-01
1.918791e-01
1.925887e-01
1.926286e-01
1.921461e-01
1.914286e-01
0.000000e+00
1.307458e-02
2.677173e-02
4.090590e-02
5.515434e-02
6.922749e-02
8.293132e-02
9.616776e-02
1.088925e-01
1.210891e-01
1.327538e-01
1.438888e-01
1.544979e-01
1.645858e-01
1.741566e-01
1.832142e-01
1.917620e-01
1.998028e-01
2.073386e-01
2.143698e-01
2.208941e-01
2.269057e-01
2.323929e-01
2.373368e-01
2.417095e-01
2.454745e-01
2.485886e-01
2.510089e-01
2.527050e-01
2.536795e-01
2.539956e-01
2.538144e-01
2.534364e-01
0.000000e+00
1.685038e-02
3.463131e-02
5.289877e-02
7.112317e-02
8.890584e-02
1.060944e-01
1.226338e-01
1.385089e-01
1.537181e-01
1.682642e-01
1.821506e-01
1.953799e-01
2.079536e-01
2.198718e-01
2.311336e-01
2.417369e-01
2.516782e-01
2.609526e-01
2.695536e-01
2.774724e-01
2.846980e-01
2.912167e-01
2.970121e-01
3.020656e-01
3.063584e-01
3.098742e-01
3.126053e-01
3.145599e-01
3.157746e-01
3.163333e-01
3.163999e-01
3.162745e-01
0.000000e+00
2.124159e-02
4.373150e-02
6.663021e-02
8.888141e-02
1.103134e-01
1.309121e-01
1.506964e-01
1.696825e-01
1.878804e-01
2.052951e-01
2.219280e-01
2.377778e-01
2.528417e-01
2.671149e-01
2.805910e-01
2.932616e-01
3.051164e-01
3.161428e-01
3.263263e-01
3.356500e-01
3.440958e-01
3.516454e-01
3.582819e-01
3.639926e-01
3.687733e-01
3.726325e-01
3.755975e-01
3.777195e-01
3.790786e-01
3.797900e-01
3.800217e-01
3.800493e-01
0.000000e+00
2.678136e-02
5.572271e-02
8.301301e-02
1.089541e-01
1.337928e-01
1.576600e-01
1.806124e-01
2.026714e-01
2.238420e-01
2.441219e-01
2.635055e-01
2.819856e-01
2.995535e-01
3.161995e-01
3.319115e-01
3.466753e-01
3.604736e-01
3.732855e-01
3.850870e-01
3.958508e-01
4.055478e-01
4.141496e-01
4.216314e-01
4.279776e-01
4.331888e-01
4.372893e-01
4.403371e-01
4.424308e-01
4.437136e-01
4.443690e-01
4.446067e-01
4.446649e-01
0.000000e+00
3.993943e-02
7.247131e-02
1.026129e-01
1.315452e-01
1.594887e-01
1.864995e-01
2.125751e-01
2.376983e-01
2.618488e-01
2.850081e-01
3.071602e-01
3.282907e-01
3.483861e-01
3.674326e-01
3.854140e-01
4.023114e-01
4.181012e-01
4.327544e-01
4.462365e-01
4.585069e-01
4.695202e-01
4.792294e-01
4.875898e-01
4.945670e-01
5.001468e-01
5.043492e-01
5.072443e-01
5.089698e-01
5.097473e-01
5.098886e-01
5.097716e-01
5.097057e-01
0.000000e+00
-2.467405e-02
-4.306154e-02
-6.312671e-02
-8.547048e-02
-1.107100e-01
-1.390207e-01
-1.704517e-01
-2.049718e-01
-2.425069e-01
-2.829576e-01
-3.262094e-01
-3.721389e-01
-4.206176e-01
-4.715143e-01
-5.246971e-01
-5.800347e-01
-6.373982e-01
-6.966629e-01
-7.577115e-01
-8.204378e-01
-8.847524e-01
-9.505913e-01
-1.017929e+00
-1.086800e+00
-1.157331e+00
-1.229802e+00
-1.304761e+00
-1.383253e+00
-1.467352e+00
-1.561527e+00
-1.676327e+00
-1.834925e+00
0.000000e+00
-1.533398e-02
-3.458083e-02
-5.478137e-02
-7.743657e-02
-1.029503e-01
-1.315360e-01
-1.632422e-01
-1.980401e-01
-2.358558e-01
-2.765892e-01
-3.201249e-01
-3.663386e-01
-4.151005e-01
-4.662784e-01
-5.197390e-01
-5.753492e-01
-6.329783e-01
-6.924994e-01
-7.537920e-01
-8.167463e-01
-8.812682e-01
-9.472880e-01
-1.014773e+00
-1.083748e+00
-1.154328e+00
-1.226779e+00
-1.301632e+00
-1.379911e+00
-1.463653e+00
-1.557101e+00
-1.669345e+00
-1.817517e+00
0.000000e+00
-1.126369e-02
-2.787890e-02
-4.780387e-02
-7.049865e-02
-9.620038e-02
-1.250118e-01
-1.569595e-01
-1.920053e-01
-2.300715e-01
-2.710564e-01
-3.148438e-01
-3.613085e-01
-4.103207e-01
-4.617473e-01
-5.154547e-01
-5.713092e-01
-6.291792e-01
-6.889370e-01
-7.504612e-01
-8.136409e-01
-8.783814e-01
-9.446127e-01
-1.012303e+00
-1.081480e+00
-1.152266e+00
-1.224938e+00
-1.300040e+00
-1.378584e+00
-1.462405e+00
-1.554637e+00
-1.658985e+00
-1.774737e+00
0.000000e+00
-9.019486e-03
-2.360781e-02
-4.247027e-02
-6.487340e-02
-9.056714e-02
-1.195018e-01
-1.516285e-01
-1.868782e-01
-2.251591e-01
-2.663630e-01
-3.103707e-01
-3.570562e-01
-4.062891e-01
-4.579367e-01
-5.118656e-01
-5.679426e-01
-6.260367e-01
-6.860207e-01
-7.477742e-01
-8.111880e-01
-8.761695e-01
-9.426522e-01
-1.010610e+00
-1.080075e+00
-1.151178e+00
-1.224193e+00
-1.299620e+00
-1.378288e+00
-1.461406e+00
-1.550131e+00
-1.643707e+00
-1.730817e+00
0.000000e+00
-7.631969e-03
-2.081466e-02
-3.868279e-02
-6.057522e-02
-8.610051e-02
-1.150460e-01
-1.472771e-01
-1.826775e-01
-2.211312e-01
-2.625183e-01
-3.067138e-01
-3.535895e-01
-4.030147e-01
-4.548572e-01
-5.089844e-01
-5.652646e-01
-6.235681e-01
-6.837695e-01
-7.457506e-01
-8.094044e-01
-8.746412e-01
-9.413974e-01
-1.009648e+00
-1.079425e+00
-1.150840e+00
-1.224118e+00
-1.299619e+00
-1.377819e+00
-1.459103e+00
-1.543082e+00
-1.626673e+00
-1.702537e+00
0.000000e+00
-6.749079e-03
-1.898201e-02
-3.607641e-02
-5.747603e-02
-8.276221e-02
-1.116448e-01
-1.439172e-01
-1.794166e-01
-2.180000e-01
-2.595321e-01
-3.038809e-01
-3.509149e-01
-4.005028e-01
-4.525131e-01
-5.068145e-01
-5.632771e-01
-6.217730e-01
-6.821788e-01
-7.443783e-01
-8.082660e-01
-8.737526e-01
-9.407727e-01
-1.009294e+00
-1.079328e+00
-1.150944e+00
-1.224265e+00
-1.299453e+00
-1.376592e+00
-1.455424e+00
-1.534747e+00
-1.611726e+00
-1.682085e+00
0.000000e+00
-6.200372e-03
-1.782332e-02
-3.438220e-02
-5.539980e-02
-8.046809e-02
-1.092649e-01
-1.415413e-01
-1.770994e-01
-2.157724e-01
-2.574115e-01
-3.018773e-01
-3.490356e-01
-3.987543e-01
-4.509026e-01
-5.053509e-01
-5.619707e-01
-6.206363e-01
-6.812256e-01
-7.436230e-01
-8.077220e-01
-8.734301e-01
-9.406729e-01
-1.009400e+00
-1.079587e+00
-1.151235e+00
-1.224351e+00
-1.298894e+00
-1.374647e+00
-1.450995e+00
-1.526616e+00
-1.599331e+00
-1.666467e+00
0.000000e+00
-5.898850e-03
-1.718038e-02
-3.342748e-02
-5.420926e-02
-7.913178e-02
-1.078625e-01
-1.401318e-01
-1.757215e-01
-2.144500e-01
-2.561592e-01
-3.007049e-01
-3.479509e-01
-3.977652e-01
-4.500181e-01
-5.045812e-01
-5.613277e-01
-6.201329e-01
-6.808752e-01
-7.434376e-01
-8.077101e-01
-8.735918e-01
-9.409930e-01
-1.009836e+00
-1.080052e+00
-1.151568e+00
-1.224279e+00
-1.297988e+00
-1.372300e+00
-1.446484e+00
-1.519350e+00
-1.589257e+00
-1.654383e+00
0.000000e+00
-5.801701e-03
-1.697296e-02
-3.311805e-02
-5.382125e-02
-7.869442e-02
-1.074031e-01
-1.396719e-01
-1.752767e-01
-2.140310e-01
-2.557744e-01
-3.003616e-01
-3.476565e-01
-3.975281e-01
-4.498478e-01
-5.044887e-01
-5.613249e-01
-6.202322e-01
-6.810878e-01
-7.437720e-01
-8.081680e-01
-8.741631e-01
-9.416478e-01
-1.010513e+00
-1.080643e+00
-1.151897e+00
-1.224082e+00
-1.296902e+00
-1.369885e+00
-1.442312e+00
-1.513175e+00
-1.581223e+00
-1.645121e+00
0.000000e+00
-5.896040e-03
-1.717648e-02
-3.342413e-02
-5.420824e-02
-7.913534e-02
-1.078736e-01
-1.401543e-01
-1.757607e-01
-2.145125e-01
-2.562538e-01
-3.008425e-01
-3.481452e-01
-3.980325e-01
-4.503774e-01
-5.050541e-01
-5.619374e-01
-6.209025e-01
-6.818247e-01
-7.445795e-01
-8.090419e-01
-8.750852e-01
-9.425783e-01
-1.011381e+00
-1.081334e+00
-1.152243e+00
-1.223854e+00
-1.295819e+00
-1.367652e+00
-1.438700e+00
-1.508131e+00
-1.574977e+00
-1.638219e+00
0.000000e+00
-6.194980e-03
-1.781583e-02
-3.437573e-02
-5.539777e-02
-8.047478e-02
-1.092859e-01
-1.415842e-01
-1.771741e-01
-2.158919e-01
-2.575925e-01
-3.021410e-01
-3.494079e-01
-3.992666e-01
-4.515918e-01
-5.062584e-01
-5.631415e-01
-6.221150e-01
-6.830516e-01
-7.458212e-01
-8.102899e-01
-8.763166e-01
-9.437498e-01
-1.012421e+00
-1.082135e+00
-1.152659e+00
-1.223700e+00
-1.294890e+00
-1.365765e+00
-1.435750e+00
-1.504175e+00
-1.570292e+00
-1.633319e+00
0.000000e+00
-6.741583e-03
-1.897161e-02
-3.606736e-02
-5.747310e-02
-8.277138e-02
-1.116739e-01
-1.439768e-01
-1.795207e-01
-2.181666e-01
-2.597848e-01
-3.042491e-01
-3.514353e-01
-4.012194e-01
-4.534775e-01
-5.080852e-01
-5.649172e-01
-6.238461e-01
-6.847415e-01
-7.474679e-01
-8.118826e-01
-8.778319e-01
-9.451462e-01
-1.013634e+00
-1.083073e+00
-1.153202e+00
-1.223710e+00
-1.294225e+00
-1.364316e+00
-1.433492e+00
-1.501222e+00
-1.566950e+00
-1.630107e+00
0.000000e+00
-7.623140e-03
-2.080242e-02
-3.867214e-02
-6.057183e-02
-8.611160e-02
-1.150812e-01
-1.473491e-01
-1.828031e-01
-2.213325e-01
-2.628236e-01
-3.071590e-01
-3.542188e-01
-4.038815e-01
-4.560241e-01
-5.105225e-01
-5.672507e-01
-6.260798e-01
-6.868766e-01
-7.495009e-01
-8.138028e-01
-8.796180e-01
-9.467631e-01
-1.015029e+00
-1.084175e+00
-1.153922e+00
-1.223948e+00
-1.293889e+00
-1.363347e+00
-1.431906e+00
-1.499160e+00
-1.564731e+00
-1.628269e+00
0.000000e+00
-9.010412e-03
-2.359524e-02
-4.245944e-02
-6.487049e-02
-9.058017e-02
-1.195414e-01
-1.517088e-01
-1.870179e-01
-2.253825e-01
-2.667015e-01
-3.108638e-01
-3.577526e-01
-4.072476e-01
-4.592264e-01
-5.135646e-01
-5.701355e-01
-6.288089e-01
-6.894492e-01
-7.519127e-01
-8.160439e-01
-8.816715e-01
-9.486023e-01
-1.016616e+00
-1.085460e+00
-1.154846e+00
-1.224447e+00
-1.293908e+00
-1.362859e+00
-1.430945e+00
-1.497864e+00
-1.563407e+00
-1.627468e+00
0.000000e+00
-1.125578e-02
-2.786789e-02
-4.779473e-02
-7.049778e-02
-9.621624e-02
-1.250555e-01
-1.570459e-01
-1.921537e-01
-2.303072e-01
-2.714118e-01
-3.153595e-01
-3.620348e-01
-4.113178e-01
-4.630857e-01
-5.172139e-01
-5.735749e-01
-6.320371e-01
-6.924634e-01
-7.547076e-01
-8.186109e-01
-8.839976e-01
-9.506694e-01
-1.018400e+00
-1.086932e+00
-1.155973e+00
-1.225197e+00
-1.294257e+00
-1.362804e+00
-1.430524e+00
-1.497192e+00
-1.562741e+00
-1.627328e+00
0.000000e+00
-1.532890e-02
-3.457334e-02
-5.477599e-02
-7.743990e-02
-1.029710e-01
-1.315853e-01
-1.633348e-01
-1.981955e-01
-2.360990e-01
-2.769522e-01
-3.206476e-01
-3.670697e-01
-4.160986e-01
-4.676110e-01
-5.214817e-01
-5.775822e-01
-6.357800e-01
-6.959366e-01
-7.579042e-01
-8.215221e-01
-8.866128e-01
-9.529761e-01
-1.020385e+00
-1.088581e+00
-1.157274e+00
-1.226144e+00
-1.294854e+00
-1.363071e+00
-1.430504e+00
-1.496973e+00
-1.562500e+00
-1.627447e+00
0.000000e+00
-2.467333e-02
-4.305904e-02
-6.312719e-02
-8.548056e-02
-1.107384e-01
-1.390786e-01
-1.705538e-01
-2.051371e-01
-2.427597e-01
-2.833287e-01
-3.267367e-01
-3.728685e-01
-4.216039e-01
-4.728193e-01
-5.263885e-01
-5.821823e-01
-6.400668e-01
-6.999020e-01
-7.615385e-01
-8.248143e-01
-8.895507e-01
-9.555473e-01