TITLE = "Solution"
VARIABLES = x, y, u, v, psiu, psiv, t, stress
ZONE T="structure" N=561 E=512 F=FEBLOCK ET=QUADRILATERAL VARLOCATION=([7,8]=cellcentered)
0.000000e+00
6.250000e+00
1.250000e+01
1.875000e+01
2.500000e+01
3.125000e+01
3.750000e+01
4.375000e+01
5.000000e+01
5.625000e+01
6.250000e+01
6.875000e+01
7.500000e+01
8.125000e+01
8.750000e+01
9.375000e+01
1.000000e+02
1.062500e+02
1.125000e+02
1.187500e+02
1.250000e+02
1.312500e+02
1.375000e+02
1.437500e+02
1.500000e+02
1.562500e+02
1.625000e+02
1.687500e+02
1.750000e+02
1.812500e+02
1.875000e+02
1.937500e+02
2.000000e+02
0.000000e+00
6.250000e+00
1.250000e+01
1.875000e+01
2.500000e+01
3.125000e+01
3.750000e+01
4.375000e+01
5.000000e+01
5.625000e+01
6.250000e+01
6.875000e+01
7.500000e+01
8.125000e+01
8.750000e+01
9.375000e+01
1.000000e+02
1.062500e+02
1.125000e+02
1.187500e+02
1.250000e+02
1.312500e+02
1.375000e+02
1.437500e+02
1.500000e+02
1.562500e+02
1.625000e+02
1.687500e+02
1.750000e+02
1.812500e+02
1.875000e+02
1.937500e+02
2.000000e+02
0.000000e+00
6.250000e+00
1.250000e+01
1.875000e+01
2.500000e+01
3.125000e+01
3.750000e+01
4.375000e+01
5.000000e+01
5.625000e+01
6.250000e+01
6.875000e+01
7.500000e+01
8.125000e+01
8.750000e+01
9.375000e+01
1.000000e+02
1.062500e+02
1.125000e+02
1.187500e+02
1.250000e+02
1.312500e+02
1.375000e+02
1.437500e+02
1.500000e+02
1.562500e+02
1.625000e+02
1.687500e+02
1.750000e+02
1.812500e+02
1.875000e+02
1.937500e+02
2.000000e+02
0.000000e+00
6.250000e+00
1.250000e+01
1.875000e+01
2.500000e+01
3.125000e+01
3.750000e+01
4.375000e+01
5.000000e+01
5.625000e+01
6.250000e+01
6.875000e+01
7.500000e+01
8.125000e+01
8.750000e+01
9.375000e+01
1.000000e+02
1.062500e+02
1.125000e+02
1.187500e+02
1.250000e+02
1.312500e+02
1.375000e+02
1.437500e+02
1.500000e+02
1.562500e+02
1.625000e+02
1.687500e+02
1.750000e+02
1.812500e+02
1.875000e+02
1.937500e+02
2.000000e+02
0.000000e+00
6.250000e+00
1.250000e+01
1.875000e+01
2.500000e+01
3.125000e+01
3.750000e+01
4.375000e+01
5.000000e+01
5.625000e+01
6.250000e+01
6.875000e+01
7.500000e+01
8.125000e+01
8.750000e+01
9.375000e+01
1.000000e+02
1.062500e+02
1.125000e+02
1.187500e+02
1.250000e+02
1.312500e+02
1.375000e+02
1.437500e+02
1.500000e+02
1.562500e+02
1.625000e+02
1.687500e+02
1.750000e+02
1.812500e+02
1.875000e+02
1.937500e+02
2.000000e+02
0.000000e+00
6.250000e+00
1.250000e+01
1.875000e+01
2.500000e+01
3.125000e+01
3.750000e+01
4.375000e+01
5.000000e+01
5.625000e+01
6.250000e+01
6.875000e+01
7.500000e+01
8.125000e+01
8.750000e+01
9.375000e+01
1.000000e+02
1.062500e+02
1.125000e+02
1.187500e+02
1.250000e+02
1.312500e+02
1.375000e+02
1.437500e+02
1.500000e+02
1.562500e+02
1.625000e+02
1.687500e+02
1.750000e+02
1.812500e+02
1.875000e+02
1.937500e+02
2.000000e+02
0.000000e+00
6.250000e+00
1.250000e+01
1.875000e+01
2.500000e+01
3.125000e+01
3.750000e+01
4.375000e+01
5.000000e+01
5.625000e+01
6.250000e+01
6.875000e+01
7.500000e+01
8.125000e+01
8.750000e+01
9.375000e+01
1.000000e+02
1.062500e+02
1.125000e+02
1.187500e+02
1.250000e+02
1.312500e+02
1.375000e+02
1.437500e+02
1.500000e+02
1.562500e+02
1.625000e+02
1.687500e+02
1.750000e+02
1.812500e+02
1.875000e+02
1.937500e+02
2.000000e+02
0.000000e+00
6.250000e+00
1.250000e+01
1.875000e+01
2.500000e+01
3.125000e+01
3.750000e+01
4.375000e+01
5.000000e+01
5.625000e+01
6.250000e+01
6.875000e+01
7.500000e+01
8.125000e+01
8.750000e+01
9.375000e+01
1.000000e+02
1.062500e+02
1.125000e+02
1.187500e+02
1.250000e+02
1.312500e+02
1.375000e+02
1.437500e+02
1.500000e+02
1.562500e+02
1.625000e+02
1.687500e+02
1.750000e+02
1.812500e+02
1.875000e+02
1.937500e+02
2.000000e+02
0.000000e+00
6.250000e+00
1.250000e+01
1.875000e+01
2.500000e+01
3.125000e+01
3.750000e+01
4.375000e+01
5.000000e+01
5.625000e+01
6.250000e+01
6.875000e+01
7.500000e+01
8.125000e+01
8.750000e+01
9.375000e+01
1.000000e+02
1.062500e+02
1.125000e+02
1.187500e+02
1.250000e+02
1.312500e+02
1.375000e+02
1.437500e+02
1.500000e+02
1.562500e+02
1.625000e+02
1.687500e+02
1.750000e+02
1.812500e+02
1.875000e+02
1.937500e+02
2.000000e+02
0.000000e+00
6.250000e+00
1.250000e+01
1.875000e+01
2.500000e+01
3.125000e+01
3.750000e+01
4.375000e+01
5.000000e+01
5.625000e+01
6.250000e+01
6.875000e+01
7.500000e+01
8.125000e+01
8.750000e+01
9.375000e+01
1.000000e+02
1.062500e+02
1.125000e+02
1.187500e+02
1.250000e+02
1.312500e+02
1.375000e+02
1.437500e+02
1.500000e+02
1.562500e+02
1.625000e+02
1.687500e+02
1.750000e+02
1.812500e+02
1.875000e+02
1.937500e+02
2.000000e+02
0.000000e+00
6.250000e+00
1.250000e+01
1.875000e+01
2.500000e+01
3.125000e+01
3.750000e+01
4.375000e+01
5.000000e+01
5.625000e+01
6.250000e+01
6.875000e+01
7.500000e+01
8.125000e+01
8.750000e+01
9.375000e+01
1.000000e+02
1.062500e+02
1.125000e+02
1.187500e+02
1.250000e+02
1.312500e+02
1.375000e+02
1.437500e+02
1.500000e+02
1.562500e+02
1.625000e+02
1.687500e+02
1.750000e+02
1.812500e+02
1.875000e+02
1.937500e+02
2.000000e+02
0.000000e+00
6.250000e+00
1.250000e+01
1.875000e+01
2.500000e+01
3.125000e+01
3.750000e+01
4.375000e+01
5.000000e+01
5.625000e+01
6.250000e+01
6.875000e+01
7.500000e+01
8.125000e+01
8.750000e+01
9.375000e+01
1.000000e+02
1.062500e+02
1.125000e+02
1.187500e+02
1.250000e+02
1.312500e+02
1.375000e+02
1.437500e+02
1.500000e+02
1.562500e+02
1.625000e+02
1.687500e+02
1.750000e+02
1.812500e+02
1.875000e+02
1.937500e+02
2.000000e+02
0.000000e+00
6.250000e+00
1.250000e+01
1.875000e+01
2.500000e+01
3.125000e+01
3.750000e+01
4.375000e+01
5.000000e+01
5.625000e+01
6.250000e+01
6.875000e+01
7.500000e+01
8.125000e+01
8.750000e+01
9.375000e+01
1.000000e+02
1.062500e+02
1.125000e+02
1.187500e+02
1.250000e+02
1.312500e+02
1.375000e+02
1.437500e+02
1.500000e+02
1.562500e+02
1.625000e+02
1.687500e+02
1.750000e+02
1.812500e+02
1.875000e+02
1.937500e+02
2.000000e+02
0.000000e+00
6.250000e+00
1.250000e+01
1.875000e+01
2.500000e+01
3.125000e+01
3.750000e+01
4.375000e+01
5.000000e+01
5.625000e+01
6.250000e+01
6.875000e+01
7.500000e+01
8.125000e+01
8.750000e+01
9.375000e+01
1.000000e+02
1.062500e+02
1.125000e+02
1.187500e+02
1.250000e+02
1.312500e+02
1.375000e+02
1.437500e+02
1.500000e+02
1.562500e+02
1.625000e+02
1.687500e+02
1.750000e+02
1.812500e+02
1.875000e+02
1.937500e+02
2.000000e+02
0.000000e+00
6.250000e+00
1.250000e+01
1.875000e+01
2.500000e+01
3.125000e+01
3.750000e+01
4.375000e+01
5.000000e+01
5.625000e+01
6.250000e+01
6.875000e+01
7.500000e+01
8.125000e+01
8.750000e+01
9.375000e+01
1.000000e+02
1.062500e+02
1.125000e+02
1.187500e+02
1.250000e+02
1.312500e+02
1.375000e+02
1.437500e+02
1.500000e+02
1.562500e+02
1.625000e+02
1.687500e+02
1.750000e+02
1.812500e+02
1.875000e+02
1.937500e+02
2.000000e+02
0.000000e+00
6.250000e+00
1.250000e+01
1.875000e+01
2.500000e+01
3.125000e+01
3.750000e+01
4.375000e+01
5.000000e+01
5.625000e+01
6.250000e+01
6.875000e+01
7.500000e+01
8.125000e+01
8.750000e+01
9.375000e+01
1.000000e+02
1.062500e+02
1.125000e+02
1.187500e+02
1.250000e+02
1.312500e+02
1.375000e+02
1.437500e+02
1.500000e+02
1.562500e+02
1.625000e+02
1.687500e+02
1.750000e+02
1.812500e+02
1.875000e+02
1.937500e+02
2.000000e+02
0.000000e+00
6.250000e+00
1.250000e+01
1.875000e+01
2.500000e+01
3.125000e+01
3.750000e+01
4.375000e+01
5.000000e+01
5.625000e+01
6.250000e+01
6.875000e+01
7.500000e+01
8.125000e+01
8.750000e+01
9.375000e+01
1.000000e+02
1.062500e+02
1.125000e+02
1.187500e+02
1.250000e+02
1.312500e+02
1.375000e+02
1.437500e+02
1.500000e+02
1.562500e+02
1.625000e+02
1.687500e+02
1.750000e+02
1.812500e+02
1.875000e+02
1.937500e+02
2.000000e+02
0.000000e+00
0.000000e+00
0.000000e+00
0.000000e+00
0.000000e+00
0.000000e+00
0.000000e+00
0.000000e+00
0.000000e+00
0.000000e+00
0.000000e+00
0.000000e+00
0.000000e+00
0.000000e+00
0.000000e+00
0.000000e+00
0.000000e+00
0.000000e+00
0.000000e+00
0.000000e+00
0.000000e+00
0.000000e+00
0.000000e+00
0.000000e+00
0.000000e+00
0.000000e+00
0.000000e+00
0.000000e+00
0.000000e+00
0.000000e+00
0.000000e+00
0.000000e+00
0.000000e+00
6.250000e+00
6.250000e+00
6.250000e+00
6.250000e+00
6.250000e+00
6.250000e+00
6.250000e+00
6.250000e+00
6.250000e+00
6.250000e+00
6.250000e+00
6.250000e+00
6.250000e+00
6.250000e+00
6.250000e+00
6.250000e+00
6.250000e+00
6.250000e+00
6.250000e+00
6.250000e+00
6.250000e+00
6.250000e+00
6.250000e+00
6.250000e+00
6.250000e+00
6.250000e+00
6.250000e+00
6.250000e+00
6.250000e+00
6.250000e+00
6.250000e+00
6.250000e+00
6.250000e+00
1.250000e+01
1.250000e+01
1.250000e+01
1.250000e+01
1.250000e+01
1.250000e+01
1.250000e+01
1.250000e+01
1.250000e+01
1.250000e+01
1.250000e+01
1.250000e+01
1.250000e+01
1.250000e+01
1.250000e+01
1.250000e+01
1.250000e+01
1.250000e+01
1.250000e+01
1.250000e+01
1.250000e+01
1.250000e+01
1.250000e+01
1.250000e+01
1.250000e+01
1.250000e+01
1.250000e+01
1.250000e+01
1.250000e+01
1.250000e+01
1.250000e+01
1.250000e+01
1.250000e+01
1.875000e+01
1.875000e+01
1.875000e+01
1.875000e+01
1.875000e+01
1.875000e+01
1.875000e+01
1.875000e+01
1.875000e+01
1.875000e+01
1.875000e+01
1.875000e+01
1.875000e+01
1.875000e+01
1.875000e+01
1.875000e+01
1.875000e+01
1.875000e+01
1.875000e+01
1.875000e+01
1.875000e+01
1.875000e+01
1.875000e+01
1.875000e+01
1.875000e+01
1.875000e+01
1.875000e+01
1.875000e+01
1.875000e+01
1.875000e+01
1.875000e+01
1.875000e+01
1.875000e+01
2.500000e+01
2.500000e+01
2.500000e+01
2.500000e+01
2.500000e+01
2.500000e+01
2.500000e+01
2.500000e+01
2.500000e+01
2.500000e+01
2.500000e+01
2.500000e+01
2.500000e+01
2.500000e+01
2.500000e+01
2.500000e+01
2.500000e+01
2.500000e+01
2.500000e+01
2.500000e+01
2.500000e+01
2.500000e+01
2.500000e+01
2.500000e+01
2.500000e+01
2.500000e+01
2.500000e+01
2.500000e+01
2.500000e+01
2.500000e+01
2.500000e+01
2.500000e+01
2.500000e+01
3.125000e+01
3.125000e+01
3.125000e+01
3.125000e+01
3.125000e+01
3.125000e+01
3.125000e+01
3.125000e+01
3.125000e+01
3.125000e+01
3.125000e+01
3.125000e+01
3.125000e+01
3.125000e+01
3.125000e+01
3.125000e+01
3.125000e+01
3.125000e+01
3.125000e+01
3.125000e+01
3.125000e+01
3.125000e+01
3.125000e+01
3.125000e+01
3.125000e+01
3.125000e+01
3.125000e+01
3.125000e+01
3.125000e+01
3.125000e+01
3.125000e+01
3.125000e+01
3.125000e+01
3.750000e+01
3.750000e+01
3.750000e+01
3.750000e+01
3.750000e+01
3.750000e+01
3.750000e+01
3.750000e+01
3.750000e+01
3.750000e+01
3.750000e+01
3.750000e+01
3.750000e+01
3.750000e+01
3.750000e+01
3.750000e+01
3.750000e+01
3.750000e+01
3.750000e+01
3.750000e+01
3.750000e+01
3.750000e+01
3.750000e+01
3.750000e+01
3.750000e+01
3.750000e+01
3.750000e+01
3.750000e+01
3.750000e+01
3.750000e+01
3.750000e+01
3.750000e+01
3.750000e+01
4.375000e+01
4.375000e+01
4.375000e+01
4.375000e+01
4.375000e+01
4.375000e+01
4.375000e+01
4.375000e+01
4.375000e+01
4.375000e+01
4.375000e+01
4.375000e+01
4.375000e+01
4.375000e+01
4.375000e+01
4.375000e+01
4.375000e+01
4.375000e+01
4.375000e+01
4.375000e+01
4.375000e+01
4.375000e+01
4.375000e+01
4.375000e+01
4.375000e+01
4.375000e+01
4.375000e+01
4.375000e+01
4.375000e+01
4.375000e+01
4.375000e+01
4.375000e+01
4.375000e+01
5.000000e+01
5.000000e+01
5.000000e+01
5.000000e+01
5.000000e+01
5.000000e+01
5.000000e+01
5.000000e+01
5.000000e+01
5.000000e+01
5.000000e+01
5.000000e+01
5.000000e+01
5.000000e+01
5.000000e+01
5.000000e+01
5.000000e+01
5.000000e+01
5.000000e+01
5.000000e+01
5.000000e+01
5.000000e+01
5.000000e+01
5.000000e+01
5.000000e+01
5.000000e+01
5.000000e+01
5.000000e+01
5.000000e+01
5.000000e+01
5.000000e+01
5.000000e+01
5.000000e+01
5.625000e+01
5.625000e+01
5.625000e+01
5.625000e+01
5.625000e+01
5.625000e+01
5.625000e+01
5.625000e+01
5.625000e+01
5.625000e+01
5.625000e+01
5.625000e+01
5.625000e+01
5.625000e+01
5.625000e+01
5.625000e+01
5.625000e+01
5.625000e+01
5.625000e+01
5.625000e+01
5.625000e+01
5.625000e+01
5.625000e+01
5.625000e+01
5.625000e+01
5.625000e+01
5.625000e+01
5.625000e+01
5.625000e+01
5.625000e+01
5.625000e+01
5.625000e+01
5.625000e+01
6.250000e+01
6.250000e+01
6.250000e+01
6.250000e+01
6.250000e+01
6.250000e+01
6.250000e+01
6.250000e+01
6.250000e+01
6.250000e+01
6.250000e+01
6.250000e+01
6.250000e+01
6.250000e+01
6.250000e+01
6.250000e+01
6.250000e+01
6.250000e+01
6.250000e+01
6.250000e+01
6.250000e+01
6.250000e+01
6.250000e+01
6.250000e+01
6.250000e+01
6.250000e+01
6.250000e+01
6.250000e+01
6.250000e+01
6.250000e+01
6.250000e+01
6.250000e+01
6.250000e+01
6.875000e+01
6.875000e+01
6.875000e+01
6.875000e+01
6.875000e+01
6.875000e+01
6.875000e+01
6.875000e+01
6.875000e+01
6.875000e+01
6.875000e+01
6.875000e+01
6.875000e+01
6.875000e+01
6.875000e+01
6.875000e+01
6.875000e+01
6.875000e+01
6.875000e+01
6.875000e+01
6.875000e+01
6.875000e+01
6.875000e+01
6.875000e+01
6.875000e+01
6.875000e+01
6.875000e+01
6.875000e+01
6.875000e+01
6.875000e+01
6.875000e+01
6.875000e+01
6.875000e+01
7.500000e+01
7.500000e+01
7.500000e+01
7.500000e+01
7.500000e+01
7.500000e+01
7.500000e+01
7.500000e+01
7.500000e+01
7.500000e+01
7.500000e+01
7.500000e+01
7.500000e+01
7.500000e+01
7.500000e+01
7.500000e+01
7.500000e+01
7.500000e+01
7.500000e+01
7.500000e+01
7.500000e+01
7.500000e+01
7.500000e+01
7.500000e+01
7.500000e+01
7.500000e+01
7.500000e+01
7.500000e+01
7.500000e+01
7.500000e+01
7.500000e+01
7.500000e+01
7.500000e+01
8.125000e+01
8.125000e+01
8.125000e+01
8.125000e+01
8.125000e+01
8.125000e+01
8.125000e+01
8.125000e+01
8.125000e+01
8.125000e+01
8.125000e+01
8.125000e+01
8.125000e+01
8.125000e+01
8.125000e+01
8.125000e+01
8.125000e+01
8.125000e+01
8.125000e+01
8.125000e+01
8.125000e+01
8.125000e+01
8.125000e+01
8.125000e+01
8.125000e+01
8.125000e+01
8.125000e+01
8.125000e+01
8.125000e+01
8.125000e+01
8.125000e+01
8.125000e+01
8.125000e+01
8.750000e+01
8.750000e+01
8.750000e+01
8.750000e+01
8.750000e+01
8.750000e+01
8.750000e+01
8.750000e+01
8.750000e+01
8.750000e+01
8.750000e+01
8.750000e+01
8.750000e+01
8.750000e+01
8.750000e+01
8.750000e+01
8.750000e+01
8.750000e+01
8.750000e+01
8.750000e+01
8.750000e+01
8.750000e+01
8.750000e+01
8.750000e+01
8.750000e+01
8.750000e+01
8.750000e+01
8.750000e+01
8.750000e+01
8.750000e+01
8.750000e+01
8.750000e+01
8.750000e+01
9.375000e+01
9.375000e+01
9.375000e+01
9.375000e+01
9.375000e+01
9.375000e+01
9.375000e+01
9.375000e+01
9.375000e+01
9.375000e+01
9.375000e+01
9.375000e+01
9.375000e+01
9.375000e+01
9.375000e+01
9.375000e+01
9.375000e+01
9.375000e+01
9.375000e+01
9.375000e+01
9.375000e+01
9.375000e+01
9.375000e+01
9.375000e+01
9.375000e+01
9.375000e+01
9.375000e+01
9.375000e+01
9.375000e+01
9.375000e+01
9.375000e+01
9.375000e+01
9.375000e+01
1.000000e+02
1.000000e+02
1.000000e+02
1.000000e+02
1.000000e+02
1.000000e+02
1.000000e+02
1.000000e+02
1.000000e+02
1.000000e+02
1.000000e+02
1.000000e+02
1.000000e+02
1.000000e+02
1.000000e+02
1.000000e+02
1.000000e+02
1.000000e+02
1.000000e+02
1.000000e+02
1.000000e+02
1.000000e+02
1.000000e+02
1.000000e+02
1.000000e+02
1.000000e+02
1.000000e+02
1.000000e+02
1.000000e+02
1.000000e+02
1.000000e+02
1.000000e+02
1.000000e+02
0.000000e+00
-3.975188e-02
-7.212450e-02
-1.021132e-01
-1.308938e-01
-1.586859e-01
-1.855452e-01
-2.114694e-01
-2.364421e-01
-2.604452e-01
-2.834636e-01
-3.054869e-01
-3.265098e-01
-3.465319e-01
-3.655577e-01
-3.835974e-01
-4.006671e-01
-4.167902e-01
-4.319992e-01
-4.463379e-01
-4.598645e-01
-4.726562e-01
-4.848148e-01
-4.964756e-01
-5.078196e-01
-5.190931e-01
-5.306378e-01
-5.429413e-01
-5.567188e-01
-5.730229e-01
-5.932187e-01
-6.172866e-01
-6.319749e-01
0.000000e+00
-2.665257e-02
-5.545353e-02
-8.260903e-02
-1.084193e-01
-1.331300e-01
-1.568719e-01
-1.797019e-01
-2.016430e-01
-2.227024e-01
-2.428815e-01
-2.621804e-01
-2.806001e-01
-2.981434e-01
-3.148161e-01
-3.306277e-01
-3.455915e-01
-3.597260e-01
-3.730557e-01
-3.856124e-01
-3.974367e-01
-4.085798e-01
-4.191050e-01
-4.290901e-01
-4.386279e-01
-4.478251e-01
-4.567945e-01
-4.656288e-01
-4.743274e-01
-4.826073e-01
-4.895067e-01
-4.935405e-01
-4.991561e-01
0.000000e+00
-2.114088e-02
-4.352359e-02
-6.631274e-02
-8.845674e-02
-1.097847e-01
-1.302830e-01
-1.499710e-01
-1.688662e-01
-1.869804e-01
-2.043214e-01
-2.208945e-01
-2.367044e-01
-2.517558e-01
-2.660541e-01
-2.796063e-01
-2.924214e-01
-3.045102e-01
-3.158863e-01
-3.265661e-01
-3.365681e-01
-3.459127e-01
-3.546197e-01
-3.627045e-01
-3.701704e-01
-3.769935e-01
-3.830955e-01
-3.882971e-01
-3.922463e-01
-3.943728e-01
-3.941864e-01
-3.929923e-01
-3.995498e-01
0.000000e+00
-1.677341e-02
-3.447319e-02
-5.265750e-02
-7.079919e-02
-8.850145e-02
-1.056127e-01
-1.220785e-01
-1.378842e-01
-1.530291e-01
-1.675172e-01
-1.813532e-01
-1.945419e-01
-2.070874e-01
-2.189934e-01
-2.302632e-01
-2.409000e-01
-2.509065e-01
-2.602847e-01
-2.690352e-01
-2.771557e-01
-2.846387e-01
-2.914678e-01
-2.976111e-01
-3.030119e-01
-3.075748e-01
-3.111489e-01
-3.135157e-01
-3.144194e-01
-3.137485e-01
-3.121192e-01
-3.120219e-01
-3.182696e-01
0.000000e+00
-1.301851e-02
-2.665747e-02
-4.073212e-02
-5.492111e-02
-6.893607e-02
-8.258363e-02
-9.576588e-02
-1.084383e-01
-1.205838e-01
-1.321979e-01
-1.432811e-01
-1.538357e-01
-1.638632e-01
-1.733645e-01
-1.823386e-01
-1.907828e-01
-1.986920e-01
-2.060580e-01
-2.128684e-01
-2.191050e-01
-2.247411e-01
-2.297381e-01
-2.340412e-01
-2.375743e-01
-2.402374e-01
-2.419132e-01
-2.425011e-01
-2.420188e-01
-2.408387e-01
-2.400732e-01
-2.418411e-01
-2.471707e-01
0.000000e+00
-9.567848e-03
-1.954562e-02
-2.984394e-02
-4.028488e-02
-5.067353e-02
-6.085517e-02
-7.072921e-02
-8.024048e-02
-8.936210e-02
-9.808278e-02
-1.063985e-01
-1.143078e-01
-1.218094e-01
-1.289004e-01
-1.355757e-01
-1.418274e-01
-1.476440e-01
-1.530100e-01
-1.579042e-01
-1.622991e-01
-1.661590e-01
-1.694389e-01
-1.720837e-01
-1.740307e-01
-1.752188e-01
-1.756129e-01
-1.752592e-01
-1.743874e-01
-1.735580e-01
-1.737599e-01
-1.760137e-01
-1.804236e-01
0.000000e+00
-6.296794e-03
-1.284266e-02
-1.959617e-02
-2.646103e-02
-3.332169e-02
-4.007468e-02
-4.664458e-02
-5.298419e-02
-5.906748e-02
-6.488129e-02
-7.041899e-02
-7.567635e-02
-8.064899e-02
-8.533091e-02
-8.971355e-02
-9.378508e-02
-9.752985e-02
-1.009278e-01
-1.039538e-01
-1.065776e-01
-1.087635e-01
-1.104718e-01
-1.116623e-01
-1.123019e-01
-1.123813e-01
-1.119440e-01
-1.111347e-01
-1.102614e-01
-1.098381e-01
-1.104986e-01
-1.126928e-01
-1.162526e-01
0.000000e+00
-3.127616e-03
-6.373473e-03
-9.720890e-03
-1.312759e-02
-1.653975e-02
-1.990628e-02
-2.318717e-02
-2.635540e-02
-2.939448e-02
-3.229462e-02
-3.504935e-02
-3.765303e-02
-4.009921e-02
-4.237955e-02
-4.448311e-02
-4.639576e-02
-4.809985e-02
-4.957397e-02
-5.079299e-02
-5.172876e-02
-5.235164e-02
-5.263380e-02
-5.255532e-02
-5.211465e-02
-5.134543e-02
-5.034075e-02
-4.928215e-02
-4.846036e-02
-4.825450e-02
-4.902937e-02
-5.094360e-02
-5.376814e-02
0.000000e+00
-5.046094e-06
-1.094137e-05
-1.735924e-05
-2.396213e-05
-3.029486e-05
-3.567145e-05
-3.904949e-05
-3.888325e-05
-3.294693e-05
-1.812131e-05
9.860118e-06
5.670484e-05
1.298887e-04
2.390009e-04
3.960772e-04
6.158696e-04
9.159679e-04
1.316644e-03
1.840214e-03
2.509624e-03
3.345814e-03
4.363292e-03
5.563159e-03
6.922940e-03
8.383069e-03
9.831755e-03
1.109390e-02
1.193643e-02
1.210729e-02
1.141932e-02
9.861300e-03
7.679201e-03
0.000000e+00
3.118111e-03
6.352823e-03
9.688061e-03
1.308217e-02
1.648216e-02
1.983821e-02
2.311227e-02
2.628019e-02
2.932963e-02
3.225666e-02
3.506283e-02
3.775321e-02
4.033544e-02
4.281928e-02
4.521651e-02
4.754100e-02
4.980851e-02
5.203635e-02
5.424231e-02
5.644288e-02
5.865018e-02
6.086735e-02
6.308208e-02
6.525837e-02
6.732755e-02
6.918130e-02
7.067227e-02
7.163027e-02
7.190149e-02
7.141028e-02
7.022673e-02
6.860718e-02
0.000000e+00
6.289030e-03
1.282567e-02
1.956897e-02
2.642311e-02
3.327316e-02
4.001665e-02
4.657970e-02
5.291741e-02
5.900707e-02
6.484025e-02
7.041682e-02
7.574128e-02
8.082082e-02
8.566434e-02
9.028217e-02
9.468586e-02
9.888798e-02
1.029016e-01
1.067390e-01
1.104104e-01
1.139202e-01
1.172637e-01
1.204217e-01
1.233544e-01
1.259969e-01
1.282571e-01
1.300224e-01
1.311778e-01
1.316398e-01
1.314023e-01
1.305833e-01
1.294530e-01
0.000000e+00
9.562895e-03
1.953458e-02
2.982598e-02
4.025937e-02
5.064023e-02
6.081442e-02
7.068231e-02
8.019013e-02
8.931313e-02
9.804300e-02
1.063799e-01
1.143281e-01
1.218938e-01
1.290842e-01
1.359068e-01
1.423696e-01
1.484810e-01
1.542487e-01
1.596794e-01
1.647768e-01
1.695399e-01
1.739593e-01
1.780143e-01
1.816690e-01
1.848702e-01
1.875491e-01
1.896282e-01
1.910381e-01
1.917446e-01
1.917844e-01
1.913039e-01
1.905896e-01
0.000000e+00
1.301728e-02
2.665439e-02
4.072661e-02
5.491260e-02
6.892407e-02
8.256784e-02
9.574626e-02
1.084153e-01
1.205583e-01
1.321719e-01
1.432581e-01
1.538208e-01
1.638644e-01
1.733933e-01
1.824111e-01
1.909215e-01
1.989271e-01
2.064299e-01
2.134302e-01
2.199260e-01
2.259112e-01
2.313743e-01
2.362965e-01
2.406501e-01
2.443986e-01
2.474991e-01
2.499087e-01
2.515974e-01
2.525676e-01
2.528823e-01
2.527020e-01
2.523256e-01
0.000000e+00
1.677653e-02
3.447952e-02
5.266692e-02
7.081144e-02
8.851617e-02
1.056294e-01
1.220963e-01
1.379018e-01
1.530443e-01
1.675267e-01
1.813523e-01
1.945236e-01
2.070421e-01
2.189081e-01
2.301205e-01
2.406774e-01
2.505751e-01
2.598089e-01
2.683721e-01
2.762563e-01
2.834502e-01
2.899404e-01
2.957103e-01
3.007417e-01
3.050156e-01
3.085161e-01
3.112351e-01
3.131812e-01
3.143906e-01
3.149469e-01
3.150132e-01
3.148883e-01
0.000000e+00
2.114849e-02
4.353983e-02
6.633817e-02
8.849185e-02
1.098299e-01
1.303383e-01
1.500359e-01
1.689387e-01
1.870569e-01
2.043953e-01
2.209553e-01
2.367357e-01
2.517335e-01
2.659442e-01
2.793612e-01
2.919762e-01
3.037791e-01
3.147572e-01
3.248960e-01
3.341788e-01
3.425877e-01
3.501042e-01
3.567115e-01
3.623972e-01
3.671569e-01
3.709992e-01
3.739512e-01
3.760640e-01
3.774171e-01
3.781254e-01
3.783561e-01
3.783836e-01
0.000000e+00
2.666398e-02
5.547848e-02
8.264916e-02
1.084766e-01
1.332064e-01
1.569690e-01
1.798208e-01
2.017831e-01
2.228609e-01
2.430519e-01
2.623506e-01
2.807496e-01
2.982406e-01
3.148136e-01
3.304568e-01
3.451559e-01
3.588937e-01
3.716494e-01
3.833992e-01
3.941158e-01
4.037703e-01
4.123344e-01
4.197834e-01
4.261018e-01
4.312901e-01
4.353727e-01
4.384071e-01
4.404916e-01
4.417688e-01
4.424214e-01
4.426580e-01
4.427159e-01
0.000000e+00
3.976438e-02
7.215367e-02
1.021631e-01
1.309686e-01
1.587896e-01
1.856821e-01
2.116434e-01
2.366564e-01
2.607011e-01
2.837589e-01
3.058139e-01
3.268518e-01
3.468592e-01
3.658221e-01
3.837248e-01
4.005481e-01
4.162686e-01
4.308577e-01
4.442807e-01
4.564972e-01
4.674623e-01
4.771289e-01
4.854527e-01
4.923993e-01
4.979547e-01
5.021387e-01
5.050210e-01
5.067390e-01
5.075131e-01
5.076538e-01
5.075373e-01
5.074717e-01
0.000000e+00
-2.456590e-02
-4.287280e-02
-6.285003e-02
-8.509587e-02
-1.102248e-01
-1.384113e-01
-1.697046e-01
-2.040734e-01
-2.414440e-01
-2.817174e-01
-3.247796e-01
-3.705078e-01
-4.187740e-01
-4.694477e-01
-5.223974e-01
-5.774925e-01
-6.346045e-01
-6.936094e-01
-7.543905e-01
-8.168418e-01
-8.808745e-01
-9.464249e-01
-1.013468e+00
-1.082037e+00
-1.152258e+00
-1.224412e+00
-1.299042e+00
-1.377191e+00
-1.460921e+00
-1.554683e+00
-1.668980e+00
-1.826883e+00
0.000000e+00
-1.526677e-02
-3.442927e-02
-5.454126e-02
-7.709717e-02
-1.024991e-01
-1.309595e-01
-1.625267e-01
-1.971721e-01
-2.348220e-01
-2.753769e-01
-3.187218e-01
-3.647329e-01
-4.132812e-01
-4.642348e-01
-5.174610e-01
-5.728275e-01
-6.302040e-01
-6.894642e-01
-7.504882e-01
-8.131665e-01
-8.774056e-01
-9.431361e-01
-1.010325e+00
-1.078998e+00
-1.149268e+00
-1.221402e+00
-1.295927e+00
-1.373863e+00
-1.457238e+00
-1.550276e+00
-1.662028e+00
-1.809551e+00
0.000000e+00
-1.121432e-02
-2.775671e-02
-4.759435e-02
-7.018966e-02
-9.577874e-02
-1.244638e-01
-1.562716e-01
-1.911637e-01
-2.290631e-01
-2.698684e-01
-3.134638e-01
-3.597249e-01
-4.085222e-01
-4.597235e-01
-5.131955e-01
-5.688052e-01
-6.264216e-01
-6.859174e-01
-7.471719e-01
-8.100747e-01
-8.745315e-01
-9.404725e-01
-1.007866e+00
-1.076740e+00
-1.147216e+00
-1.219569e+00
-1.294342e+00
-1.372542e+00
-1.455995e+00
-1.547823e+00
-1.651713e+00
-1.766958e+00
0.000000e+00
-8.979954e-03
-2.350433e-02
-4.228413e-02
-6.458906e-02
-9.017019e-02
-1.189780e-01
-1.509639e-01
-1.860591e-01
-2.241722e-01
-2.651955e-01
-3.090104e-01
-3.554912e-01
-4.045083e-01
-4.559296e-01
-5.096221e-01
-5.654533e-01
-6.232928e-01
-6.830139e-01
-7.444968e-01
-8.076326e-01
-8.723292e-01
-9.385206e-01
-1.006180e+00
-1.075342e+00
-1.146133e+00
-1.218828e+00
-1.293924e+00
-1.372247e+00
-1.455001e+00
-1.543336e+00
-1.636503e+00
-1.723231e+00
0.000000e+00
-7.598518e-03
-2.072343e-02
-3.851324e-02
-6.030972e-02
-8.572313e-02
-1.145418e-01
-1.466316e-01
-1.818768e-01
-2.201620e-01
-2.613677e-01
-3.053695e-01
-3.520397e-01
-4.012483e-01
-4.528636e-01
-5.067535e-01
-5.627870e-01
-6.208350e-01
-6.807726e-01
-7.424820e-01
-8.058568e-01
-8.708076e-01
-9.372713e-01
-1.005223e+00
-1.074694e+00
-1.145796e+00
-1.218753e+00
-1.293923e+00
-1.371780e+00
-1.452708e+00
-1.536318e+00
-1.619543e+00
-1.695074e+00
0.000000e+00
-6.719498e-03
-1.889881e-02
-3.591829e-02
-5.722411e-02
-8.239947e-02
-1.111555e-01
-1.432864e-01
-1.786303e-01
-2.170445e-01
-2.583946e-01
-3.025490e-01
-3.493769e-01
-3.987474e-01
-4.505298e-01
-5.045932e-01
-5.608082e-01
-6.190478e-01
-6.791889e-01
-7.411158e-01
-8.047234e-01
-8.699230e-01
-9.366494e-01
-1.004870e+00
-1.074598e+00
-1.145899e+00
-1.218900e+00
-1.293757e+00
-1.370559e+00
-1.449045e+00
-1.528020e+00
-1.604662e+00
-1.674713e+00
0.000000e+00
-6.173196e-03
-1.774520e-02
-3.423151e-02
-5.515698e-02
-8.011540e-02
-1.087860e-01
-1.409210e-01
-1.763232e-01
-2.148267e-01
-2.562832e-01
-3.005542e-01
-3.475058e-01
-3.970065e-01
-4.489263e-01
-5.031359e-01
-5.595077e-01
-6.179161e-01
-6.782398e-01
-7.403637e-01
-8.041818e-01
-8.696019e-01
-9.365499e-01
-1.004975e+00
-1.074855e+00
-1.146189e+00
-1.218985e+00
-1.293201e+00
-1.368622e+00
-1.444635e+00
-1.519925e+00
-1.592321e+00
-1.659163e+00
0.000000e+00
-5.872996e-03
-1.710508e-02
-3.328097e-02
-5.397166e-02
-7.878495e-02
-1.073898e-01
-1.395176e-01
-1.749514e-01
-2.135101e-01
-2.550364e-01
-2.993869e-01
-3.464259e-01
-3.960219e-01
-4.480457e-01
-5.023696e-01
-5.588675e-01
-6.174149e-01
-6.778909e-01
-7.401791e-01
-8.041700e-01
-8.697629e-01
-9.368687e-01
-1.005410e+00
-1.075318e+00
-1.146521e+00
-1.218913e+00
-1.292299e+00
-1.366285e+00
-1.440145e+00
-1.512691e+00
-1.582292e+00
-1.647132e+00
0.000000e+00
-5.776272e-03
-1.689857e-02
-3.297289e-02
-5.358535e-02
-7.834951e-02
-1.069324e-01
-1.390598e-01
-1.745084e-01
-2.130930e-01
-2.546533e-01
-2.990451e-01
-3.461328e-01
-3.957858e-01
-4.478761e-01
-5.022775e-01
-5.588647e-01
-6.175137e-01
-6.781027e-01
-7.405121e-01
-8.046259e-01
-8.703317e-01
-9.375206e-01
-1.006084e+00
-1.075906e+00
-1.146848e+00
-1.218717e+00
-1.291218e+00
-1.363880e+00
-1.435990e+00
-1.506543e+00
-1.574293e+00
-1.637911e+00
0.000000e+00
-5.870198e-03
-1.710120e-02
-3.327763e-02
-5.397065e-02
-7.878849e-02
-1.074008e-01
-1.395400e-01
-1.749903e-01
-2.135723e-01
-2.551306e-01
-2.995240e-01
-3.466193e-01
-3.962879e-01
-4.484034e-01
-5.028405e-01
-5.594745e-01
-6.181811e-01
-6.788363e-01
-7.413161e-01
-8.054959e-01
-8.712497e-01
-9.384470e-01
-1.006948e+00
-1.076594e+00
-1.147193e+00
-1.218490e+00
-1.290139e+00
-1.361658e+00
-1.432394e+00
-1.501521e+00
-1.568074e+00
-1.631039e+00
0.000000e+00
-6.167828e-03
-1.773775e-02
-3.422506e-02
-5.515496e-02
-8.012206e-02
-1.088070e-01
-1.409637e-01
-1.763975e-01
-2.149457e-01
-2.564635e-01
-3.008167e-01
-3.478765e-01
-3.975167e-01
-4.496125e-01
-5.040395e-01
-5.606733e-01
-6.193883e-01
-6.800578e-01
-7.425523e-01
-8.067384e-01
-8.724757e-01
-9.396134e-01
-1.007983e+00
-1.077392e+00
-1.147607e+00
-1.218336e+00
-1.289215e+00
-1.359779e+00
-1.429458e+00
-1.497582e+00
-1.563410e+00
-1.626160e+00
0.000000e+00
-6.712035e-03
-1.888845e-02
-3.590928e-02
-5.722120e-02
-8.240859e-02
-1.111845e-01
-1.433457e-01
-1.787338e-01
-2.172104e-01
-2.586461e-01
-3.029156e-01
-3.498950e-01
-3.994608e-01
-4.514899e-01
-5.058583e-01
-5.624412e-01
-6.211119e-01
-6.817403e-01
-7.441918e-01
-8.083242e-01
-8.739844e-01
-9.410037e-01
-1.009191e+00
-1.078326e+00
-1.148148e+00
-1.218346e+00
-1.288553e+00
-1.358336e+00
-1.427209e+00
-1.494642e+00
-1.560083e+00
-1.622962e+00
0.000000e+00
-7.589728e-03
-2.071124e-02
-3.850264e-02
-6.030634e-02
-8.573418e-02
-1.145768e-01
-1.467032e-01
-1.820018e-01
-2.203624e-01
-2.616717e-01
-3.058127e-01
-3.526663e-01
-4.021113e-01
-4.540254e-01
-5.082849e-01
-5.647644e-01
-6.233357e-01
-6.838660e-01
-7.462159e-01
-8.102359e-01
-8.757627e-01
-9.426135e-01
-1.010580e+00
-1.079423e+00
-1.148865e+00
-1.218584e+00
-1.288218e+00
-1.357372e+00
-1.425630e+00
-1.492589e+00
-1.557873e+00
-1.621132e+00
0.000000e+00
-8.970920e-03
-2.349182e-02
-4.227334e-02
-6.458616e-02
-9.018316e-02
-1.190174e-01
-1.510439e-01
-1.861982e-01
-2.243947e-01
-2.655325e-01
-3.095013e-01
-3.561846e-01
-4.054627e-01
-4.572137e-01
-5.113137e-01
-5.676367e-01
-6.260529e-01
-6.864274e-01
-7.486171e-01
-8.124673e-01
-8.778072e-01
-9.444446e-01
-1.012160e+00
-1.080703e+00
-1.149784e+00
-1.219080e+00
-1.288236e+00
-1.356885e+00
-1.424673e+00
-1.491299e+00
-1.556554e+00
-1.620335e+00
0.000000e+00
-1.120645e-02
-2.774575e-02
-4.758525e-02
-7.018880e-02
-9.579453e-02
-1.245074e-01
-1.563576e-01
-1.913115e-01
-2.292978e-01
-2.702222e-01
-3.139773e-01
-3.604480e-01
-4.095150e-01
-4.610561e-01
-5.149470e-01
-5.710609e-01
-6.292669e-01
-6.894284e-01
-7.513997e-01
-8.150230e-01
-8.801231e-01
-9.465027e-01
-1.013937e+00
-1.082168e+00
-1.150906e+00
-1.219827e+00
-1.288584e+00
-1.356831e+00
-1.424254e+00
-1.490630e+00
-1.555891e+00
-1.620195e+00
0.000000e+00
-1.526171e-02
-3.442181e-02
-5.453591e-02
-7.710048e-02
-1.025196e-01
-1.310086e-01
-1.626190e-01
-1.973268e-01
-2.350642e-01
-2.757383e-01
-3.192422e-01
-3.654609e-01
-4.142748e-01
-4.655615e-01
-5.191961e-01
-5.750507e-01
-6.329934e-01
-6.928864e-01
-7.545823e-01
-8.179214e-01
-8.827268e-01
-9.487992e-01
-1.015913e+00
-1.083810e+00
-1.152202e+00
-1.220770e+00
-1.289179e+00
-1.357096e+00
-1.424235e+00
-1.490412e+00
-1.555652e+00
-1.620314e+00
0.000000e+00
-2.456518e-02
-4.287031e-02
-6.285051e-02
-8.510590e-02
-1.102530e-01
-1.384690e-01
-1.698063e-01
-2.042380e-01
-2.416957e-01
-2.820868e-01
-3.253046e-01
-3.712343e-01
-4.197560e-01
-4.707469e-01
-5.240814e-01
-5.796306e-01
-6.372615e-01
-6.968344e-01
-7.582007e-01
-8.211992e-01
-8.856518e-01
-9.513592e-01