TITLE = "Solution"
VARIABLES = x, y, u, v, psiu, psiv, t, stress
ZONE T="structure" N=561 E=512 F=FEBLOCK ET=QUADRILATERAL VARLOCATION=([7,8]=cellcentered)
0.000000e+00
6.250000e+00
1.250000e+01
1.875000e+01
2.500000e+01
3.125000e+01
3.750000e+01
4.375000e+01
5.000000e+01
5.625000e+01
6.250000e+01
6.875000e+01
7.500000e+01
8.125000e+01
8.750000e+01
9.375000e+01
1.000000e+02
1.062500e+02
1.125000e+02
1.187500e+02
1.250000e+02
1.312500e+02
1.375000e+02
1.437500e+02
1.500000e+02
1.562500e+02
1.625000e+02
1.687500e+02
1.750000e+02
1.812500e+02
1.875000e+02
1.937500e+02
2.000000e+02
0.000000e+00
6.250000e+00
1.250000e+01
1.875000e+01
2.500000e+01
3.125000e+01
3.750000e+01
4.375000e+01
5.000000e+01
5.625000e+01
6.250000e+01
6.875000e+01
7.500000e+01
8.125000e+01
8.750000e+01
9.375000e+01
1.000000e+02
1.062500e+02
1.125000e+02
1.187500e+02
1.250000e+02
1.312500e+02
1.375000e+02
1.437500e+02
1.500000e+02
1.562500e+02
1.625000e+02
1.687500e+02
1.750000e+02
1.812500e+02
1.875000e+02
1.937500e+02
2.000000e+02
0.000000e+00
6.250000e+00
1.250000e+01
1.875000e+01
2.500000e+01
3.125000e+01
3.750000e+01
4.375000e+01
5.000000e+01
5.625000e+01
6.250000e+01
6.875000e+01
7.500000e+01
8.125000e+01
8.750000e+01
9.375000e+01
1.000000e+02
1.062500e+02
1.125000e+02
1.187500e+02
1.250000e+02
1.312500e+02
1.375000e+02
1.437500e+02
1.500000e+02
1.562500e+02
1.625000e+02
1.687500e+02
1.750000e+02
1.812500e+02
1.875000e+02
1.937500e+02
2.000000e+02
0.000000e+00
6.250000e+00
1.250000e+01
1.875000e+01
2.500000e+01
3.125000e+01
3.750000e+01
4.375000e+01
5.000000e+01
5.625000e+01
6.250000e+01
6.875000e+01
7.500000e+01
8.125000e+01
8.750000e+01
9.375000e+01
1.000000e+02
1.062500e+02
1.125000e+02
1.187500e+02
1.250000e+02
1.312500e+02
1.375000e+02
1.437500e+02
1.500000e+02
1.562500e+02
1.625000e+02
1.687500e+02
1.750000e+02
1.812500e+02
1.875000e+02
1.937500e+02
2.000000e+02
0.000000e+00
6.250000e+00
1.250000e+01
1.875000e+01
2.500000e+01
3.125000e+01
3.750000e+01
4.375000e+01
5.000000e+01
5.625000e+01
6.250000e+01
6.875000e+01
7.500000e+01
8.125000e+01
8.750000e+01
9.375000e+01
1.000000e+02
1.062500e+02
1.125000e+02
1.187500e+02
1.250000e+02
1.312500e+02
1.375000e+02
1.437500e+02
1.500000e+02
1.562500e+02
1.625000e+02
1.687500e+02
1.750000e+02
1.812500e+02
1.875000e+02
1.937500e+02
2.000000e+02
0.000000e+00
6.250000e+00
1.250000e+01
1.875000e+01
2.500000e+01
3.125000e+01
3.750000e+01
4.375000e+01
5.000000e+01
5.625000e+01
6.250000e+01
6.875000e+01
7.500000e+01
8.125000e+01
8.750000e+01
9.375000e+01
1.000000e+02
1.062500e+02
1.125000e+02
1.187500e+02
1.250000e+02
1.312500e+02
1.375000e+02
1.437500e+02
1.500000e+02
1.562500e+02
1.625000e+02
1.687500e+02
1.750000e+02
1.812500e+02
1.875000e+02
1.937500e+02
2.000000e+02
0.000000e+00
6.250000e+00
1.250000e+01
1.875000e+01
2.500000e+01
3.125000e+01
3.750000e+01
4.375000e+01
5.000000e+01
5.625000e+01
6.250000e+01
6.875000e+01
7.500000e+01
8.125000e+01
8.750000e+01
9.375000e+01
1.000000e+02
1.062500e+02
1.125000e+02
1.187500e+02
1.250000e+02
1.312500e+02
1.375000e+02
1.437500e+02
1.500000e+02
1.562500e+02
1.625000e+02
1.687500e+02
1.750000e+02
1.812500e+02
1.875000e+02
1.937500e+02
2.000000e+02
0.000000e+00
6.250000e+00
1.250000e+01
1.875000e+01
2.500000e+01
3.125000e+01
3.750000e+01
4.375000e+01
5.000000e+01
5.625000e+01
6.250000e+01
6.875000e+01
7.500000e+01
8.125000e+01
8.750000e+01
9.375000e+01
1.000000e+02
1.062500e+02
1.125000e+02
1.187500e+02
1.250000e+02
1.312500e+02
1.375000e+02
1.437500e+02
1.500000e+02
1.562500e+02
1.625000e+02
1.687500e+02
1.750000e+02
1.812500e+02
1.875000e+02
1.937500e+02
2.000000e+02
0.000000e+00
6.250000e+00
1.250000e+01
1.875000e+01
2.500000e+01
3.125000e+01
3.750000e+01
4.375000e+01
5.000000e+01
5.625000e+01
6.250000e+01
6.875000e+01
7.500000e+01
8.125000e+01
8.750000e+01
9.375000e+01
1.000000e+02
1.062500e+02
1.125000e+02
1.187500e+02
1.250000e+02
1.312500e+02
1.375000e+02
1.437500e+02
1.500000e+02
1.562500e+02
1.625000e+02
1.687500e+02
1.750000e+02
1.812500e+02
1.875000e+02
1.937500e+02
2.000000e+02
0.000000e+00
6.250000e+00
1.250000e+01
1.875000e+01
2.500000e+01
3.125000e+01
3.750000e+01
4.375000e+01
5.000000e+01
5.625000e+01
6.250000e+01
6.875000e+01
7.500000e+01
8.125000e+01
8.750000e+01
9.375000e+01
1.000000e+02
1.062500e+02
1.125000e+02
1.187500e+02
1.250000e+02
1.312500e+02
1.375000e+02
1.437500e+02
1.500000e+02
1.562500e+02
1.625000e+02
1.687500e+02
1.750000e+02
1.812500e+02
1.875000e+02
1.937500e+02
2.000000e+02
0.000000e+00
6.250000e+00
1.250000e+01
1.875000e+01
2.500000e+01
3.125000e+01
3.750000e+01
4.375000e+01
5.000000e+01
5.625000e+01
6.250000e+01
6.875000e+01
7.500000e+01
8.125000e+01
8.750000e+01
9.375000e+01
1.000000e+02
1.062500e+02
1.125000e+02
1.187500e+02
1.250000e+02
1.312500e+02
1.375000e+02
1.437500e+02
1.500000e+02
1.562500e+02
1.625000e+02
1.687500e+02
1.750000e+02
1.812500e+02
1.875000e+02
1.937500e+02
2.000000e+02
0.000000e+00
6.250000e+00
1.250000e+01
1.875000e+01
2.500000e+01
3.125000e+01
3.750000e+01
4.375000e+01
5.000000e+01
5.625000e+01
6.250000e+01
6.875000e+01
7.500000e+01
8.125000e+01
8.750000e+01
9.375000e+01
1.000000e+02
1.062500e+02
1.125000e+02
1.187500e+02
1.250000e+02
1.312500e+02
1.375000e+02
1.437500e+02
1.500000e+02
1.562500e+02
1.625000e+02
1.687500e+02
1.750000e+02
1.812500e+02
1.875000e+02
1.937500e+02
2.000000e+02
0.000000e+00
6.250000e+00
1.250000e+01
1.875000e+01
2.500000e+01
3.125000e+01
3.750000e+01
4.375000e+01
5.000000e+01
5.625000e+01
6.250000e+01
6.875000e+01
7.500000e+01
8.125000e+01
8.750000e+01
9.375000e+01
1.000000e+02
1.062500e+02
1.125000e+02
1.187500e+02
1.250000e+02
1.312500e+02
1.375000e+02
1.437500e+02
1.500000e+02
1.562500e+02
1.625000e+02
1.687500e+02
1.750000e+02
1.812500e+02
1.875000e+02
1.937500e+02
2.000000e+02
0.000000e+00
6.250000e+00
1.250000e+01
1.875000e+01
2.500000e+01
3.125000e+01
3.750000e+01
4.375000e+01
5.000000e+01
5.625000e+01
6.250000e+01
6.875000e+01
7.500000e+01
8.125000e+01
8.750000e+01
9.375000e+01
1.000000e+02
1.062500e+02
1.125000e+02
1.187500e+02
1.250000e+02
1.312500e+02
1.375000e+02
1.437500e+02
1.500000e+02
1.562500e+02
1.625000e+02
1.687500e+02
1.750000e+02
1.812500e+02
1.875000e+02
1.937500e+02
2.000000e+02
0.000000e+00
6.250000e+00
1.250000e+01
1.875000e+01
2.500000e+01
3.125000e+01
3.750000e+01
4.375000e+01
5.000000e+01
5.625000e+01
6.250000e+01
6.875000e+01
7.500000e+01
8.125000e+01
8.750000e+01
9.375000e+01
1.000000e+02
1.062500e+02
1.125000e+02
1.187500e+02
1.250000e+02
1.312500e+02
1.375000e+02
1.437500e+02
1.500000e+02
1.562500e+02
1.625000e+02
1.687500e+02
1.750000e+02
1.812500e+02
1.875000e+02
1.937500e+02
2.000000e+02
0.000000e+00
6.250000e+00
1.250000e+01
1.875000e+01
2.500000e+01
3.125000e+01
3.750000e+01
4.375000e+01
5.000000e+01
5.625000e+01
6.250000e+01
6.875000e+01
7.500000e+01
8.125000e+01
8.750000e+01
9.375000e+01
1.000000e+02
1.062500e+02
1.125000e+02
1.187500e+02
1.250000e+02
1.312500e+02
1.375000e+02
1.437500e+02
1.500000e+02
1.562500e+02
1.625000e+02
1.687500e+02
1.750000e+02
1.812500e+02
1.875000e+02
1.937500e+02
2.000000e+02
0.000000e+00
6.250000e+00
1.250000e+01
1.875000e+01
2.500000e+01
3.125000e+01
3.750000e+01
4.375000e+01
5.000000e+01
5.625000e+01
6.250000e+01
6.875000e+01
7.500000e+01
8.125000e+01
8.750000e+01
9.375000e+01
1.000000e+02
1.062500e+02
1.125000e+02
1.187500e+02
1.250000e+02
1.312500e+02
1.375000e+02
1.437500e+02
1.500000e+02
1.562500e+02
1.625000e+02
1.687500e+02
1.750000e+02
1.812500e+02
1.875000e+02
1.937500e+02
2.000000e+02
0.000000e+00
0.000000e+00
0.000000e+00
0.000000e+00
0.000000e+00
0.000000e+00
0.000000e+00
0.000000e+00
0.000000e+00
0.000000e+00
0.000000e+00
0.000000e+00
0.000000e+00
0.000000e+00
0.000000e+00
0.000000e+00
0.000000e+00
0.000000e+00
0.000000e+00
0.000000e+00
0.000000e+00
0.000000e+00
0.000000e+00
0.000000e+00
0.000000e+00
0.000000e+00
0.000000e+00
0.000000e+00
0.000000e+00
0.000000e+00
0.000000e+00
0.000000e+00
0.000000e+00
6.250000e+00
6.250000e+00
6.250000e+00
6.250000e+00
6.250000e+00
6.250000e+00
6.250000e+00
6.250000e+00
6.250000e+00
6.250000e+00
6.250000e+00
6.250000e+00
6.250000e+00
6.250000e+00
6.250000e+00
6.250000e+00
6.250000e+00
6.250000e+00
6.250000e+00
6.250000e+00
6.250000e+00
6.250000e+00
6.250000e+00
6.250000e+00
6.250000e+00
6.250000e+00
6.250000e+00
6.250000e+00
6.250000e+00
6.250000e+00
6.250000e+00
6.250000e+00
6.250000e+00
1.250000e+01
1.250000e+01
1.250000e+01
1.250000e+01
1.250000e+01
1.250000e+01
1.250000e+01
1.250000e+01
1.250000e+01
1.250000e+01
1.250000e+01
1.250000e+01
1.250000e+01
1.250000e+01
1.250000e+01
1.250000e+01
1.250000e+01
1.250000e+01
1.250000e+01
1.250000e+01
1.250000e+01
1.250000e+01
1.250000e+01
1.250000e+01
1.250000e+01
1.250000e+01
1.250000e+01
1.250000e+01
1.250000e+01
1.250000e+01
1.250000e+01
1.250000e+01
1.250000e+01
1.875000e+01
1.875000e+01
1.875000e+01
1.875000e+01
1.875000e+01
1.875000e+01
1.875000e+01
1.875000e+01
1.875000e+01
1.875000e+01
1.875000e+01
1.875000e+01
1.875000e+01
1.875000e+01
1.875000e+01
1.875000e+01
1.875000e+01
1.875000e+01
1.875000e+01
1.875000e+01
1.875000e+01
1.875000e+01
1.875000e+01
1.875000e+01
1.875000e+01
1.875000e+01
1.875000e+01
1.875000e+01
1.875000e+01
1.875000e+01
1.875000e+01
1.875000e+01
1.875000e+01
2.500000e+01
2.500000e+01
2.500000e+01
2.500000e+01
2.500000e+01
2.500000e+01
2.500000e+01
2.500000e+01
2.500000e+01
2.500000e+01
2.500000e+01
2.500000e+01
2.500000e+01
2.500000e+01
2.500000e+01
2.500000e+01
2.500000e+01
2.500000e+01
2.500000e+01
2.500000e+01
2.500000e+01
2.500000e+01
2.500000e+01
2.500000e+01
2.500000e+01
2.500000e+01
2.500000e+01
2.500000e+01
2.500000e+01
2.500000e+01
2.500000e+01
2.500000e+01
2.500000e+01
3.125000e+01
3.125000e+01
3.125000e+01
3.125000e+01
3.125000e+01
3.125000e+01
3.125000e+01
3.125000e+01
3.125000e+01
3.125000e+01
3.125000e+01
3.125000e+01
3.125000e+01
3.125000e+01
3.125000e+01
3.125000e+01
3.125000e+01
3.125000e+01
3.125000e+01
3.125000e+01
3.125000e+01
3.125000e+01
3.125000e+01
3.125000e+01
3.125000e+01
3.125000e+01
3.125000e+01
3.125000e+01
3.125000e+01
3.125000e+01
3.125000e+01
3.125000e+01
3.125000e+01
3.750000e+01
3.750000e+01
3.750000e+01
3.750000e+01
3.750000e+01
3.750000e+01
3.750000e+01
3.750000e+01
3.750000e+01
3.750000e+01
3.750000e+01
3.750000e+01
3.750000e+01
3.750000e+01
3.750000e+01
3.750000e+01
3.750000e+01
3.750000e+01
3.750000e+01
3.750000e+01
3.750000e+01
3.750000e+01
3.750000e+01
3.750000e+01
3.750000e+01
3.750000e+01
3.750000e+01
3.750000e+01
3.750000e+01
3.750000e+01
3.750000e+01
3.750000e+01
3.750000e+01
4.375000e+01
4.375000e+01
4.375000e+01
4.375000e+01
4.375000e+01
4.375000e+01
4.375000e+01
4.375000e+01
4.375000e+01
4.375000e+01
4.375000e+01
4.375000e+01
4.375000e+01
4.375000e+01
4.375000e+01
4.375000e+01
4.375000e+01
4.375000e+01
4.375000e+01
4.375000e+01
4.375000e+01
4.375000e+01
4.375000e+01
4.375000e+01
4.375000e+01
4.375000e+01
4.375000e+01
4.375000e+01
4.375000e+01
4.375000e+01
4.375000e+01
4.375000e+01
4.375000e+01
5.000000e+01
5.000000e+01
5.000000e+01
5.000000e+01
5.000000e+01
5.000000e+01
5.000000e+01
5.000000e+01
5.000000e+01
5.000000e+01
5.000000e+01
5.000000e+01
5.000000e+01
5.000000e+01
5.000000e+01
5.000000e+01
5.000000e+01
5.000000e+01
5.000000e+01
5.000000e+01
5.000000e+01
5.000000e+01
5.000000e+01
5.000000e+01
5.000000e+01
5.000000e+01
5.000000e+01
5.000000e+01
5.000000e+01
5.000000e+01
5.000000e+01
5.000000e+01
5.000000e+01
5.625000e+01
5.625000e+01
5.625000e+01
5.625000e+01
5.625000e+01
5.625000e+01
5.625000e+01
5.625000e+01
5.625000e+01
5.625000e+01
5.625000e+01
5.625000e+01
5.625000e+01
5.625000e+01
5.625000e+01
5.625000e+01
5.625000e+01
5.625000e+01
5.625000e+01
5.625000e+01
5.625000e+01
5.625000e+01
5.625000e+01
5.625000e+01
5.625000e+01
5.625000e+01
5.625000e+01
5.625000e+01
5.625000e+01
5.625000e+01
5.625000e+01
5.625000e+01
5.625000e+01
6.250000e+01
6.250000e+01
6.250000e+01
6.250000e+01
6.250000e+01
6.250000e+01
6.250000e+01
6.250000e+01
6.250000e+01
6.250000e+01
6.250000e+01
6.250000e+01
6.250000e+01
6.250000e+01
6.250000e+01
6.250000e+01
6.250000e+01
6.250000e+01
6.250000e+01
6.250000e+01
6.250000e+01
6.250000e+01
6.250000e+01
6.250000e+01
6.250000e+01
6.250000e+01
6.250000e+01
6.250000e+01
6.250000e+01
6.250000e+01
6.250000e+01
6.250000e+01
6.250000e+01
6.875000e+01
6.875000e+01
6.875000e+01
6.875000e+01
6.875000e+01
6.875000e+01
6.875000e+01
6.875000e+01
6.875000e+01
6.875000e+01
6.875000e+01
6.875000e+01
6.875000e+01
6.875000e+01
6.875000e+01
6.875000e+01
6.875000e+01
6.875000e+01
6.875000e+01
6.875000e+01
6.875000e+01
6.875000e+01
6.875000e+01
6.875000e+01
6.875000e+01
6.875000e+01
6.875000e+01
6.875000e+01
6.875000e+01
6.875000e+01
6.875000e+01
6.875000e+01
6.875000e+01
7.500000e+01
7.500000e+01
7.500000e+01
7.500000e+01
7.500000e+01
7.500000e+01
7.500000e+01
7.500000e+01
7.500000e+01
7.500000e+01
7.500000e+01
7.500000e+01
7.500000e+01
7.500000e+01
7.500000e+01
7.500000e+01
7.500000e+01
7.500000e+01
7.500000e+01
7.500000e+01
7.500000e+01
7.500000e+01
7.500000e+01
7.500000e+01
7.500000e+01
7.500000e+01
7.500000e+01
7.500000e+01
7.500000e+01
7.500000e+01
7.500000e+01
7.500000e+01
7.500000e+01
8.125000e+01
8.125000e+01
8.125000e+01
8.125000e+01
8.125000e+01
8.125000e+01
8.125000e+01
8.125000e+01
8.125000e+01
8.125000e+01
8.125000e+01
8.125000e+01
8.125000e+01
8.125000e+01
8.125000e+01
8.125000e+01
8.125000e+01
8.125000e+01
8.125000e+01
8.125000e+01
8.125000e+01
8.125000e+01
8.125000e+01
8.125000e+01
8.125000e+01
8.125000e+01
8.125000e+01
8.125000e+01
8.125000e+01
8.125000e+01
8.125000e+01
8.125000e+01
8.125000e+01
8.750000e+01
8.750000e+01
8.750000e+01
8.750000e+01
8.750000e+01
8.750000e+01
8.750000e+01
8.750000e+01
8.750000e+01
8.750000e+01
8.750000e+01
8.750000e+01
8.750000e+01
8.750000e+01
8.750000e+01
8.750000e+01
8.750000e+01
8.750000e+01
8.750000e+01
8.750000e+01
8.750000e+01
8.750000e+01
8.750000e+01
8.750000e+01
8.750000e+01
8.750000e+01
8.750000e+01
8.750000e+01
8.750000e+01
8.750000e+01
8.750000e+01
8.750000e+01
8.750000e+01
9.375000e+01
9.375000e+01
9.375000e+01
9.375000e+01
9.375000e+01
9.375000e+01
9.375000e+01
9.375000e+01
9.375000e+01
9.375000e+01
9.375000e+01
9.375000e+01
9.375000e+01
9.375000e+01
9.375000e+01
9.375000e+01
9.375000e+01
9.375000e+01
9.375000e+01
9.375000e+01
9.375000e+01
9.375000e+01
9.375000e+01
9.375000e+01
9.375000e+01
9.375000e+01
9.375000e+01
9.375000e+01
9.375000e+01
9.375000e+01
9.375000e+01
9.375000e+01
9.375000e+01
1.000000e+02
1.000000e+02
1.000000e+02
1.000000e+02
1.000000e+02
1.000000e+02
1.000000e+02
1.000000e+02
1.000000e+02
1.000000e+02
1.000000e+02
1.000000e+02
1.000000e+02
1.000000e+02
1.000000e+02
1.000000e+02
1.000000e+02
1.000000e+02
1.000000e+02
1.000000e+02
1.000000e+02
1.000000e+02
1.000000e+02
1.000000e+02
1.000000e+02
1.000000e+02
1.000000e+02
1.000000e+02
1.000000e+02
1.000000e+02
1.000000e+02
1.000000e+02
1.000000e+02
0.000000e+00
-4.343553e-01
-7.648068e-01
-1.090108e+00
-1.402648e+00
-1.701339e+00
-2.007759e+00
-2.306393e+00
-2.605001e+00
-2.906968e+00
-3.204949e+00
-3.504703e+00
-3.805099e+00
-4.103382e+00
-4.403156e+00
-4.702637e+00
-5.001204e+00
-5.301138e+00
-5.600831e+00
-5.900257e+00
-6.201421e+00
-6.502936e+00
-6.804405e+00
-7.108563e+00
-7.414228e+00
-7.720968e+00
-8.035839e+00
-8.357081e+00
-8.683053e+00
-9.051252e+00
-9.517687e+00
-9.938352e+00
-1.014511e+01
0.000000e+00
-2.330345e-01
-4.828301e-01
-7.443506e-01
-1.009908e+00
-1.266034e+00
-1.533171e+00
-1.795031e+00
-2.056662e+00
-2.321725e+00
-2.583028e+00
-2.845781e+00
-3.109235e+00
-3.370705e+00
-3.633432e+00
-3.895859e+00
-4.157267e+00
-4.419631e+00
-4.681441e+00
-4.942456e+00
-5.204343e+00
-5.465780e+00
-5.726157e+00
-5.987720e+00
-6.248925e+00
-6.508307e+00
-6.770516e+00
-7.031116e+00
-7.285893e+00
-7.549084e+00
-7.793062e+00
-7.890833e+00
-7.996377e+00
0.000000e+00
-1.265369e-01
-2.748634e-01
-4.669940e-01
-6.768854e-01
-8.860804e-01
-1.110225e+00
-1.332252e+00
-1.555424e+00
-1.782022e+00
-2.006220e+00
-2.231994e+00
-2.458665e+00
-2.684153e+00
-2.910762e+00
-3.137273e+00
-3.363040e+00
-3.589343e+00
-3.814956e+00
-4.039506e+00
-4.263963e+00
-4.487232e+00
-4.708610e+00
-4.929146e+00
-5.147132e+00
-5.360067e+00
-5.567992e+00
-5.765268e+00
-5.943858e+00
-6.094411e+00
-6.174459e+00
-6.178836e+00
-6.270885e+00
0.000000e+00
-8.159643e-02
-1.689258e-01
-2.979187e-01
-4.418212e-01
-6.009964e-01
-7.773165e-01
-9.556573e-01
-1.138942e+00
-1.326397e+00
-1.513435e+00
-1.702808e+00
-1.893349e+00
-2.083624e+00
-2.275149e+00
-2.466785e+00
-2.658034e+00
-2.849506e+00
-3.040187e+00
-3.229672e+00
-3.418180e+00
-3.604745e+00
-3.788361e+00
-3.968370e+00
-4.142452e+00
-4.306950e+00
-4.458176e+00
-4.589940e+00
-4.692437e+00
-4.754328e+00
-4.765390e+00
-4.778138e+00
-4.858788e+00
0.000000e+00
-8.352268e-02
-1.609492e-01
-2.548622e-01
-3.601227e-01
-4.819208e-01
-6.146556e-01
-7.526496e-01
-8.969542e-01
-1.043426e+00
-1.190980e+00
-1.340514e+00
-1.490495e+00
-1.641176e+00
-1.792676e+00
-1.944093e+00
-2.095401e+00
-2.246259e+00
-2.395991e+00
-2.544163e+00
-2.690051e+00
-2.832595e+00
-2.970337e+00
-3.101407e+00
-3.223348e+00
-3.332991e+00
-3.426568e+00
-3.499259e+00
-3.545646e+00
-3.561471e+00
-3.555378e+00
-3.582531e+00
-3.656861e+00
0.000000e+00
-6.982720e-02
-1.376003e-01
-2.078153e-01
-2.877494e-01
-3.753050e-01
-4.705852e-01
-5.718277e-01
-6.760691e-01
-7.827617e-01
-8.909699e-01
-1.000111e+00
-1.110403e+00
-1.221446e+00
-1.332918e+00
-1.444618e+00
-1.556011e+00
-1.666637e+00
-1.775976e+00
-1.883175e+00
-1.987175e+00
-2.086672e+00
-2.179923e+00
-2.264860e+00
-2.339292e+00
-2.400891e+00
-2.447293e+00
-2.475889e+00
-2.483515e+00
-2.471098e+00
-2.463599e+00
-2.492399e+00
-2.561670e+00
0.000000e+00
-4.938672e-02
-9.770167e-02
-1.472226e-01
-2.002006e-01
-2.579387e-01
-3.199657e-01
-3.853952e-01
-4.531705e-01
-5.224839e-01
-5.929693e-01
-6.643563e-01
-7.364305e-01
-8.089907e-01
-8.817409e-01
-9.543455e-01
-1.026410e+00
-1.097442e+00
-1.166828e+00
-1.233724e+00
-1.297010e+00
-1.355312e+00
-1.406988e+00
-1.450178e+00
-1.482936e+00
-1.503374e+00
-1.509573e+00
-1.499054e+00
-1.472744e+00
-1.440821e+00
-1.429259e+00
-1.458114e+00
-1.527088e+00
0.000000e+00
-2.614887e-02
-5.195408e-02
-7.803894e-02
-1.054418e-01
-1.347158e-01
-1.658829e-01
-1.985387e-01
-2.322338e-01
-2.666248e-01
-3.014389e-01
-3.364524e-01
-3.714636e-01
-4.062688e-01
-4.406454e-01
-4.743285e-01
-5.069967e-01
-5.382540e-01
-5.675840e-01
-5.942878e-01
-6.174377e-01
-6.358596e-01
-6.481383e-01
-6.526550e-01
-6.476064e-01
-6.308630e-01
-5.999630e-01
-5.549851e-01
-5.040046e-01
-4.604870e-01
-4.465608e-01
-4.763572e-01
-5.472114e-01
0.000000e+00
-1.911445e-03
-3.821870e-03
-5.682994e-03
-7.451089e-03
-9.081190e-03
-1.051384e-02
-1.167302e-02
-1.247794e-02
-1.284930e-02
-1.269689e-02
-1.190259e-02
-1.031826e-02
-7.774642e-03
-4.088511e-03
9.360160e-04
7.521135e-03
1.593828e-02
2.653435e-02
3.976817e-02
5.626384e-02
7.688643e-02
1.028063e-01
1.355339e-01
1.769302e-01
2.288339e-01
2.914484e-01
3.600789e-01
4.238073e-01
4.688741e-01
4.795668e-01
4.460354e-01
3.754077e-01
0.000000e+00
2.239008e-02
4.444719e-02
6.689436e-02
9.085496e-02
1.169667e-01
1.453504e-01
1.757269e-01
2.077911e-01
2.413610e-01
2.763596e-01
3.128123e-01
3.508148e-01
3.904998e-01
4.320159e-01
4.755089e-01
5.211243e-01
5.690253e-01
6.194033e-01
6.724844e-01
7.285823e-01
7.882338e-01
8.523510e-01
9.221958e-01
9.987755e-01
1.081540e+00
1.167097e+00
1.248175e+00
1.314227e+00
1.353448e+00
1.355606e+00
1.319807e+00
1.258870e+00
0.000000e+00
4.582567e-02
9.061815e-02
1.367530e-01
1.865832e-01
2.414969e-01
3.011035e-01
3.645668e-01
4.308864e-01
4.993879e-01
5.699359e-01
6.425482e-01
7.173039e-01
7.943076e-01
8.736218e-01
9.553406e-01
1.039584e+00
1.126470e+00
1.216150e+00
1.308766e+00
1.404482e+00
1.503549e+00
1.606113e+00
1.711785e+00
1.819126e+00
1.925129e+00
2.024862e+00
2.110824e+00
2.173737e+00
2.205474e+00
2.203422e+00
2.173501e+00
2.128448e+00
0.000000e+00
6.661203e-02
1.312139e-01
1.984730e-01
2.757396e-01
3.610930e-01
4.547615e-01
5.549962e-01
6.587797e-01
7.655907e-01
8.747060e-01
9.858595e-01
1.099542e+00
1.215609e+00
1.334017e+00
1.454899e+00
1.578196e+00
1.704010e+00
1.832486e+00
1.963637e+00
2.097414e+00
2.233448e+00
2.370411e+00
2.505847e+00
2.636643e+00
2.758921e+00
2.867388e+00
2.955492e+00
3.017003e+00
3.048886e+00
3.052579e+00
3.034164e+00
3.005262e+00
0.000000e+00
8.072524e-02
1.555889e-01
2.469767e-01
3.502288e-01
4.705414e-01
6.025024e-01
7.406157e-01
8.858107e-01
1.033915e+00
1.184074e+00
1.337441e+00
1.492799e+00
1.650676e+00
1.811345e+00
1.974095e+00
2.139114e+00
2.306159e+00
2.474561e+00
2.643869e+00
2.813243e+00
2.981386e+00
3.146240e+00
3.305041e+00
3.454714e+00
3.591287e+00
3.709632e+00
3.804552e+00
3.872524e+00
3.912479e+00
3.926096e+00
3.919277e+00
3.903948e+00
0.000000e+00
7.944130e-02
1.647631e-01
2.917870e-01
4.341608e-01
5.923252e-01
7.680364e-01
9.463730e-01
1.130415e+00
1.319398e+00
1.509040e+00
1.702392e+00
1.898556e+00
2.096531e+00
2.298047e+00
2.502035e+00
2.708023e+00
2.916146e+00
3.124616e+00
3.332041e+00
3.537157e+00
3.737531e+00
3.930855e+00
4.115355e+00
4.288374e+00
4.445111e+00
4.579486e+00
4.686796e+00
4.764864e+00
4.813949e+00
4.836827e+00
4.839728e+00
4.834571e+00
0.000000e+00
1.253676e-01
2.724469e-01
4.632632e-01
6.721829e-01
8.807556e-01
1.104395e+00
1.326090e+00
1.549201e+00
1.776029e+00
2.000919e+00
2.228015e+00
2.456785e+00
2.685397e+00
2.916355e+00
3.148518e+00
3.381247e+00
3.615518e+00
3.849569e+00
4.082238e+00
4.313035e+00
4.539412e+00
4.759280e+00
4.971961e+00
5.173528e+00
5.354491e+00
5.505708e+00
5.623447e+00
5.708232e+00
5.762818e+00
5.791549e+00
5.800946e+00
5.801986e+00
0.000000e+00
2.331052e-01
4.828278e-01
7.440954e-01
1.009472e+00
1.265542e+00
1.532431e+00
1.793929e+00
2.055169e+00
2.319742e+00
2.580449e+00
2.842451e+00
3.104947e+00
3.365205e+00
3.626415e+00
3.886962e+00
4.145944e+00
4.405189e+00
4.663215e+00
4.919566e+00
5.175233e+00
5.428295e+00
5.676779e+00
5.919290e+00
6.147832e+00
6.347762e+00
6.508932e+00
6.629704e+00
6.713072e+00
6.764421e+00
6.790820e+00
6.800457e+00
6.802798e+00
0.000000e+00
4.354126e-01
7.669742e-01
1.093350e+00
1.406833e+00
1.706376e+00
2.013253e+00
2.312028e+00
2.610599e+00
2.912199e+00
3.209388e+00
3.507739e+00
3.805874e+00
4.100806e+00
4.395842e+00
4.689003e+00
4.979396e+00
5.269252e+00
5.557477e+00
5.844375e+00
6.131938e+00
6.418577e+00
6.701703e+00
6.976870e+00
7.230337e+00
7.443843e+00
7.607659e+00
7.721604e+00
7.790197e+00
7.821600e+00
7.827705e+00
7.823280e+00
7.820698e+00
0.000000e+00
-2.636105e-01
-5.458797e-01
-9.039871e-01
-1.306344e+00
-1.750305e+00
-2.235071e+00
-2.753726e+00
-3.309736e+00
-3.901696e+00
-4.529070e+00
-5.193924e+00
-5.895097e+00
-6.633067e+00
-7.408664e+00
-8.221196e+00
-9.071329e+00
-9.959495e+00
-1.088541e+01
-1.184993e+01
-1.285371e+01
-1.389674e+01
-1.498024e+01
-1.610549e+01
-1.727301e+01
-1.848581e+01
-1.974810e+01
-2.106375e+01
-2.244333e+01
-2.390446e+01
-2.546353e+01
-2.727731e+01
-2.983048e+01
0.000000e+00
-1.654843e-01
-4.630404e-01
-8.174552e-01
-1.222979e+00
-1.666284e+00
-2.150618e+00
-2.670318e+00
-3.225519e+00
-3.817640e+00
-4.445298e+00
-5.109673e+00
-5.811117e+00
-6.549126e+00
-7.324523e+00
-8.137300e+00
-8.987368e+00
-9.875431e+00
-1.080155e+01
-1.176595e+01
-1.276957e+01
-1.381279e+01
-1.489607e+01
-1.602095e+01
-1.718862e+01
-1.840061e+01
-1.966169e+01
-2.097759e+01
-2.235506e+01
-2.380956e+01
-2.538817e+01
-2.718779e+01
-2.945308e+01
0.000000e+00
-1.378254e-01
-4.061208e-01
-7.561138e-01
-1.157372e+00
-1.597431e+00
-2.080751e+00
-2.599663e+00
-3.154116e+00
-3.746161e+00
-4.373476e+00
-5.037513e+00
-5.738955e+00
-6.476786e+00
-7.252132e+00
-8.065028e+00
-8.915090e+00
-9.803312e+00
-1.072974e+01
-1.169435e+01
-1.269831e+01
-1.374207e+01
-1.482571e+01
-1.595111e+01
-1.711974e+01
-1.833260e+01
-1.959530e+01
-2.091428e+01
-2.229663e+01
-2.377171e+01
-2.538779e+01
-2.708411e+01
-2.884765e+01
0.000000e+00
-1.585514e-01
-3.967565e-01
-7.320598e-01
-1.118563e+00
-1.550639e+00
-2.030381e+00
-2.545448e+00
-3.098317e+00
-3.689336e+00
-4.315275e+00
-4.978779e+00
-5.679708e+00
-6.417064e+00
-7.192379e+00
-8.005247e+00
-8.855435e+00
-9.744072e+00
-1.067104e+01
-1.163640e+01
-1.264135e+01
-1.368630e+01
-1.477139e+01
-1.589854e+01
-1.706945e+01
-1.828560e+01
-1.955252e+01
-2.087693e+01
-2.226874e+01
-2.376146e+01
-2.536902e+01
-2.693147e+01
-2.834941e+01
0.000000e+00
-1.891537e-01
-4.249121e-01
-7.427447e-01
-1.111916e+00
-1.533136e+00
-2.003705e+00
-2.512576e+00
-3.062072e+00
-3.650080e+00
-4.274045e+00
-4.936338e+00
-5.636085e+00
-6.372918e+00
-7.147979e+00
-7.960741e+00
-8.811343e+00
-9.700571e+00
-1.062845e+01
-1.159528e+01
-1.260190e+01
-1.364885e+01
-1.473659e+01
-1.586658e+01
-1.704055e+01
-1.826078e+01
-1.953210e+01
-2.086049e+01
-2.225442e+01
-2.373539e+01
-2.527849e+01
-2.672719e+01
-2.799331e+01
0.000000e+00
-1.997620e-01
-4.465086e-01
-7.521664e-01
-1.113546e+00
-1.526028e+00
-1.987351e+00
-2.491929e+00
-3.037433e+00
-3.622498e+00
-4.245446e+00
-4.906461e+00
-5.605453e+00
-6.342174e+00
-7.117010e+00
-7.929998e+00
-8.781276e+00
-9.671339e+00
-1.060056e+01
-1.156934e+01
-1.257830e+01
-1.362801e+01
-1.471914e+01
-1.585262e+01
-1.702983e+01
-1.825299e+01
-1.952615e+01
-2.085347e+01
-2.223407e+01
-2.367691e+01
-2.513044e+01
-2.649991e+01
-2.768894e+01
0.000000e+00
-2.041997e-01
-4.556464e-01
-7.590199e-01
-1.115299e+00
-1.522782e+00
-1.978567e+00
-2.479343e+00
-3.022225e+00
-3.605316e+00
-4.227458e+00
-4.888021e+00
-5.586741e+00
-6.323578e+00
-7.098637e+00
-7.912090e+00
-8.764204e+00
-9.655388e+00
-1.058617e+01
-1.155710e+01
-1.256868e+01
-1.362144e+01
-1.471593e+01
-1.585270e+01
-1.703242e+01
-1.825629e+01
-1.952722e+01
-2.084520e+01
-2.219969e+01
-2.359239e+01
-2.497089e+01
-2.626994e+01
-2.740138e+01
0.000000e+00
-2.060361e-01
-4.593770e-01
-7.625854e-01
-1.116909e+00
-1.521746e+00
-1.974977e+00
-2.473656e+00
-3.015112e+00
-3.597447e+00
-4.219400e+00
-4.880140e+00
-5.579227e+00
-6.316567e+00
-7.092255e+00
-7.906496e+00
-8.759607e+00
-9.652048e+00
-1.058443e+01
-1.155735e+01
-1.257133e+01
-1.362678e+01
-1.472401e+01
-1.586312e+01
-1.704388e+01
-1.826579e+01
-1.952905e+01
-2.082913e+01
-2.215197e+01
-2.349431e+01
-2.481048e+01
-2.604066e+01
-2.711092e+01
0.000000e+00
-2.065081e-01
-4.604596e-01
-7.638552e-01
-1.117897e+00
-1.522283e+00
-1.975144e+00
-2.473689e+00
-3.015282e+00
-3.598031e+00
-4.220639e+00
-4.882203e+00
-5.582222e+00
-6.320558e+00
-7.097284e+00
-7.912616e+00
-8.766892e+00
-9.660593e+00
-1.059436e+01
-1.156885e+01
-1.258457e+01
-1.364182e+01
-1.474065e+01
-1.588053e+01
-1.705992e+01
-1.827610e+01
-1.952632e+01
-2.080399e+01
-2.209556e+01
-2.338953e+01
-2.464882e+01
-2.581091e+01
-2.681703e+01
0.000000e+00
-2.060021e-01
-4.595509e-01
-7.632155e-01
-1.118248e+00
-1.524083e+00
-1.978655e+00
-2.479010e+00
-3.022374e+00
-3.606747e+00
-4.230841e+00
-4.893847e+00
-5.595316e+00
-6.335107e+00
-7.113259e+00
-7.929948e+00
-8.785495e+00
-9.680357e+00
-1.061515e+01
-1.159053e+01
-1.260694e+01
-1.366463e+01
-1.476330e+01
-1.590147e+01
-1.707609e+01
-1.828294e+01
-1.951782e+01
-2.077309e+01
-2.203494e+01
-2.328521e+01
-2.448987e+01
-2.559537e+01
-2.655776e+01
0.000000e+00
-2.041452e-01
-4.560226e-01
-7.603217e-01
-1.118028e+00
-1.527495e+00
-1.985915e+00
-2.489960e+00
-3.036553e+00
-3.623598e+00
-4.249900e+00
-4.914880e+00
-5.618244e+00
-6.359870e+00
-7.139751e+00
-7.957974e+00
-8.814801e+00
-9.710627e+00
-1.064596e+01
-1.162133e+01
-1.263707e+01
-1.369332e+01
-1.478931e+01
-1.592271e+01
-1.708985e+01
-1.828617e+01
-1.950624e+01
-2.074111e+01
-2.197558e+01
-2.318770e+01
-2.434710e+01
-2.541601e+01
-2.636119e+01
0.000000e+00
-1.997136e-01
-4.471426e-01
-7.542252e-01
-1.117774e+00
-1.533247e+00
-1.998452e+00
-2.507754e+00
-3.058575e+00
-3.649278e+00
-4.278173e+00
-4.945523e+00
-5.651164e+00
-6.394733e+00
-7.176454e+00
-7.996181e+00
-8.854022e+00
-9.750401e+00
-1.068554e+01
-1.165972e+01
-1.267322e+01
-1.372592e+01
-1.481676e+01
-1.594334e+01
-1.710237e+01
-1.828915e+01
-1.949670e+01
-2.071410e+01
-2.192430e+01
-2.310548e+01
-2.423363e+01
-2.528347e+01
-2.623012e+01
0.000000e+00
-1.891631e-01
-4.258769e-01
-7.456417e-01
-1.117785e+00
-1.543007e+00
-2.018671e+00
-2.533558e+00
-3.089749e+00
-3.684889e+00
-4.316411e+00
-4.986743e+00
-5.694889e+00
-6.440314e+00
-7.223897e+00
-8.044828e+00
-8.903117e+00
-9.799308e+00
-1.073312e+01
-1.170469e+01
-1.271441e+01
-1.376196e+01
-1.484619e+01
-1.596558e+01
-1.711779e+01
-1.829774e+01
-1.949614e+01
-2.069892e+01
-2.188826e+01
-2.304550e+01
-2.415311e+01
-2.519469e+01
-2.615457e+01
0.000000e+00
-1.586261e-01
-3.979977e-01
-7.357331e-01
-1.125866e+00
-1.562832e+00
-2.048602e+00
-2.570587e+00
-3.131212e+00
-3.730624e+00
-4.365525e+00
-5.038602e+00
-5.749467e+00
-6.496869e+00
-7.282024e+00
-8.104020e+00
-8.962281e+00
-9.857495e+00
-1.078907e+01
-1.175691e+01
-1.276186e+01
-1.380361e+01
-1.488129e+01
-1.599485e+01
-1.714301e+01
-1.831905e+01
-1.950981e+01
-2.069898e+01
-2.187024e+01
-2.300882e+01
-2.410229e+01
-2.514151e+01
-2.612118e+01
0.000000e+00
-1.376729e-01
-4.072657e-01
-7.598490e-01
-1.165052e+00
-1.610316e+00
-2.099974e+00
-2.626128e+00
-3.188704e+00
-3.789711e+00
-4.426672e+00
-5.101064e+00
-5.813340e+00
-6.562085e+00
-7.348122e+00
-8.170825e+00
-9.029149e+00
-9.923524e+00
-1.085326e+01
-1.181804e+01
-1.281890e+01
-1.385585e+01
-1.492876e+01
-1.603885e+01
-1.718457e+01
-1.835602e+01
-1.953737e+01
-2.071300e+01
-2.186895e+01
-2.299295e+01
-2.407594e+01
-2.511472e+01
-2.611483e+01
0.000000e+00
-1.652738e-01
-4.641115e-01
-8.211469e-01
-1.230712e+00
-1.679299e+00
-2.170008e+00
-2.697019e+00
-3.260434e+00
-3.861656e+00
-4.499159e+00
-5.174106e+00
-5.886627e+00
-6.635804e+00
-7.422108e+00
-8.244821e+00
-9.103052e+00
-9.996852e+00
-1.092546e+01
-1.188863e+01
-1.288725e+01
-1.392156e+01
-1.499217e+01
-1.610014e+01
-1.724169e+01
-1.840482e+01
-1.957444e+01
-2.073697e+01
-2.188002e+01
-2.299259e+01
-2.406742e+01
-2.510501e+01
-2.611930e+01
0.000000e+00
-2.636465e-01
-5.471180e-01
-9.078376e-01
-1.314233e+00
-1.763445e+00
-2.254508e+00
-2.780438e+00
-3.344631e+00
-3.945639e+00
-4.582795e+00
-5.258115e+00
-5.970214e+00
-6.719154e+00
-7.505394e+00
-8.327523e+00
-9.185375e+00
-1.007878e+01
-1.100668e+01
-1.196935e+01
-1.296739e+01
-1.400065e+01