TITLE = "Solution"
VARIABLES = x, y, u, v, psiu, psiv, t, stress
ZONE T="structure" N=561 E=512 F=FEBLOCK ET=QUADRILATERAL VARLOCATION=([7,8]=cellcentered)
0.000000e+00
6.250000e+00
1.250000e+01
1.875000e+01
2.500000e+01
3.125000e+01
3.750000e+01
4.375000e+01
5.000000e+01
5.625000e+01
6.250000e+01
6.875000e+01
7.500000e+01
8.125000e+01
8.750000e+01
9.375000e+01
1.000000e+02
1.062500e+02
1.125000e+02
1.187500e+02
1.250000e+02
1.312500e+02
1.375000e+02
1.437500e+02
1.500000e+02
1.562500e+02
1.625000e+02
1.687500e+02
1.750000e+02
1.812500e+02
1.875000e+02
1.937500e+02
2.000000e+02
0.000000e+00
6.250000e+00
1.250000e+01
1.875000e+01
2.500000e+01
3.125000e+01
3.750000e+01
4.375000e+01
5.000000e+01
5.625000e+01
6.250000e+01
6.875000e+01
7.500000e+01
8.125000e+01
8.750000e+01
9.375000e+01
1.000000e+02
1.062500e+02
1.125000e+02
1.187500e+02
1.250000e+02
1.312500e+02
1.375000e+02
1.437500e+02
1.500000e+02
1.562500e+02
1.625000e+02
1.687500e+02
1.750000e+02
1.812500e+02
1.875000e+02
1.937500e+02
2.000000e+02
0.000000e+00
6.250000e+00
1.250000e+01
1.875000e+01
2.500000e+01
3.125000e+01
3.750000e+01
4.375000e+01
5.000000e+01
5.625000e+01
6.250000e+01
6.875000e+01
7.500000e+01
8.125000e+01
8.750000e+01
9.375000e+01
1.000000e+02
1.062500e+02
1.125000e+02
1.187500e+02
1.250000e+02
1.312500e+02
1.375000e+02
1.437500e+02
1.500000e+02
1.562500e+02
1.625000e+02
1.687500e+02
1.750000e+02
1.812500e+02
1.875000e+02
1.937500e+02
2.000000e+02
0.000000e+00
6.250000e+00
1.250000e+01
1.875000e+01
2.500000e+01
3.125000e+01
3.750000e+01
4.375000e+01
5.000000e+01
5.625000e+01
6.250000e+01
6.875000e+01
7.500000e+01
8.125000e+01
8.750000e+01
9.375000e+01
1.000000e+02
1.062500e+02
1.125000e+02
1.187500e+02
1.250000e+02
1.312500e+02
1.375000e+02
1.437500e+02
1.500000e+02
1.562500e+02
1.625000e+02
1.687500e+02
1.750000e+02
1.812500e+02
1.875000e+02
1.937500e+02
2.000000e+02
0.000000e+00
6.250000e+00
1.250000e+01
1.875000e+01
2.500000e+01
3.125000e+01
3.750000e+01
4.375000e+01
5.000000e+01
5.625000e+01
6.250000e+01
6.875000e+01
7.500000e+01
8.125000e+01
8.750000e+01
9.375000e+01
1.000000e+02
1.062500e+02
1.125000e+02
1.187500e+02
1.250000e+02
1.312500e+02
1.375000e+02
1.437500e+02
1.500000e+02
1.562500e+02
1.625000e+02
1.687500e+02
1.750000e+02
1.812500e+02
1.875000e+02
1.937500e+02
2.000000e+02
0.000000e+00
6.250000e+00
1.250000e+01
1.875000e+01
2.500000e+01
3.125000e+01
3.750000e+01
4.375000e+01
5.000000e+01
5.625000e+01
6.250000e+01
6.875000e+01
7.500000e+01
8.125000e+01
8.750000e+01
9.375000e+01
1.000000e+02
1.062500e+02
1.125000e+02
1.187500e+02
1.250000e+02
1.312500e+02
1.375000e+02
1.437500e+02
1.500000e+02
1.562500e+02
1.625000e+02
1.687500e+02
1.750000e+02
1.812500e+02
1.875000e+02
1.937500e+02
2.000000e+02
0.000000e+00
6.250000e+00
1.250000e+01
1.875000e+01
2.500000e+01
3.125000e+01
3.750000e+01
4.375000e+01
5.000000e+01
5.625000e+01
6.250000e+01
6.875000e+01
7.500000e+01
8.125000e+01
8.750000e+01
9.375000e+01
1.000000e+02
1.062500e+02
1.125000e+02
1.187500e+02
1.250000e+02
1.312500e+02
1.375000e+02
1.437500e+02
1.500000e+02
1.562500e+02
1.625000e+02
1.687500e+02
1.750000e+02
1.812500e+02
1.875000e+02
1.937500e+02
2.000000e+02
0.000000e+00
6.250000e+00
1.250000e+01
1.875000e+01
2.500000e+01
3.125000e+01
3.750000e+01
4.375000e+01
5.000000e+01
5.625000e+01
6.250000e+01
6.875000e+01
7.500000e+01
8.125000e+01
8.750000e+01
9.375000e+01
1.000000e+02
1.062500e+02
1.125000e+02
1.187500e+02
1.250000e+02
1.312500e+02
1.375000e+02
1.437500e+02
1.500000e+02
1.562500e+02
1.625000e+02
1.687500e+02
1.750000e+02
1.812500e+02
1.875000e+02
1.937500e+02
2.000000e+02
0.000000e+00
6.250000e+00
1.250000e+01
1.875000e+01
2.500000e+01
3.125000e+01
3.750000e+01
4.375000e+01
5.000000e+01
5.625000e+01
6.250000e+01
6.875000e+01
7.500000e+01
8.125000e+01
8.750000e+01
9.375000e+01
1.000000e+02
1.062500e+02
1.125000e+02
1.187500e+02
1.250000e+02
1.312500e+02
1.375000e+02
1.437500e+02
1.500000e+02
1.562500e+02
1.625000e+02
1.687500e+02
1.750000e+02
1.812500e+02
1.875000e+02
1.937500e+02
2.000000e+02
0.000000e+00
6.250000e+00
1.250000e+01
1.875000e+01
2.500000e+01
3.125000e+01
3.750000e+01
4.375000e+01
5.000000e+01
5.625000e+01
6.250000e+01
6.875000e+01
7.500000e+01
8.125000e+01
8.750000e+01
9.375000e+01
1.000000e+02
1.062500e+02
1.125000e+02
1.187500e+02
1.250000e+02
1.312500e+02
1.375000e+02
1.437500e+02
1.500000e+02
1.562500e+02
1.625000e+02
1.687500e+02
1.750000e+02
1.812500e+02
1.875000e+02
1.937500e+02
2.000000e+02
0.000000e+00
6.250000e+00
1.250000e+01
1.875000e+01
2.500000e+01
3.125000e+01
3.750000e+01
4.375000e+01
5.000000e+01
5.625000e+01
6.250000e+01
6.875000e+01
7.500000e+01
8.125000e+01
8.750000e+01
9.375000e+01
1.000000e+02
1.062500e+02
1.125000e+02
1.187500e+02
1.250000e+02
1.312500e+02
1.375000e+02
1.437500e+02
1.500000e+02
1.562500e+02
1.625000e+02
1.687500e+02
1.750000e+02
1.812500e+02
1.875000e+02
1.937500e+02
2.000000e+02
0.000000e+00
6.250000e+00
1.250000e+01
1.875000e+01
2.500000e+01
3.125000e+01
3.750000e+01
4.375000e+01
5.000000e+01
5.625000e+01
6.250000e+01
6.875000e+01
7.500000e+01
8.125000e+01
8.750000e+01
9.375000e+01
1.000000e+02
1.062500e+02
1.125000e+02
1.187500e+02
1.250000e+02
1.312500e+02
1.375000e+02
1.437500e+02
1.500000e+02
1.562500e+02
1.625000e+02
1.687500e+02
1.750000e+02
1.812500e+02
1.875000e+02
1.937500e+02
2.000000e+02
0.000000e+00
6.250000e+00
1.250000e+01
1.875000e+01
2.500000e+01
3.125000e+01
3.750000e+01
4.375000e+01
5.000000e+01
5.625000e+01
6.250000e+01
6.875000e+01
7.500000e+01
8.125000e+01
8.750000e+01
9.375000e+01
1.000000e+02
1.062500e+02
1.125000e+02
1.187500e+02
1.250000e+02
1.312500e+02
1.375000e+02
1.437500e+02
1.500000e+02
1.562500e+02
1.625000e+02
1.687500e+02
1.750000e+02
1.812500e+02
1.875000e+02
1.937500e+02
2.000000e+02
0.000000e+00
6.250000e+00
1.250000e+01
1.875000e+01
2.500000e+01
3.125000e+01
3.750000e+01
4.375000e+01
5.000000e+01
5.625000e+01
6.250000e+01
6.875000e+01
7.500000e+01
8.125000e+01
8.750000e+01
9.375000e+01
1.000000e+02
1.062500e+02
1.125000e+02
1.187500e+02
1.250000e+02
1.312500e+02
1.375000e+02
1.437500e+02
1.500000e+02
1.562500e+02
1.625000e+02
1.687500e+02
1.750000e+02
1.812500e+02
1.875000e+02
1.937500e+02
2.000000e+02
0.000000e+00
6.250000e+00
1.250000e+01
1.875000e+01
2.500000e+01
3.125000e+01
3.750000e+01
4.375000e+01
5.000000e+01
5.625000e+01
6.250000e+01
6.875000e+01
7.500000e+01
8.125000e+01
8.750000e+01
9.375000e+01
1.000000e+02
1.062500e+02
1.125000e+02
1.187500e+02
1.250000e+02
1.312500e+02
1.375000e+02
1.437500e+02
1.500000e+02
1.562500e+02
1.625000e+02
1.687500e+02
1.750000e+02
1.812500e+02
1.875000e+02
1.937500e+02
2.000000e+02
0.000000e+00
6.250000e+00
1.250000e+01
1.875000e+01
2.500000e+01
3.125000e+01
3.750000e+01
4.375000e+01
5.000000e+01
5.625000e+01
6.250000e+01
6.875000e+01
7.500000e+01
8.125000e+01
8.750000e+01
9.375000e+01
1.000000e+02
1.062500e+02
1.125000e+02
1.187500e+02
1.250000e+02
1.312500e+02
1.375000e+02
1.437500e+02
1.500000e+02
1.562500e+02
1.625000e+02
1.687500e+02
1.750000e+02
1.812500e+02
1.875000e+02
1.937500e+02
2.000000e+02
0.000000e+00
6.250000e+00
1.250000e+01
1.875000e+01
2.500000e+01
3.125000e+01
3.750000e+01
4.375000e+01
5.000000e+01
5.625000e+01
6.250000e+01
6.875000e+01
7.500000e+01
8.125000e+01
8.750000e+01
9.375000e+01
1.000000e+02
1.062500e+02
1.125000e+02
1.187500e+02
1.250000e+02
1.312500e+02
1.375000e+02
1.437500e+02
1.500000e+02
1.562500e+02
1.625000e+02
1.687500e+02
1.750000e+02
1.812500e+02
1.875000e+02
1.937500e+02
2.000000e+02
0.000000e+00
0.000000e+00
0.000000e+00
0.000000e+00
0.000000e+00
0.000000e+00
0.000000e+00
0.000000e+00
0.000000e+00
0.000000e+00
0.000000e+00
0.000000e+00
0.000000e+00
0.000000e+00
0.000000e+00
0.000000e+00
0.000000e+00
0.000000e+00
0.000000e+00
0.000000e+00
0.000000e+00
0.000000e+00
0.000000e+00
0.000000e+00
0.000000e+00
0.000000e+00
0.000000e+00
0.000000e+00
0.000000e+00
0.000000e+00
0.000000e+00
0.000000e+00
0.000000e+00
6.250000e+00
6.250000e+00
6.250000e+00
6.250000e+00
6.250000e+00
6.250000e+00
6.250000e+00
6.250000e+00
6.250000e+00
6.250000e+00
6.250000e+00
6.250000e+00
6.250000e+00
6.250000e+00
6.250000e+00
6.250000e+00
6.250000e+00
6.250000e+00
6.250000e+00
6.250000e+00
6.250000e+00
6.250000e+00
6.250000e+00
6.250000e+00
6.250000e+00
6.250000e+00
6.250000e+00
6.250000e+00
6.250000e+00
6.250000e+00
6.250000e+00
6.250000e+00
6.250000e+00
1.250000e+01
1.250000e+01
1.250000e+01
1.250000e+01
1.250000e+01
1.250000e+01
1.250000e+01
1.250000e+01
1.250000e+01
1.250000e+01
1.250000e+01
1.250000e+01
1.250000e+01
1.250000e+01
1.250000e+01
1.250000e+01
1.250000e+01
1.250000e+01
1.250000e+01
1.250000e+01
1.250000e+01
1.250000e+01
1.250000e+01
1.250000e+01
1.250000e+01
1.250000e+01
1.250000e+01
1.250000e+01
1.250000e+01
1.250000e+01
1.250000e+01
1.250000e+01
1.250000e+01
1.875000e+01
1.875000e+01
1.875000e+01
1.875000e+01
1.875000e+01
1.875000e+01
1.875000e+01
1.875000e+01
1.875000e+01
1.875000e+01
1.875000e+01
1.875000e+01
1.875000e+01
1.875000e+01
1.875000e+01
1.875000e+01
1.875000e+01
1.875000e+01
1.875000e+01
1.875000e+01
1.875000e+01
1.875000e+01
1.875000e+01
1.875000e+01
1.875000e+01
1.875000e+01
1.875000e+01
1.875000e+01
1.875000e+01
1.875000e+01
1.875000e+01
1.875000e+01
1.875000e+01
2.500000e+01
2.500000e+01
2.500000e+01
2.500000e+01
2.500000e+01
2.500000e+01
2.500000e+01
2.500000e+01
2.500000e+01
2.500000e+01
2.500000e+01
2.500000e+01
2.500000e+01
2.500000e+01
2.500000e+01
2.500000e+01
2.500000e+01
2.500000e+01
2.500000e+01
2.500000e+01
2.500000e+01
2.500000e+01
2.500000e+01
2.500000e+01
2.500000e+01
2.500000e+01
2.500000e+01
2.500000e+01
2.500000e+01
2.500000e+01
2.500000e+01
2.500000e+01
2.500000e+01
3.125000e+01
3.125000e+01
3.125000e+01
3.125000e+01
3.125000e+01
3.125000e+01
3.125000e+01
3.125000e+01
3.125000e+01
3.125000e+01
3.125000e+01
3.125000e+01
3.125000e+01
3.125000e+01
3.125000e+01
3.125000e+01
3.125000e+01
3.125000e+01
3.125000e+01
3.125000e+01
3.125000e+01
3.125000e+01
3.125000e+01
3.125000e+01
3.125000e+01
3.125000e+01
3.125000e+01
3.125000e+01
3.125000e+01
3.125000e+01
3.125000e+01
3.125000e+01
3.125000e+01
3.750000e+01
3.750000e+01
3.750000e+01
3.750000e+01
3.750000e+01
3.750000e+01
3.750000e+01
3.750000e+01
3.750000e+01
3.750000e+01
3.750000e+01
3.750000e+01
3.750000e+01
3.750000e+01
3.750000e+01
3.750000e+01
3.750000e+01
3.750000e+01
3.750000e+01
3.750000e+01
3.750000e+01
3.750000e+01
3.750000e+01
3.750000e+01
3.750000e+01
3.750000e+01
3.750000e+01
3.750000e+01
3.750000e+01
3.750000e+01
3.750000e+01
3.750000e+01
3.750000e+01
4.375000e+01
4.375000e+01
4.375000e+01
4.375000e+01
4.375000e+01
4.375000e+01
4.375000e+01
4.375000e+01
4.375000e+01
4.375000e+01
4.375000e+01
4.375000e+01
4.375000e+01
4.375000e+01
4.375000e+01
4.375000e+01
4.375000e+01
4.375000e+01
4.375000e+01
4.375000e+01
4.375000e+01
4.375000e+01
4.375000e+01
4.375000e+01
4.375000e+01
4.375000e+01
4.375000e+01
4.375000e+01
4.375000e+01
4.375000e+01
4.375000e+01
4.375000e+01
4.375000e+01
5.000000e+01
5.000000e+01
5.000000e+01
5.000000e+01
5.000000e+01
5.000000e+01
5.000000e+01
5.000000e+01
5.000000e+01
5.000000e+01
5.000000e+01
5.000000e+01
5.000000e+01
5.000000e+01
5.000000e+01
5.000000e+01
5.000000e+01
5.000000e+01
5.000000e+01
5.000000e+01
5.000000e+01
5.000000e+01
5.000000e+01
5.000000e+01
5.000000e+01
5.000000e+01
5.000000e+01
5.000000e+01
5.000000e+01
5.000000e+01
5.000000e+01
5.000000e+01
5.000000e+01
5.625000e+01
5.625000e+01
5.625000e+01
5.625000e+01
5.625000e+01
5.625000e+01
5.625000e+01
5.625000e+01
5.625000e+01
5.625000e+01
5.625000e+01
5.625000e+01
5.625000e+01
5.625000e+01
5.625000e+01
5.625000e+01
5.625000e+01
5.625000e+01
5.625000e+01
5.625000e+01
5.625000e+01
5.625000e+01
5.625000e+01
5.625000e+01
5.625000e+01
5.625000e+01
5.625000e+01
5.625000e+01
5.625000e+01
5.625000e+01
5.625000e+01
5.625000e+01
5.625000e+01
6.250000e+01
6.250000e+01
6.250000e+01
6.250000e+01
6.250000e+01
6.250000e+01
6.250000e+01
6.250000e+01
6.250000e+01
6.250000e+01
6.250000e+01
6.250000e+01
6.250000e+01
6.250000e+01
6.250000e+01
6.250000e+01
6.250000e+01
6.250000e+01
6.250000e+01
6.250000e+01
6.250000e+01
6.250000e+01
6.250000e+01
6.250000e+01
6.250000e+01
6.250000e+01
6.250000e+01
6.250000e+01
6.250000e+01
6.250000e+01
6.250000e+01
6.250000e+01
6.250000e+01
6.875000e+01
6.875000e+01
6.875000e+01
6.875000e+01
6.875000e+01
6.875000e+01
6.875000e+01
6.875000e+01
6.875000e+01
6.875000e+01
6.875000e+01
6.875000e+01
6.875000e+01
6.875000e+01
6.875000e+01
6.875000e+01
6.875000e+01
6.875000e+01
6.875000e+01
6.875000e+01
6.875000e+01
6.875000e+01
6.875000e+01
6.875000e+01
6.875000e+01
6.875000e+01
6.875000e+01
6.875000e+01
6.875000e+01
6.875000e+01
6.875000e+01
6.875000e+01
6.875000e+01
7.500000e+01
7.500000e+01
7.500000e+01
7.500000e+01
7.500000e+01
7.500000e+01
7.500000e+01
7.500000e+01
7.500000e+01
7.500000e+01
7.500000e+01
7.500000e+01
7.500000e+01
7.500000e+01
7.500000e+01
7.500000e+01
7.500000e+01
7.500000e+01
7.500000e+01
7.500000e+01
7.500000e+01
7.500000e+01
7.500000e+01
7.500000e+01
7.500000e+01
7.500000e+01
7.500000e+01
7.500000e+01
7.500000e+01
7.500000e+01
7.500000e+01
7.500000e+01
7.500000e+01
8.125000e+01
8.125000e+01
8.125000e+01
8.125000e+01
8.125000e+01
8.125000e+01
8.125000e+01
8.125000e+01
8.125000e+01
8.125000e+01
8.125000e+01
8.125000e+01
8.125000e+01
8.125000e+01
8.125000e+01
8.125000e+01
8.125000e+01
8.125000e+01
8.125000e+01
8.125000e+01
8.125000e+01
8.125000e+01
8.125000e+01
8.125000e+01
8.125000e+01
8.125000e+01
8.125000e+01
8.125000e+01
8.125000e+01
8.125000e+01
8.125000e+01
8.125000e+01
8.125000e+01
8.750000e+01
8.750000e+01
8.750000e+01
8.750000e+01
8.750000e+01
8.750000e+01
8.750000e+01
8.750000e+01
8.750000e+01
8.750000e+01
8.750000e+01
8.750000e+01
8.750000e+01
8.750000e+01
8.750000e+01
8.750000e+01
8.750000e+01
8.750000e+01
8.750000e+01
8.750000e+01
8.750000e+01
8.750000e+01
8.750000e+01
8.750000e+01
8.750000e+01
8.750000e+01
8.750000e+01
8.750000e+01
8.750000e+01
8.750000e+01
8.750000e+01
8.750000e+01
8.750000e+01
9.375000e+01
9.375000e+01
9.375000e+01
9.375000e+01
9.375000e+01
9.375000e+01
9.375000e+01
9.375000e+01
9.375000e+01
9.375000e+01
9.375000e+01
9.375000e+01
9.375000e+01
9.375000e+01
9.375000e+01
9.375000e+01
9.375000e+01
9.375000e+01
9.375000e+01
9.375000e+01
9.375000e+01
9.375000e+01
9.375000e+01
9.375000e+01
9.375000e+01
9.375000e+01
9.375000e+01
9.375000e+01
9.375000e+01
9.375000e+01
9.375000e+01
9.375000e+01
9.375000e+01
1.000000e+02
1.000000e+02
1.000000e+02
1.000000e+02
1.000000e+02
1.000000e+02
1.000000e+02
1.000000e+02
1.000000e+02
1.000000e+02
1.000000e+02
1.000000e+02
1.000000e+02
1.000000e+02
1.000000e+02
1.000000e+02
1.000000e+02
1.000000e+02
1.000000e+02
1.000000e+02
1.000000e+02
1.000000e+02
1.000000e+02
1.000000e+02
1.000000e+02
1.000000e+02
1.000000e+02
1.000000e+02
1.000000e+02
1.000000e+02
1.000000e+02
1.000000e+02
1.000000e+02
0.000000e+00
-4.654072e-02
-8.444194e-02
-1.195521e-01
-1.532479e-01
-1.857864e-01
-2.172328e-01
-2.475843e-01
-2.768219e-01
-3.049243e-01
-3.318738e-01
-3.576583e-01
-3.822715e-01
-4.057130e-01
-4.279881e-01
-4.491086e-01
-4.690935e-01
-4.879702e-01
-5.057767e-01
-5.225642e-01
-5.384009e-01
-5.533772e-01
-5.676123e-01
-5.812645e-01
-5.945459e-01
-6.077447e-01
-6.212610e-01
-6.356657e-01
-6.517962e-01
-6.708847e-01
-6.945296e-01
-7.227078e-01
-7.399046e-01
0.000000e+00
-3.120430e-02
-6.492389e-02
-9.671703e-02
-1.269352e-01
-1.558661e-01
-1.836625e-01
-2.103916e-01
-2.360797e-01
-2.607357e-01
-2.843610e-01
-3.069559e-01
-3.285213e-01
-3.490606e-01
-3.685808e-01
-3.870927e-01
-4.046121e-01
-4.211605e-01
-4.367667e-01
-4.514679e-01
-4.653116e-01
-4.783577e-01
-4.906804e-01
-5.023708e-01
-5.135375e-01
-5.243055e-01
-5.348067e-01
-5.451497e-01
-5.553338e-01
-5.650278e-01
-5.731055e-01
-5.778281e-01
-5.844028e-01
0.000000e+00
-2.475132e-02
-5.095655e-02
-7.763764e-02
-1.035634e-01
-1.285338e-01
-1.525328e-01
-1.755831e-01
-1.977052e-01
-2.189131e-01
-2.392156e-01
-2.586191e-01
-2.771291e-01
-2.947509e-01
-3.114911e-01
-3.273579e-01
-3.423615e-01
-3.565148e-01
-3.698338e-01
-3.823375e-01
-3.940478e-01
-4.049882e-01
-4.151822e-01
-4.246478e-01
-4.333887e-01
-4.413770e-01
-4.485212e-01
-4.546111e-01
-4.592348e-01
-4.617245e-01
-4.615062e-01
-4.601082e-01
-4.677856e-01
0.000000e+00
-1.963798e-02
-4.036053e-02
-6.165036e-02
-8.289030e-02
-1.036158e-01
-1.236493e-01
-1.429271e-01
-1.614322e-01
-1.791636e-01
-1.961259e-01
-2.123249e-01
-2.277660e-01
-2.424540e-01
-2.563933e-01
-2.695879e-01
-2.820412e-01
-2.937567e-01
-3.047365e-01
-3.149814e-01
-3.244887e-01
-3.332497e-01
-3.412451e-01
-3.484376e-01
-3.547607e-01
-3.601029e-01
-3.642874e-01
-3.670584e-01
-3.681165e-01
-3.673310e-01
-3.654234e-01
-3.653095e-01
-3.726242e-01
0.000000e+00
-1.524181e-02
-3.121004e-02
-4.768836e-02
-6.430056e-02
-8.070901e-02
-9.668731e-02
-1.121208e-01
-1.269575e-01
-1.411772e-01
-1.547747e-01
-1.677508e-01
-1.801079e-01
-1.918480e-01
-2.029719e-01
-2.134787e-01
-2.233650e-01
-2.326249e-01
-2.412489e-01
-2.492224e-01
-2.565241e-01
-2.631227e-01
-2.689731e-01
-2.740111e-01
-2.781476e-01
-2.812655e-01
-2.832275e-01
-2.839158e-01
-2.833511e-01
-2.819696e-01
-2.810732e-01
-2.831431e-01
-2.893829e-01
0.000000e+00
-1.120185e-02
-2.288363e-02
-3.494070e-02
-4.716475e-02
-5.932758e-02
-7.124805e-02
-8.280840e-02
-9.394400e-02
-1.046234e-01
-1.148334e-01
-1.245693e-01
-1.338295e-01
-1.426122e-01
-1.509141e-01
-1.587294e-01
-1.660488e-01
-1.728589e-01
-1.791412e-01
-1.848713e-01
-1.900167e-01
-1.945359e-01
-1.983760e-01
-2.014725e-01
-2.037520e-01
-2.051429e-01
-2.056043e-01
-2.051902e-01
-2.041696e-01
-2.031985e-01
-2.034349e-01
-2.060736e-01
-2.112366e-01
0.000000e+00
-7.372162e-03
-1.503593e-02
-2.294281e-02
-3.098006e-02
-3.901238e-02
-4.691865e-02
-5.461057e-02
-6.203287e-02
-6.915508e-02
-7.596178e-02
-8.244522e-02
-8.860044e-02
-9.442232e-02
-9.990383e-02
-1.050349e-01
-1.098018e-01
-1.141861e-01
-1.181644e-01
-1.217072e-01
-1.247791e-01
-1.273383e-01
-1.293384e-01
-1.307322e-01
-1.314810e-01
-1.315739e-01
-1.310619e-01
-1.301144e-01
-1.290920e-01
-1.285964e-01
-1.293697e-01
-1.319387e-01
-1.361064e-01
0.000000e+00
-3.661751e-03
-7.461937e-03
-1.138103e-02
-1.536953e-02
-1.936442e-02
-2.330588e-02
-2.714709e-02
-3.085640e-02
-3.441449e-02
-3.780992e-02
-4.103511e-02
-4.408345e-02
-4.694740e-02
-4.961718e-02
-5.207998e-02
-5.431928e-02
-5.631441e-02
-5.804028e-02
-5.946749e-02
-6.056307e-02
-6.129232e-02
-6.162267e-02
-6.153079e-02
-6.101487e-02
-6.011428e-02
-5.893801e-02
-5.769862e-02
-5.673648e-02
-5.649546e-02
-5.740267e-02
-5.964382e-02
-6.295074e-02
0.000000e+00
-5.907896e-06
-1.281000e-05
-2.032395e-05
-2.805451e-05
-3.546877e-05
-4.176360e-05
-4.571856e-05
-4.552394e-05
-3.857381e-05
-2.121623e-05
1.154393e-05
6.638890e-05
1.520712e-04
2.798179e-04
4.637202e-04
7.210492e-04
1.072399e-03
1.541504e-03
2.154491e-03
2.938224e-03
3.917221e-03
5.108466e-03
6.513250e-03
8.105257e-03
9.814751e-03
1.151085e-02
1.298854e-02
1.397497e-02
1.417501e-02
1.336955e-02
1.154544e-02
8.990677e-03
0.000000e+00
3.650623e-03
7.437760e-03
1.134259e-02
1.531635e-02
1.929700e-02
2.322619e-02
2.705939e-02
3.076834e-02
3.433857e-02
3.776549e-02
4.105089e-02
4.420074e-02
4.722397e-02
5.013200e-02
5.293864e-02
5.566011e-02
5.831488e-02
6.092319e-02
6.350590e-02
6.608228e-02
6.866655e-02
7.126237e-02
7.385534e-02
7.640330e-02
7.882586e-02
8.099620e-02
8.274181e-02
8.386341e-02
8.418095e-02
8.360586e-02
8.222017e-02
8.032403e-02
0.000000e+00
7.363072e-03
1.501604e-02
2.291097e-02
3.093565e-02
3.895556e-02
4.685071e-02
5.453461e-02
6.195468e-02
6.908435e-02
7.591373e-02
8.244267e-02
8.867646e-02
9.462349e-02
1.002942e-01
1.057007e-01
1.108564e-01
1.157762e-01
1.204752e-01
1.249681e-01
1.292664e-01
1.333756e-01
1.372902e-01
1.409875e-01
1.444211e-01
1.475148e-01
1.501610e-01
1.522278e-01
1.535806e-01
1.541215e-01
1.538434e-01
1.528845e-01
1.515611e-01
0.000000e+00
1.119605e-02
2.287071e-02
3.491966e-02
4.713488e-02
5.928859e-02
7.120034e-02
8.275348e-02
9.388506e-02
1.045661e-01
1.147869e-01
1.245476e-01
1.338532e-01
1.427110e-01
1.511293e-01
1.591171e-01
1.666837e-01
1.738388e-01
1.805915e-01
1.869496e-01
1.929177e-01
1.984942e-01
2.036684e-01
2.084159e-01
2.126947e-01
2.164427e-01
2.195791e-01
2.220132e-01
2.236639e-01
2.244911e-01
2.245376e-01
2.239751e-01
2.231388e-01
0.000000e+00
1.524037e-02
3.120644e-02
4.768191e-02
6.429059e-02
8.069496e-02
9.666882e-02
1.120979e-01
1.269305e-01
1.411474e-01
1.547444e-01
1.677239e-01
1.800905e-01
1.918494e-01
2.030056e-01
2.135636e-01
2.235273e-01
2.329001e-01
2.416843e-01
2.498801e-01
2.574852e-01
2.644926e-01
2.708888e-01
2.766516e-01
2.817488e-01
2.861374e-01
2.897674e-01
2.925885e-01
2.945656e-01
2.957015e-01
2.960700e-01
2.958588e-01
2.954182e-01
0.000000e+00
1.964163e-02
4.036794e-02
6.166139e-02
8.290464e-02
1.036330e-01
1.236688e-01
1.429480e-01
1.614527e-01
1.791814e-01
1.961371e-01
2.123238e-01
2.277445e-01
2.424010e-01
2.562935e-01
2.694208e-01
2.817806e-01
2.933687e-01
3.041794e-01
3.142051e-01
3.234357e-01
3.318583e-01
3.394568e-01
3.462122e-01
3.521028e-01
3.571067e-01
3.612049e-01
3.643884e-01
3.666668e-01
3.680827e-01
3.687340e-01
3.688116e-01
3.686655e-01
0.000000e+00
2.476023e-02
5.097556e-02
7.766742e-02
1.036045e-01
1.285867e-01
1.525976e-01
1.756591e-01
1.977902e-01
2.190027e-01
2.393021e-01
2.586902e-01
2.771656e-01
2.947249e-01
3.113625e-01
3.270708e-01
3.418403e-01
3.556589e-01
3.685119e-01
3.803822e-01
3.912504e-01
4.010953e-01
4.098955e-01
4.176313e-01
4.242880e-01
4.298606e-01
4.343591e-01
4.378152e-01
4.402888e-01
4.418730e-01
4.427022e-01
4.429723e-01
4.430046e-01
0.000000e+00
3.121766e-02
6.495310e-02
9.676401e-02
1.270022e-01
1.559555e-01
1.837763e-01
2.105307e-01
2.362438e-01
2.609213e-01
2.845606e-01
3.071551e-01
3.286964e-01
3.491745e-01
3.685778e-01
3.868926e-01
4.041021e-01
4.201860e-01
4.351203e-01
4.488766e-01
4.614234e-01
4.727268e-01
4.827535e-01
4.914746e-01
4.988722e-01
5.049465e-01
5.097264e-01
5.132790e-01
5.157195e-01
5.172148e-01
5.179788e-01
5.182558e-01
5.183237e-01
0.000000e+00
4.655535e-02
8.447609e-02
1.196106e-01
1.533355e-01
1.859078e-01
2.173930e-01
2.477880e-01
2.770728e-01
3.052239e-01
3.322196e-01
3.580411e-01
3.826719e-01
4.060962e-01
4.282977e-01
4.492578e-01
4.689542e-01
4.873596e-01
5.044402e-01
5.201556e-01
5.344585e-01
5.472963e-01
5.586137e-01
5.683591e-01
5.764921e-01
5.829962e-01
5.878947e-01
5.912693e-01
5.932807e-01
5.941870e-01
5.943517e-01
5.942153e-01
5.941385e-01
0.000000e+00
-2.876128e-02
-5.019464e-02
-7.358360e-02
-9.962861e-02
-1.290490e-01
-1.620494e-01
-1.986869e-01
-2.389252e-01
-2.826780e-01
-3.298294e-01
-3.802458e-01
-4.337835e-01
-4.902927e-01
-5.496205e-01
-6.116131e-01
-6.761173e-01
-7.429830e-01
-8.120650e-01
-8.832263e-01
-9.563432e-01
-1.031311e+00
-1.108057e+00
-1.186549e+00
-1.266828e+00
-1.349042e+00
-1.433518e+00
-1.520894e+00
-1.612389e+00
-1.710419e+00
-1.820194e+00
-1.954011e+00
-2.138881e+00
0.000000e+00
-1.787404e-02
-4.030912e-02
-6.385586e-02
-9.026388e-02
-1.200039e-01
-1.533249e-01
-1.902831e-01
-2.308453e-01
-2.749251e-01
-3.224061e-01
-3.731535e-01
-4.270224e-01
-4.838618e-01
-5.435173e-01
-6.058336e-01
-6.706557e-01
-7.378311e-01
-8.072118e-01
-8.786575e-01
-9.520402e-01
-1.027250e+00
-1.104206e+00
-1.182870e+00
-1.263271e+00
-1.345542e+00
-1.429995e+00
-1.517248e+00
-1.608493e+00
-1.706107e+00
-1.815035e+00
-1.945872e+00
-2.118588e+00
0.000000e+00
-1.312951e-02
-3.249702e-02
-5.572255e-02
-8.217671e-02
-1.121359e-01
-1.457199e-01
-1.829598e-01
-2.238108e-01
-2.681827e-01
-3.159568e-01
-3.669975e-01
-4.211592e-01
-4.782901e-01
-5.382356e-01
-6.008396e-01
-6.659464e-01
-7.334026e-01
-8.030593e-01
-8.747749e-01
-9.484204e-01
-1.023885e+00
-1.101088e+00
-1.179991e+00
-1.260627e+00
-1.343139e+00
-1.427849e+00
-1.515392e+00
-1.606947e+00
-1.704653e+00
-1.812163e+00
-1.933796e+00
-2.068722e+00
0.000000e+00
-1.051356e-02
-2.751842e-02
-4.950545e-02
-7.561963e-02
-1.055695e-01
-1.392972e-01
-1.767457e-01
-2.178345e-01
-2.624566e-01
-3.104859e-01
-3.617835e-01
-4.162024e-01
-4.735907e-01
-5.337938e-01
-5.966560e-01
-6.620222e-01
-7.297395e-01
-7.996598e-01
-8.716429e-01
-9.455611e-01
-1.021307e+00
-1.098802e+00
-1.178017e+00
-1.258990e+00
-1.341871e+00
-1.426981e+00
-1.514902e+00
-1.606602e+00
-1.703488e+00
-1.806910e+00
-1.915987e+00
-2.017527e+00
0.000000e+00
-8.896200e-03
-2.426260e-02
-4.509057e-02
-7.060946e-02
-1.003630e-01
-1.341033e-01
-1.716735e-01
-2.129379e-01
-2.577615e-01
-3.060043e-01
-3.575208e-01
-4.121615e-01
-4.697739e-01
-5.302041e-01
-5.932975e-01
-6.589005e-01
-7.268620e-01
-7.970358e-01
-8.692840e-01
-9.434821e-01
-1.019525e+00
-1.097340e+00
-1.176896e+00
-1.258231e+00
-1.341477e+00
-1.426893e+00
-1.514901e+00
-1.606055e+00
-1.700803e+00
-1.798693e+00
-1.896131e+00
-1.984562e+00
0.000000e+00
-7.867061e-03
-2.212637e-02
-4.205244e-02
-6.699689e-02
-9.647172e-02
-1.301387e-01
-1.677570e-01
-2.091369e-01
-2.541116e-01
-3.025235e-01
-3.542186e-01
-4.090438e-01
-4.668460e-01
-5.274717e-01
-5.907682e-01
-6.565838e-01
-7.247695e-01
-7.951816e-01
-8.676845e-01
-9.421551e-01
-1.018490e+00
-1.096612e+00
-1.176483e+00
-1.258119e+00
-1.341597e+00
-1.427065e+00
-1.514707e+00
-1.604625e+00
-1.696515e+00
-1.788978e+00
-1.878709e+00
-1.960723e+00
0.000000e+00
-7.227463e-03
-2.077574e-02
-4.007759e-02
-6.457674e-02
-9.379758e-02
-1.273646e-01
-1.649876e-01
-2.064358e-01
-2.515150e-01
-3.000515e-01
-3.518832e-01
-4.068532e-01
-4.648078e-01
-5.255945e-01
-5.890621e-01
-6.550610e-01
-7.234446e-01
-7.940705e-01
-8.668040e-01
-9.415211e-01
-1.018114e+00
-1.096495e+00
-1.176606e+00
-1.258420e+00
-1.341937e+00
-1.427165e+00
-1.514056e+00
-1.602358e+00
-1.691352e+00
-1.779501e+00
-1.864260e+00
-1.942518e+00
0.000000e+00
-6.875994e-03
-2.002631e-02
-3.896473e-02
-6.318899e-02
-9.223991e-02
-1.257299e-01
-1.633446e-01
-2.048297e-01
-2.499736e-01
-2.985918e-01
-3.505165e-01
-4.055888e-01
-4.636549e-01
-5.245634e-01
-5.881649e-01
-6.543115e-01
-7.228578e-01
-7.936620e-01
-8.665879e-01
-9.415072e-01
-1.018302e+00
-1.096868e+00
-1.177115e+00
-1.258962e+00
-1.342325e+00
-1.427081e+00
-1.513000e+00
-1.599621e+00
-1.686095e+00
-1.771031e+00
-1.852518e+00
-1.928431e+00
0.000000e+00
-6.762752e-03
-1.978452e-02
-3.860404e-02
-6.273671e-02
-9.173011e-02
-1.251944e-01
-1.628085e-01
-2.043111e-01
-2.494852e-01
-2.981433e-01
-3.501163e-01
-4.052457e-01
-4.633785e-01
-5.243649e-01
-5.880571e-01
-6.543082e-01
-7.229735e-01
-7.939099e-01
-8.669777e-01
-9.420409e-01
-1.018968e+00
-1.097632e+00
-1.177904e+00
-1.259651e+00
-1.342709e+00
-1.426852e+00
-1.511734e+00
-1.596806e+00
-1.681231e+00
-1.763832e+00
-1.843153e+00
-1.917636e+00
0.000000e+00
-6.872719e-03
-2.002176e-02
-3.896081e-02
-6.318781e-02
-9.224406e-02
-1.257428e-01
-1.633708e-01
-2.048753e-01
-2.500464e-01
-2.987021e-01
-3.506770e-01
-4.058153e-01
-4.639664e-01
-5.249822e-01
-5.887161e-01
-6.550222e-01
-7.237548e-01
-7.947688e-01
-8.679190e-01
-9.430596e-01
-1.020043e+00
-1.098716e+00
-1.178916e+00
-1.260457e+00
-1.343112e+00
-1.426586e+00
-1.510471e+00
-1.594204e+00
-1.677020e+00
-1.757953e+00
-1.835872e+00
-1.909590e+00
0.000000e+00
-7.221177e-03
-2.076702e-02
-4.007005e-02
-6.457437e-02
-9.380538e-02
-1.273891e-01
-1.650376e-01
-2.065229e-01
-2.516543e-01
-3.002626e-01
-3.521905e-01
-4.072872e-01
-4.654050e-01
-5.263978e-01
-5.901200e-01
-6.564257e-01
-7.251682e-01
-7.961989e-01
-8.693664e-01
-9.445143e-01
-1.021478e+00
-1.100082e+00
-1.180128e+00
-1.261391e+00
-1.343596e+00
-1.426406e+00
-1.509389e+00
-1.592004e+00
-1.673582e+00
-1.753342e+00
-1.830411e+00
-1.903879e+00
0.000000e+00
-7.858324e-03
-2.211424e-02
-4.204190e-02
-6.699348e-02
-9.648240e-02
-1.301726e-01
-1.678265e-01
-2.092582e-01
-2.543058e-01
-3.028180e-01
-3.546479e-01
-4.096504e-01
-4.676812e-01
-5.285959e-01
-5.922494e-01
-6.584956e-01
-7.271861e-01
-7.981688e-01
-8.712858e-01
-9.463709e-01
-1.023245e+00
-1.101710e+00
-1.181542e+00
-1.262484e+00
-1.344230e+00
-1.426417e+00
-1.508613e+00
-1.590314e+00
-1.670950e+00
-1.749899e+00
-1.826516e+00
-1.900134e+00
0.000000e+00
-8.885908e-03
-2.424832e-02
-4.507815e-02
-7.060551e-02
-1.003759e-01
-1.341443e-01
-1.717574e-01
-2.130843e-01
-2.579962e-01
-3.063602e-01
-3.580398e-01
-4.128950e-01
-4.707843e-01
-5.315644e-01
-5.950904e-01
-6.612156e-01
-7.297898e-01
-8.006575e-01
-8.736556e-01
-9.486091e-01
-1.025327e+00
-1.103594e+00
-1.183169e+00
-1.263769e+00
-1.345070e+00
-1.426695e+00
-1.508222e+00
-1.589186e+00
-1.669102e+00
-1.747496e+00
-1.823929e+00
-1.897992e+00
0.000000e+00
-1.050298e-02
-2.750377e-02
-4.949282e-02
-7.561624e-02
-1.055847e-01
-1.393433e-01
-1.768393e-01
-2.179973e-01
-2.627170e-01
-3.108805e-01
-3.623582e-01
-4.170141e-01
-4.747080e-01
-5.352971e-01
-5.986365e-01
-6.645783e-01
-7.329710e-01
-8.036563e-01
-8.764669e-01
-9.512215e-01
-1.027720e+00
-1.105738e+00
-1.185019e+00
-1.265267e+00
-1.346146e+00
-1.427276e+00
-1.508243e+00
-1.588616e+00
-1.667981e+00
-1.745985e+00
-1.822385e+00
-1.897058e+00
0.000000e+00
-1.312029e-02
-3.248419e-02
-5.571189e-02
-8.217569e-02
-1.121544e-01
-1.457709e-01
-1.830605e-01
-2.239838e-01
-2.684575e-01
-3.163710e-01
-3.675987e-01
-4.220057e-01
-4.794524e-01
-5.397958e-01
-6.028903e-01
-6.685874e-01
-7.367339e-01
-8.071698e-01
-8.797247e-01
-9.542137e-01
-1.030432e+00
-1.108148e+00
-1.187098e+00
-1.266983e+00
-1.347460e+00
-1.428150e+00
-1.508650e+00
-1.588552e+00
-1.667490e+00
-1.745202e+00
-1.821609e+00
-1.896895e+00
0.000000e+00
-1.786811e-02
-4.030039e-02
-6.384959e-02
-9.026776e-02
-1.200280e-01
-1.533823e-01
-1.903912e-01
-2.310265e-01
-2.752087e-01
-3.228292e-01
-3.737627e-01
-4.278747e-01
-4.850251e-01
-5.450707e-01
-6.078650e-01
-6.732585e-01
-7.410969e-01
-8.112184e-01
-8.834509e-01
-9.576072e-01
-1.033480e+00
-1.110836e+00
-1.189412e+00
-1.268904e+00
-1.348976e+00
-1.429255e+00
-1.509347e+00
-1.588863e+00
-1.667467e+00
-1.744947e+00
-1.821328e+00
-1.897033e+00
0.000000e+00
-2.876044e-02
-5.019173e-02
-7.358416e-02
-9.964036e-02
-1.290821e-01
-1.621169e-01
-1.988060e-01
-2.391179e-01
-2.829728e-01
-3.302619e-01
-3.808605e-01
-4.346341e-01
-4.914424e-01
-5.511416e-01
-6.135846e-01
-6.786207e-01
-7.460938e-01
-8.158406e-01
-8.876872e-01
-9.614447e-01
-1.036905e+00
-1.113834e+00