TITLE = "Solution"
VARIABLES = x, y, u, v, psiu, psiv, t, stress
ZONE T="structure" N=561 E=512 F=FEBLOCK ET=QUADRILATERAL VARLOCATION=([7,8]=cellcentered)
0.000000e+00
6.250000e+00
1.250000e+01
1.875000e+01
2.500000e+01
3.125000e+01
3.750000e+01
4.375000e+01
5.000000e+01
5.625000e+01
6.250000e+01
6.875000e+01
7.500000e+01
8.125000e+01
8.750000e+01
9.375000e+01
1.000000e+02
1.062500e+02
1.125000e+02
1.187500e+02
1.250000e+02
1.312500e+02
1.375000e+02
1.437500e+02
1.500000e+02
1.562500e+02
1.625000e+02
1.687500e+02
1.750000e+02
1.812500e+02
1.875000e+02
1.937500e+02
2.000000e+02
0.000000e+00
6.250000e+00
1.250000e+01
1.875000e+01
2.500000e+01
3.125000e+01
3.750000e+01
4.375000e+01
5.000000e+01
5.625000e+01
6.250000e+01
6.875000e+01
7.500000e+01
8.125000e+01
8.750000e+01
9.375000e+01
1.000000e+02
1.062500e+02
1.125000e+02
1.187500e+02
1.250000e+02
1.312500e+02
1.375000e+02
1.437500e+02
1.500000e+02
1.562500e+02
1.625000e+02
1.687500e+02
1.750000e+02
1.812500e+02
1.875000e+02
1.937500e+02
2.000000e+02
0.000000e+00
6.250000e+00
1.250000e+01
1.875000e+01
2.500000e+01
3.125000e+01
3.750000e+01
4.375000e+01
5.000000e+01
5.625000e+01
6.250000e+01
6.875000e+01
7.500000e+01
8.125000e+01
8.750000e+01
9.375000e+01
1.000000e+02
1.062500e+02
1.125000e+02
1.187500e+02
1.250000e+02
1.312500e+02
1.375000e+02
1.437500e+02
1.500000e+02
1.562500e+02
1.625000e+02
1.687500e+02
1.750000e+02
1.812500e+02
1.875000e+02
1.937500e+02
2.000000e+02
0.000000e+00
6.250000e+00
1.250000e+01
1.875000e+01
2.500000e+01
3.125000e+01
3.750000e+01
4.375000e+01
5.000000e+01
5.625000e+01
6.250000e+01
6.875000e+01
7.500000e+01
8.125000e+01
8.750000e+01
9.375000e+01
1.000000e+02
1.062500e+02
1.125000e+02
1.187500e+02
1.250000e+02
1.312500e+02
1.375000e+02
1.437500e+02
1.500000e+02
1.562500e+02
1.625000e+02
1.687500e+02
1.750000e+02
1.812500e+02
1.875000e+02
1.937500e+02
2.000000e+02
0.000000e+00
6.250000e+00
1.250000e+01
1.875000e+01
2.500000e+01
3.125000e+01
3.750000e+01
4.375000e+01
5.000000e+01
5.625000e+01
6.250000e+01
6.875000e+01
7.500000e+01
8.125000e+01
8.750000e+01
9.375000e+01
1.000000e+02
1.062500e+02
1.125000e+02
1.187500e+02
1.250000e+02
1.312500e+02
1.375000e+02
1.437500e+02
1.500000e+02
1.562500e+02
1.625000e+02
1.687500e+02
1.750000e+02
1.812500e+02
1.875000e+02
1.937500e+02
2.000000e+02
0.000000e+00
6.250000e+00
1.250000e+01
1.875000e+01
2.500000e+01
3.125000e+01
3.750000e+01
4.375000e+01
5.000000e+01
5.625000e+01
6.250000e+01
6.875000e+01
7.500000e+01
8.125000e+01
8.750000e+01
9.375000e+01
1.000000e+02
1.062500e+02
1.125000e+02
1.187500e+02
1.250000e+02
1.312500e+02
1.375000e+02
1.437500e+02
1.500000e+02
1.562500e+02
1.625000e+02
1.687500e+02
1.750000e+02
1.812500e+02
1.875000e+02
1.937500e+02
2.000000e+02
0.000000e+00
6.250000e+00
1.250000e+01
1.875000e+01
2.500000e+01
3.125000e+01
3.750000e+01
4.375000e+01
5.000000e+01
5.625000e+01
6.250000e+01
6.875000e+01
7.500000e+01
8.125000e+01
8.750000e+01
9.375000e+01
1.000000e+02
1.062500e+02
1.125000e+02
1.187500e+02
1.250000e+02
1.312500e+02
1.375000e+02
1.437500e+02
1.500000e+02
1.562500e+02
1.625000e+02
1.687500e+02
1.750000e+02
1.812500e+02
1.875000e+02
1.937500e+02
2.000000e+02
0.000000e+00
6.250000e+00
1.250000e+01
1.875000e+01
2.500000e+01
3.125000e+01
3.750000e+01
4.375000e+01
5.000000e+01
5.625000e+01
6.250000e+01
6.875000e+01
7.500000e+01
8.125000e+01
8.750000e+01
9.375000e+01
1.000000e+02
1.062500e+02
1.125000e+02
1.187500e+02
1.250000e+02
1.312500e+02
1.375000e+02
1.437500e+02
1.500000e+02
1.562500e+02
1.625000e+02
1.687500e+02
1.750000e+02
1.812500e+02
1.875000e+02
1.937500e+02
2.000000e+02
0.000000e+00
6.250000e+00
1.250000e+01
1.875000e+01
2.500000e+01
3.125000e+01
3.750000e+01
4.375000e+01
5.000000e+01
5.625000e+01
6.250000e+01
6.875000e+01
7.500000e+01
8.125000e+01
8.750000e+01
9.375000e+01
1.000000e+02
1.062500e+02
1.125000e+02
1.187500e+02
1.250000e+02
1.312500e+02
1.375000e+02
1.437500e+02
1.500000e+02
1.562500e+02
1.625000e+02
1.687500e+02
1.750000e+02
1.812500e+02
1.875000e+02
1.937500e+02
2.000000e+02
0.000000e+00
6.250000e+00
1.250000e+01
1.875000e+01
2.500000e+01
3.125000e+01
3.750000e+01
4.375000e+01
5.000000e+01
5.625000e+01
6.250000e+01
6.875000e+01
7.500000e+01
8.125000e+01
8.750000e+01
9.375000e+01
1.000000e+02
1.062500e+02
1.125000e+02
1.187500e+02
1.250000e+02
1.312500e+02
1.375000e+02
1.437500e+02
1.500000e+02
1.562500e+02
1.625000e+02
1.687500e+02
1.750000e+02
1.812500e+02
1.875000e+02
1.937500e+02
2.000000e+02
0.000000e+00
6.250000e+00
1.250000e+01
1.875000e+01
2.500000e+01
3.125000e+01
3.750000e+01
4.375000e+01
5.000000e+01
5.625000e+01
6.250000e+01
6.875000e+01
7.500000e+01
8.125000e+01
8.750000e+01
9.375000e+01
1.000000e+02
1.062500e+02
1.125000e+02
1.187500e+02
1.250000e+02
1.312500e+02
1.375000e+02
1.437500e+02
1.500000e+02
1.562500e+02
1.625000e+02
1.687500e+02
1.750000e+02
1.812500e+02
1.875000e+02
1.937500e+02
2.000000e+02
0.000000e+00
6.250000e+00
1.250000e+01
1.875000e+01
2.500000e+01
3.125000e+01
3.750000e+01
4.375000e+01
5.000000e+01
5.625000e+01
6.250000e+01
6.875000e+01
7.500000e+01
8.125000e+01
8.750000e+01
9.375000e+01
1.000000e+02
1.062500e+02
1.125000e+02
1.187500e+02
1.250000e+02
1.312500e+02
1.375000e+02
1.437500e+02
1.500000e+02
1.562500e+02
1.625000e+02
1.687500e+02
1.750000e+02
1.812500e+02
1.875000e+02
1.937500e+02
2.000000e+02
0.000000e+00
6.250000e+00
1.250000e+01
1.875000e+01
2.500000e+01
3.125000e+01
3.750000e+01
4.375000e+01
5.000000e+01
5.625000e+01
6.250000e+01
6.875000e+01
7.500000e+01
8.125000e+01
8.750000e+01
9.375000e+01
1.000000e+02
1.062500e+02
1.125000e+02
1.187500e+02
1.250000e+02
1.312500e+02
1.375000e+02
1.437500e+02
1.500000e+02
1.562500e+02
1.625000e+02
1.687500e+02
1.750000e+02
1.812500e+02
1.875000e+02
1.937500e+02
2.000000e+02
0.000000e+00
6.250000e+00
1.250000e+01
1.875000e+01
2.500000e+01
3.125000e+01
3.750000e+01
4.375000e+01
5.000000e+01
5.625000e+01
6.250000e+01
6.875000e+01
7.500000e+01
8.125000e+01
8.750000e+01
9.375000e+01
1.000000e+02
1.062500e+02
1.125000e+02
1.187500e+02
1.250000e+02
1.312500e+02
1.375000e+02
1.437500e+02
1.500000e+02
1.562500e+02
1.625000e+02
1.687500e+02
1.750000e+02
1.812500e+02
1.875000e+02
1.937500e+02
2.000000e+02
0.000000e+00
6.250000e+00
1.250000e+01
1.875000e+01
2.500000e+01
3.125000e+01
3.750000e+01
4.375000e+01
5.000000e+01
5.625000e+01
6.250000e+01
6.875000e+01
7.500000e+01
8.125000e+01
8.750000e+01
9.375000e+01
1.000000e+02
1.062500e+02
1.125000e+02
1.187500e+02
1.250000e+02
1.312500e+02
1.375000e+02
1.437500e+02
1.500000e+02
1.562500e+02
1.625000e+02
1.687500e+02
1.750000e+02
1.812500e+02
1.875000e+02
1.937500e+02
2.000000e+02
0.000000e+00
6.250000e+00
1.250000e+01
1.875000e+01
2.500000e+01
3.125000e+01
3.750000e+01
4.375000e+01
5.000000e+01
5.625000e+01
6.250000e+01
6.875000e+01
7.500000e+01
8.125000e+01
8.750000e+01
9.375000e+01
1.000000e+02
1.062500e+02
1.125000e+02
1.187500e+02
1.250000e+02
1.312500e+02
1.375000e+02
1.437500e+02
1.500000e+02
1.562500e+02
1.625000e+02
1.687500e+02
1.750000e+02
1.812500e+02
1.875000e+02
1.937500e+02
2.000000e+02
0.000000e+00
6.250000e+00
1.250000e+01
1.875000e+01
2.500000e+01
3.125000e+01
3.750000e+01
4.375000e+01
5.000000e+01
5.625000e+01
6.250000e+01
6.875000e+01
7.500000e+01
8.125000e+01
8.750000e+01
9.375000e+01
1.000000e+02
1.062500e+02
1.125000e+02
1.187500e+02
1.250000e+02
1.312500e+02
1.375000e+02
1.437500e+02
1.500000e+02
1.562500e+02
1.625000e+02
1.687500e+02
1.750000e+02
1.812500e+02
1.875000e+02
1.937500e+02
2.000000e+02
0.000000e+00
0.000000e+00
0.000000e+00
0.000000e+00
0.000000e+00
0.000000e+00
0.000000e+00
0.000000e+00
0.000000e+00
0.000000e+00
0.000000e+00
0.000000e+00
0.000000e+00
0.000000e+00
0.000000e+00
0.000000e+00
0.000000e+00
0.000000e+00
0.000000e+00
0.000000e+00
0.000000e+00
0.000000e+00
0.000000e+00
0.000000e+00
0.000000e+00
0.000000e+00
0.000000e+00
0.000000e+00
0.000000e+00
0.000000e+00
0.000000e+00
0.000000e+00
0.000000e+00
6.250000e+00
6.250000e+00
6.250000e+00
6.250000e+00
6.250000e+00
6.250000e+00
6.250000e+00
6.250000e+00
6.250000e+00
6.250000e+00
6.250000e+00
6.250000e+00
6.250000e+00
6.250000e+00
6.250000e+00
6.250000e+00
6.250000e+00
6.250000e+00
6.250000e+00
6.250000e+00
6.250000e+00
6.250000e+00
6.250000e+00
6.250000e+00
6.250000e+00
6.250000e+00
6.250000e+00
6.250000e+00
6.250000e+00
6.250000e+00
6.250000e+00
6.250000e+00
6.250000e+00
1.250000e+01
1.250000e+01
1.250000e+01
1.250000e+01
1.250000e+01
1.250000e+01
1.250000e+01
1.250000e+01
1.250000e+01
1.250000e+01
1.250000e+01
1.250000e+01
1.250000e+01
1.250000e+01
1.250000e+01
1.250000e+01
1.250000e+01
1.250000e+01
1.250000e+01
1.250000e+01
1.250000e+01
1.250000e+01
1.250000e+01
1.250000e+01
1.250000e+01
1.250000e+01
1.250000e+01
1.250000e+01
1.250000e+01
1.250000e+01
1.250000e+01
1.250000e+01
1.250000e+01
1.875000e+01
1.875000e+01
1.875000e+01
1.875000e+01
1.875000e+01
1.875000e+01
1.875000e+01
1.875000e+01
1.875000e+01
1.875000e+01
1.875000e+01
1.875000e+01
1.875000e+01
1.875000e+01
1.875000e+01
1.875000e+01
1.875000e+01
1.875000e+01
1.875000e+01
1.875000e+01
1.875000e+01
1.875000e+01
1.875000e+01
1.875000e+01
1.875000e+01
1.875000e+01
1.875000e+01
1.875000e+01
1.875000e+01
1.875000e+01
1.875000e+01
1.875000e+01
1.875000e+01
2.500000e+01
2.500000e+01
2.500000e+01
2.500000e+01
2.500000e+01
2.500000e+01
2.500000e+01
2.500000e+01
2.500000e+01
2.500000e+01
2.500000e+01
2.500000e+01
2.500000e+01
2.500000e+01
2.500000e+01
2.500000e+01
2.500000e+01
2.500000e+01
2.500000e+01
2.500000e+01
2.500000e+01
2.500000e+01
2.500000e+01
2.500000e+01
2.500000e+01
2.500000e+01
2.500000e+01
2.500000e+01
2.500000e+01
2.500000e+01
2.500000e+01
2.500000e+01
2.500000e+01
3.125000e+01
3.125000e+01
3.125000e+01
3.125000e+01
3.125000e+01
3.125000e+01
3.125000e+01
3.125000e+01
3.125000e+01
3.125000e+01
3.125000e+01
3.125000e+01
3.125000e+01
3.125000e+01
3.125000e+01
3.125000e+01
3.125000e+01
3.125000e+01
3.125000e+01
3.125000e+01
3.125000e+01
3.125000e+01
3.125000e+01
3.125000e+01
3.125000e+01
3.125000e+01
3.125000e+01
3.125000e+01
3.125000e+01
3.125000e+01
3.125000e+01
3.125000e+01
3.125000e+01
3.750000e+01
3.750000e+01
3.750000e+01
3.750000e+01
3.750000e+01
3.750000e+01
3.750000e+01
3.750000e+01
3.750000e+01
3.750000e+01
3.750000e+01
3.750000e+01
3.750000e+01
3.750000e+01
3.750000e+01
3.750000e+01
3.750000e+01
3.750000e+01
3.750000e+01
3.750000e+01
3.750000e+01
3.750000e+01
3.750000e+01
3.750000e+01
3.750000e+01
3.750000e+01
3.750000e+01
3.750000e+01
3.750000e+01
3.750000e+01
3.750000e+01
3.750000e+01
3.750000e+01
4.375000e+01
4.375000e+01
4.375000e+01
4.375000e+01
4.375000e+01
4.375000e+01
4.375000e+01
4.375000e+01
4.375000e+01
4.375000e+01
4.375000e+01
4.375000e+01
4.375000e+01
4.375000e+01
4.375000e+01
4.375000e+01
4.375000e+01
4.375000e+01
4.375000e+01
4.375000e+01
4.375000e+01
4.375000e+01
4.375000e+01
4.375000e+01
4.375000e+01
4.375000e+01
4.375000e+01
4.375000e+01
4.375000e+01
4.375000e+01
4.375000e+01
4.375000e+01
4.375000e+01
5.000000e+01
5.000000e+01
5.000000e+01
5.000000e+01
5.000000e+01
5.000000e+01
5.000000e+01
5.000000e+01
5.000000e+01
5.000000e+01
5.000000e+01
5.000000e+01
5.000000e+01
5.000000e+01
5.000000e+01
5.000000e+01
5.000000e+01
5.000000e+01
5.000000e+01
5.000000e+01
5.000000e+01
5.000000e+01
5.000000e+01
5.000000e+01
5.000000e+01
5.000000e+01
5.000000e+01
5.000000e+01
5.000000e+01
5.000000e+01
5.000000e+01
5.000000e+01
5.000000e+01
5.625000e+01
5.625000e+01
5.625000e+01
5.625000e+01
5.625000e+01
5.625000e+01
5.625000e+01
5.625000e+01
5.625000e+01
5.625000e+01
5.625000e+01
5.625000e+01
5.625000e+01
5.625000e+01
5.625000e+01
5.625000e+01
5.625000e+01
5.625000e+01
5.625000e+01
5.625000e+01
5.625000e+01
5.625000e+01
5.625000e+01
5.625000e+01
5.625000e+01
5.625000e+01
5.625000e+01
5.625000e+01
5.625000e+01
5.625000e+01
5.625000e+01
5.625000e+01
5.625000e+01
6.250000e+01
6.250000e+01
6.250000e+01
6.250000e+01
6.250000e+01
6.250000e+01
6.250000e+01
6.250000e+01
6.250000e+01
6.250000e+01
6.250000e+01
6.250000e+01
6.250000e+01
6.250000e+01
6.250000e+01
6.250000e+01
6.250000e+01
6.250000e+01
6.250000e+01
6.250000e+01
6.250000e+01
6.250000e+01
6.250000e+01
6.250000e+01
6.250000e+01
6.250000e+01
6.250000e+01
6.250000e+01
6.250000e+01
6.250000e+01
6.250000e+01
6.250000e+01
6.250000e+01
6.875000e+01
6.875000e+01
6.875000e+01
6.875000e+01
6.875000e+01
6.875000e+01
6.875000e+01
6.875000e+01
6.875000e+01
6.875000e+01
6.875000e+01
6.875000e+01
6.875000e+01
6.875000e+01
6.875000e+01
6.875000e+01
6.875000e+01
6.875000e+01
6.875000e+01
6.875000e+01
6.875000e+01
6.875000e+01
6.875000e+01
6.875000e+01
6.875000e+01
6.875000e+01
6.875000e+01
6.875000e+01
6.875000e+01
6.875000e+01
6.875000e+01
6.875000e+01
6.875000e+01
7.500000e+01
7.500000e+01
7.500000e+01
7.500000e+01
7.500000e+01
7.500000e+01
7.500000e+01
7.500000e+01
7.500000e+01
7.500000e+01
7.500000e+01
7.500000e+01
7.500000e+01
7.500000e+01
7.500000e+01
7.500000e+01
7.500000e+01
7.500000e+01
7.500000e+01
7.500000e+01
7.500000e+01
7.500000e+01
7.500000e+01
7.500000e+01
7.500000e+01
7.500000e+01
7.500000e+01
7.500000e+01
7.500000e+01
7.500000e+01
7.500000e+01
7.500000e+01
7.500000e+01
8.125000e+01
8.125000e+01
8.125000e+01
8.125000e+01
8.125000e+01
8.125000e+01
8.125000e+01
8.125000e+01
8.125000e+01
8.125000e+01
8.125000e+01
8.125000e+01
8.125000e+01
8.125000e+01
8.125000e+01
8.125000e+01
8.125000e+01
8.125000e+01
8.125000e+01
8.125000e+01
8.125000e+01
8.125000e+01
8.125000e+01
8.125000e+01
8.125000e+01
8.125000e+01
8.125000e+01
8.125000e+01
8.125000e+01
8.125000e+01
8.125000e+01
8.125000e+01
8.125000e+01
8.750000e+01
8.750000e+01
8.750000e+01
8.750000e+01
8.750000e+01
8.750000e+01
8.750000e+01
8.750000e+01
8.750000e+01
8.750000e+01
8.750000e+01
8.750000e+01
8.750000e+01
8.750000e+01
8.750000e+01
8.750000e+01
8.750000e+01
8.750000e+01
8.750000e+01
8.750000e+01
8.750000e+01
8.750000e+01
8.750000e+01
8.750000e+01
8.750000e+01
8.750000e+01
8.750000e+01
8.750000e+01
8.750000e+01
8.750000e+01
8.750000e+01
8.750000e+01
8.750000e+01
9.375000e+01
9.375000e+01
9.375000e+01
9.375000e+01
9.375000e+01
9.375000e+01
9.375000e+01
9.375000e+01
9.375000e+01
9.375000e+01
9.375000e+01
9.375000e+01
9.375000e+01
9.375000e+01
9.375000e+01
9.375000e+01
9.375000e+01
9.375000e+01
9.375000e+01
9.375000e+01
9.375000e+01
9.375000e+01
9.375000e+01
9.375000e+01
9.375000e+01
9.375000e+01
9.375000e+01
9.375000e+01
9.375000e+01
9.375000e+01
9.375000e+01
9.375000e+01
9.375000e+01
1.000000e+02
1.000000e+02
1.000000e+02
1.000000e+02
1.000000e+02
1.000000e+02
1.000000e+02
1.000000e+02
1.000000e+02
1.000000e+02
1.000000e+02
1.000000e+02
1.000000e+02
1.000000e+02
1.000000e+02
1.000000e+02
1.000000e+02
1.000000e+02
1.000000e+02
1.000000e+02
1.000000e+02
1.000000e+02
1.000000e+02
1.000000e+02
1.000000e+02
1.000000e+02
1.000000e+02
1.000000e+02
1.000000e+02
1.000000e+02
1.000000e+02
1.000000e+02
1.000000e+02
0.000000e+00
-4.347346e-01
-7.653051e-01
-1.090661e+00
-1.403113e+00
-1.701751e+00
-2.008115e+00
-2.306698e+00
-2.605313e+00
-2.907308e+00
-3.205298e+00
-3.505070e+00
-3.805471e+00
-4.103752e+00
-4.403558e+00
-4.703075e+00
-5.001663e+00
-5.301644e+00
-5.601389e+00
-5.900825e+00
-6.202012e+00
-6.503611e+00
-6.805143e+00
-7.109367e+00
-7.415157e+00
-7.721909e+00
-8.036722e+00
-8.358044e+00
-8.683766e+00
-9.051286e+00
-9.517906e+00
-9.938849e+00
-1.014557e+01
0.000000e+00
-2.329604e-01
-4.827165e-01
-7.442203e-01
-1.009774e+00
-1.265924e+00
-1.533090e+00
-1.794944e+00
-2.056598e+00
-2.321690e+00
-2.582997e+00
-2.845771e+00
-3.109236e+00
-3.370714e+00
-3.633479e+00
-3.895940e+00
-4.157365e+00
-4.419766e+00
-4.681619e+00
-4.942640e+00
-5.204536e+00
-5.466024e+00
-5.726421e+00
-5.987993e+00
-6.249256e+00
-6.508606e+00
-6.770774e+00
-7.031507e+00
-7.286242e+00
-7.549290e+00
-7.793700e+00
-7.891658e+00
-7.997215e+00
0.000000e+00
-1.261553e-01
-2.742725e-01
-4.663708e-01
-6.763242e-01
-8.855942e-01
-1.109812e+00
-1.331844e+00
-1.555023e+00
-1.781621e+00
-2.005803e+00
-2.231581e+00
-2.458261e+00
-2.683760e+00
-2.910399e+00
-3.136929e+00
-3.362698e+00
-3.589018e+00
-3.814656e+00
-4.039206e+00
-4.263658e+00
-4.486940e+00
-4.708303e+00
-4.928814e+00
-5.146819e+00
-5.359764e+00
-5.567767e+00
-5.765291e+00
-5.944149e+00
-6.095049e+00
-6.175530e+00
-6.180014e+00
-6.272049e+00
0.000000e+00
-8.134748e-02
-1.684320e-01
-2.973917e-01
-4.412079e-01
-6.003996e-01
-7.767315e-01
-9.550386e-01
-1.138303e+00
-1.325736e+00
-1.512739e+00
-1.702096e+00
-1.892634e+00
-2.082918e+00
-2.274470e+00
-2.466118e+00
-2.657359e+00
-2.848837e+00
-3.039535e+00
-3.229024e+00
-3.417535e+00
-3.604114e+00
-3.787743e+00
-3.967791e+00
-4.141990e+00
-4.306675e+00
-4.458173e+00
-4.590310e+00
-4.693216e+00
-4.755538e+00
-4.766859e+00
-4.779691e+00
-4.860300e+00
0.000000e+00
-8.352429e-02
-1.609255e-01
-2.548052e-01
-3.600608e-01
-4.818566e-01
-6.145841e-01
-7.525311e-01
-8.967880e-01
-1.043198e+00
-1.190691e+00
-1.340173e+00
-1.490116e+00
-1.640792e+00
-1.792309e+00
-1.943736e+00
-2.095050e+00
-2.245923e+00
-2.395680e+00
-2.543879e+00
-2.689797e+00
-2.832380e+00
-2.970180e+00
-3.101352e+00
-3.223460e+00
-3.333327e+00
-3.427193e+00
-3.500252e+00
-3.547039e+00
-3.563147e+00
-3.557131e+00
-3.584244e+00
-3.658462e+00
0.000000e+00
-6.990325e-02
-1.377235e-01
-2.079674e-01
-2.879160e-01
-3.754563e-01
-4.706851e-01
-5.718318e-01
-6.759417e-01
-7.825145e-01
-8.906269e-01
-9.996937e-01
-1.109947e+00
-1.220992e+00
-1.332495e+00
-1.444231e+00
-1.555663e+00
-1.666341e+00
-1.775746e+00
-1.883018e+00
-1.987101e+00
-2.086692e+00
-2.180063e+00
-2.265157e+00
-2.339781e+00
-2.401599e+00
-2.448267e+00
-2.477166e+00
-2.485012e+00
-2.472657e+00
-2.465133e+00
-2.493844e+00
-2.563019e+00
0.000000e+00
-4.946326e-02
-9.784217e-02
-1.474056e-01
-2.003962e-01
-2.581045e-01
-3.200533e-01
-3.853608e-01
-4.529983e-01
-5.221951e-01
-5.925997e-01
-6.639345e-01
-7.359859e-01
-8.085568e-01
-8.813380e-01
-9.539794e-01
-1.026090e+00
-1.097183e+00
-1.166643e+00
-1.233627e+00
-1.297023e+00
-1.355461e+00
-1.407297e+00
-1.450671e+00
-1.483626e+00
-1.504261e+00
-1.510632e+00
-1.500195e+00
-1.473864e+00
-1.441894e+00
-1.430283e+00
-1.459045e+00
-1.527964e+00
0.000000e+00
-2.619553e-02
-5.204510e-02
-7.816537e-02
-1.055824e-01
-1.348373e-01
-1.659542e-01
-1.985435e-01
-2.321771e-01
-2.665271e-01
-3.013171e-01
-3.363136e-01
-3.713171e-01
-4.061296e-01
-4.405244e-01
-4.742305e-01
-5.069282e-01
-5.382248e-01
-5.676068e-01
-5.943842e-01
-6.176366e-01
-6.361843e-01
-6.486026e-01
-6.532662e-01
-6.483619e-01
-6.317378e-01
-6.008817e-01
-5.558345e-01
-5.047432e-01
-4.611183e-01
-4.470602e-01
-4.767313e-01
-5.475604e-01
0.000000e+00
-1.914934e-03
-3.830241e-03
-5.699907e-03
-7.479741e-03
-9.122419e-03
-1.056815e-02
-1.174294e-02
-1.256769e-02
-1.296273e-02
-1.283397e-02
-1.205746e-02
-1.048349e-02
-7.948600e-03
-4.277660e-03
7.226750e-04
7.278529e-03
1.566382e-02
2.622100e-02
3.940283e-02
5.583277e-02
7.638067e-02
1.022249e-01
1.348880e-01
1.762478e-01
2.281631e-01
2.908523e-01
3.596007e-01
4.234549e-01
4.686862e-01
4.795822e-01
4.461639e-01
3.754997e-01
0.000000e+00
2.241894e-02
4.450110e-02
6.696044e-02
9.090844e-02
1.169713e-01
1.452722e-01
1.755505e-01
2.075232e-01
2.410176e-01
2.759512e-01
3.123481e-01
3.503145e-01
3.899856e-01
4.314951e-01
4.749753e-01
5.205742e-01
5.684618e-01
6.188295e-01
6.719022e-01
7.279923e-01
7.876344e-01
8.517471e-01
9.216151e-01
9.982681e-01
1.081161e+00
1.166885e+00
1.248147e+00
1.314395e+00
1.353823e+00
1.356117e+00
1.320303e+00
1.259261e+00
0.000000e+00
4.586936e-02
9.069068e-02
1.368349e-01
1.866500e-01
2.415024e-01
3.009890e-01
3.642915e-01
4.304468e-01
4.988052e-01
5.692352e-01
6.417533e-01
7.164483e-01
7.934305e-01
8.727480e-01
9.544773e-01
1.038735e+00
1.125645e+00
1.215358e+00
1.308017e+00
1.403785e+00
1.502921e+00
1.605580e+00
1.711387e+00
1.818901e+00
1.925097e+00
2.025042e+00
2.111243e+00
2.174381e+00
2.206246e+00
2.204174e+00
2.174152e+00
2.128991e+00
0.000000e+00
6.665835e-02
1.312674e-01
1.985188e-01
2.757799e-01
3.611015e-01
4.546870e-01
5.547896e-01
6.584094e-01
7.650622e-01
8.740381e-01
9.850804e-01
1.098689e+00
1.214716e+00
1.333109e+00
1.453990e+00
1.577300e+00
1.703146e+00
1.831674e+00
1.962897e+00
2.096778e+00
2.232959e+00
2.370113e+00
2.505768e+00
2.636789e+00
2.759281e+00
2.867946e+00
2.956230e+00
3.017853e+00
3.049738e+00
3.053368e+00
3.034880e+00
3.005916e+00
0.000000e+00
8.071038e-02
1.555181e-01
2.468354e-01
3.500711e-01
4.703821e-01
6.023287e-01
7.403839e-01
8.855127e-01
1.033521e+00
1.183588e+00
1.336893e+00
1.492207e+00
1.650060e+00
1.810724e+00
1.973479e+00
2.138529e+00
2.305629e+00
2.474104e+00
2.643501e+00
2.812995e+00
2.981298e+00
3.146334e+00
3.305316e+00
3.455163e+00
3.591898e+00
3.710378e+00
3.805389e+00
3.873400e+00
3.913352e+00
3.926942e+00
3.920091e+00
3.904737e+00
0.000000e+00
7.917921e-02
1.642342e-01
2.911995e-01
4.334768e-01
5.916630e-01
7.673876e-01
9.456896e-01
1.129712e+00
1.318671e+00
1.508289e+00
1.701660e+00
1.897865e+00
2.095890e+00
2.297478e+00
2.501548e+00
2.707635e+00
2.915879e+00
3.124471e+00
3.332013e+00
3.537254e+00
3.737760e+00
3.931189e+00
4.115749e+00
4.288830e+00
4.445688e+00
4.580211e+00
4.687646e+00
4.765802e+00
4.814930e+00
4.837817e+00
4.840711e+00
4.835549e+00
0.000000e+00
1.249775e-01
2.718309e-01
4.625940e-01
6.715738e-01
8.802321e-01
1.103951e+00
1.325653e+00
1.548775e+00
1.775605e+00
2.000486e+00
2.227609e+00
2.456417e+00
2.685068e+00
2.916086e+00
3.148316e+00
3.381119e+00
3.615472e+00
3.849599e+00
4.082332e+00
4.313194e+00
4.539633e+00
4.759517e+00
4.972180e+00
5.173826e+00
5.355019e+00
5.506496e+00
5.624430e+00
5.709342e+00
5.763999e+00
5.792757e+00
5.802159e+00
5.803200e+00
0.000000e+00
2.330450e-01
4.827257e-01
7.439620e-01
1.009331e+00
1.265432e+00
1.532354e+00
1.793850e+00
2.055120e+00
2.319718e+00
2.580420e+00
2.842438e+00
3.104947e+00
3.365206e+00
3.626438e+00
3.887010e+00
4.146008e+00
4.405271e+00
4.663303e+00
4.919652e+00
5.175328e+00
5.428402e+00
5.676883e+00
5.919443e+00
6.148213e+00
6.348494e+00
6.509965e+00
6.630942e+00
6.714441e+00
6.765862e+00
6.792290e+00
6.801935e+00
6.804277e+00
0.000000e+00
4.358238e-01
7.675124e-01
1.093940e+00
1.407333e+00
1.706831e+00
2.013654e+00
2.312383e+00
2.610972e+00
2.912594e+00
3.209771e+00
3.508119e+00
3.806236e+00
4.101130e+00
4.396146e+00
4.689282e+00
4.979636e+00
5.269447e+00
5.557620e+00
5.844468e+00
6.132009e+00
6.418647e+00
6.701799e+00
6.977137e+00
7.230988e+00
7.444927e+00
7.609058e+00
7.723202e+00
7.791908e+00
7.823358e+00
7.829467e+00
7.825038e+00
7.822455e+00
0.000000e+00
-2.638796e-01
-5.467239e-01
-9.055606e-01
-1.308634e+00
-1.753237e+00
-2.238554e+00
-2.757688e+00
-3.314144e+00
-3.906520e+00
-4.534295e+00
-5.199545e+00
-5.901094e+00
-6.639429e+00
-7.415378e+00
-8.228241e+00
-9.078701e+00
-9.967204e+00
-1.089345e+01
-1.185830e+01
-1.286242e+01
-1.390582e+01
-1.498971e+01
-1.611539e+01
-1.728341e+01
-1.849673e+01
-1.975961e+01
-2.107586e+01
-2.245590e+01
-2.391740e+01
-2.547668e+01
-2.729014e+01
-2.984295e+01
0.000000e+00
-1.656985e-01
-4.638810e-01
-8.190334e-01
-1.225284e+00
-1.669222e+00
-2.154113e+00
-2.674285e+00
-3.229923e+00
-3.822462e+00
-4.450522e+00
-5.115291e+00
-5.817114e+00
-6.555483e+00
-7.331228e+00
-8.144338e+00
-8.994730e+00
-9.883124e+00
-1.080958e+01
-1.177432e+01
-1.277827e+01
-1.382186e+01
-1.490553e+01
-1.603083e+01
-1.719900e+01
-1.841153e+01
-1.967318e+01
-2.098969e+01
-2.236770e+01
-2.382250e+01
-2.540123e+01
-2.720067e+01
-2.946548e+01
0.000000e+00
-1.381049e-01
-4.069733e-01
-7.577119e-01
-1.159672e+00
-1.600367e+00
-2.084256e+00
-2.603643e+00
-3.158532e+00
-3.750997e+00
-4.378709e+00
-5.043136e+00
-5.744954e+00
-6.483142e+00
-7.258836e+00
-8.072065e+00
-8.922446e+00
-9.810995e+00
-1.073777e+01
-1.170271e+01
-1.270701e+01
-1.375113e+01
-1.483516e+01
-1.596098e+01
-1.713011e+01
-1.834350e+01
-1.960672e+01
-2.092629e+01
-2.230915e+01
-2.378450e+01
-2.540086e+01
-2.709706e+01
-2.886028e+01
0.000000e+00
-1.590795e-01
-3.977311e-01
-7.337787e-01
-1.120901e+00
-1.553612e+00
-2.033942e+00
-2.549476e+00
-3.102786e+00
-3.694225e+00
-4.320549e+00
-4.984432e+00
-5.685724e+00
-6.423433e+00
-7.199102e+00
-8.012301e+00
-8.862796e+00
-9.751753e+00
-1.067907e+01
-1.164476e+01
-1.265004e+01
-1.369536e+01
-1.478083e+01
-1.590839e+01
-1.707977e+01
-1.829641e+01
-1.956383e+01
-2.088880e+01
-2.228106e+01
-2.377415e+01
-2.538198e+01
-2.694446e+01
-2.836230e+01
0.000000e+00
-1.898023e-01
-4.260948e-01
-7.445980e-01
-1.114402e+00
-1.536243e+00
-2.007405e+00
-2.516738e+00
-3.066670e+00
-3.655097e+00
-4.279447e+00
-4.942100e+00
-5.642178e+00
-6.379350e+00
-7.154763e+00
-7.967845e+00
-8.818742e+00
-9.708278e+00
-1.063648e+01
-1.160364e+01
-1.261060e+01
-1.365790e+01
-1.474601e+01
-1.587639e+01
-1.705080e+01
-1.827148e+01
-1.954327e+01
-2.087222e+01
-2.226661e+01
-2.374792e+01
-2.529112e+01
-2.674019e+01
-2.800663e+01
0.000000e+00
-2.004075e-01
-4.477678e-01
-7.540759e-01
-1.116117e+00
-1.529238e+00
-1.991142e+00
-2.496199e+00
-3.042128e+00
-3.627620e+00
-4.250980e+00
-4.912346e+00
-5.611642e+00
-6.348680e+00
-7.123849e+00
-7.937144e+00
-8.788708e+00
-9.679072e+00
-1.060860e+01
-1.157770e+01
-1.258699e+01
-1.363704e+01
-1.472851e+01
-1.586237e+01
-1.704000e+01
-1.826358e+01
-1.953720e+01
-2.086510e+01
-2.224616e+01
-2.368923e+01
-2.514286e+01
-2.651295e+01
-2.770265e+01
0.000000e+00
-2.048267e-01
-4.569121e-01
-7.609545e-01
-1.117919e+00
-1.526059e+00
-1.982429e+00
-2.483691e+00
-3.026998e+00
-3.610529e+00
-4.233104e+00
-4.894024e+00
-5.593035e+00
-6.330170e+00
-7.105536e+00
-7.919271e+00
-8.771664e+00
-9.663146e+00
-1.059423e+01
-1.156545e+01
-1.257735e+01
-1.363044e+01
-1.472526e+01
-1.586239e+01
-1.704251e+01
-1.826679e+01
-1.953818e+01
-2.085675e+01
-2.221163e+01
-2.360455e+01
-2.498328e+01
-2.628299e+01
-2.741524e+01
0.000000e+00
-2.066476e-01
-4.606348e-01
-7.645300e-01
-1.119561e+00
-1.525067e+00
-1.978887e+00
-2.478057e+00
-3.019949e+00
-3.602738e+00
-4.225137e+00
-4.886238e+00
-5.585618e+00
-6.323249e+00
-7.099225e+00
-7.913726e+00
-8.767105e+00
-9.659842e+00
-1.059251e+01
-1.156572e+01
-1.258000e+01
-1.363576e+01
-1.473330e+01
-1.587276e+01
-1.705391e+01
-1.827624e+01
-1.953996e+01
-2.084052e+01
-2.216369e+01
-2.350629e+01
-2.482290e+01
-2.605373e+01
-2.712472e+01
0.000000e+00
-2.071167e-01
-4.617134e-01
-7.658015e-01
-1.120564e+00
-1.525629e+00
-1.979078e+00
-2.478118e+00
-3.020162e+00
-3.603378e+00
-4.226436e+00
-4.888360e+00
-5.588677e+00
-6.327311e+00
-7.104323e+00
-7.919906e+00
-8.774441e+00
-9.668432e+00
-1.060249e+01
-1.157725e+01
-1.259326e+01
-1.365081e+01
-1.474993e+01
-1.589014e+01
-1.706993e+01
-1.828650e+01
-1.953711e+01
-2.081516e+01
-2.210702e+01
-2.340136e+01
-2.466124e+01
-2.582395e+01
-2.683057e+01
0.000000e+00
-2.066205e-01
-4.608087e-01
-7.651572e-01
-1.120913e+00
-1.527433e+00
-1.982594e+00
-2.483448e+00
-3.027279e+00
-3.612126e+00
-4.236663e+00
-4.900027e+00
-5.601804e+00
-6.341907e+00
-7.120357e+00
-7.937304e+00
-8.793111e+00
-9.688257e+00
-1.062334e+01
-1.159899e+01
-1.261568e+01
-1.367366e+01
-1.477260e+01
-1.591109e+01
-1.708606e+01
-1.829324e+01
-1.952842e+01
-2.078401e+01
-2.204622e+01
-2.329696e+01
-2.450224e+01
-2.560822e+01
-2.657091e+01
0.000000e+00
-2.047811e-01
-4.572877e-01
-7.622490e-01
-1.120668e+00
-1.530823e+00
-1.989834e+00
-2.494387e+00
-3.041459e+00
-3.628975e+00
-4.255706e+00
-4.921048e+00
-5.624741e+00
-6.366699e+00
-7.146898e+00
-7.965402e+00
-8.822498e+00
-9.718610e+00
-1.065423e+01
-1.162987e+01
-1.264588e+01
-1.370238e+01
-1.479863e+01
-1.593231e+01
-1.709974e+01
-1.829632e+01
-1.951662e+01
-2.075181e+01
-2.198672e+01
-2.319938e+01
-2.435929e+01
-2.542856e+01
-2.637394e+01
0.000000e+00
-2.003692e-01
-4.484049e-01
-7.561283e-01
-1.120371e+00
-1.536528e+00
-2.002333e+00
-2.512149e+00
-3.063454e+00
-3.654614e+00
-4.283922e+00
-4.951649e+00
-5.657651e+00
-6.401577e+00
-7.183639e+00
-8.003671e+00
-8.861800e+00
-9.758474e+00
-1.069390e+01
-1.166834e+01
-1.268208e+01
-1.373502e+01
-1.482608e+01
-1.595288e+01
-1.711212e+01
-1.829910e+01
-1.950688e+01
-2.072462e+01
-2.193533e+01
-2.311704e+01
-2.424561e+01
-2.529575e+01
-2.624259e+01
0.000000e+00
-1.898247e-01
-4.270727e-01
-7.475008e-01
-1.120311e+00
-1.546207e+00
-2.022502e+00
-2.537893e+00
-3.094573e+00
-3.690161e+00
-4.322088e+00
-4.992827e+00
-5.701367e+00
-6.447170e+00
-7.231113e+00
-8.052369e+00
-8.910965e+00
-9.807458e+00
-1.074155e+01
-1.171336e+01
-1.272330e+01
-1.377107e+01
-1.485550e+01
-1.597502e+01
-1.712736e+01
-1.830748e+01
-1.950614e+01
-2.070936e+01
-2.189923e+01
-2.305696e+01
-2.416495e+01
-2.520682e+01
-2.616691e+01
0.000000e+00
-1.591648e-01
-3.989910e-01
-7.374816e-01
-1.128269e+00
-1.565922e+00
-2.052327e+00
-2.574826e+00
-3.135944e+00
-3.735821e+00
-4.371154e+00
-5.044669e+00
-5.755958e+00
-6.503752e+00
-7.289279e+00
-8.111617e+00
-8.970195e+00
-9.865707e+00
-1.079754e+01
-1.176560e+01
-1.277076e+01
-1.381269e+01
-1.489052e+01
-1.600414e+01
-1.715237e+01
-1.832864e+01
-1.951978e+01
-2.070943e+01
-2.188120e+01
-2.302024e+01
-2.411406e+01
-2.515357e+01
-2.613348e+01
0.000000e+00
-1.379526e-01
-4.081347e-01
-7.614855e-01
-1.167427e+00
-1.613376e+00
-2.103652e+00
-2.630326e+00
-3.193393e+00
-3.794877e+00
-4.432293e+00
-5.107136e+00
-5.819846e+00
-6.568993e+00
-7.355406e+00
-8.178461e+00
-9.037104e+00
-9.931769e+00
-1.086175e+01
-1.182674e+01
-1.282778e+01
-1.386488e+01
-1.493787e+01
-1.604799e+01
-1.719382e+01
-1.836560e+01
-1.954741e+01
-2.072351e+01
-2.187992e+01
-2.300434e+01
-2.408768e+01
-2.512676e+01
-2.612713e+01
0.000000e+00
-1.654870e-01
-4.649672e-01
-8.227657e-01
-1.233097e+00
-1.682364e+00
-2.173677e+00
-2.701207e+00
-3.265113e+00
-3.866814e+00
-4.504780e+00
-5.180184e+00
-5.893141e+00
-6.642723e+00
-7.429407e+00
-8.252472e+00
-9.111022e+00
-1.000511e+01
-1.093395e+01
-1.189732e+01
-1.289610e+01
-1.393054e+01
-1.500121e+01
-1.610924e+01
-1.725098e+01
-1.841449e+01
-1.958456e+01
-2.074755e+01
-2.189103e+01
-2.300399e+01
-2.407916e+01
-2.511704e+01
-2.613160e+01
0.000000e+00
-2.639196e-01
-5.479767e-01
-9.094510e-01
-1.316605e+00
-1.766507e+00
-2.258166e+00
-2.784623e+00
-3.349316e+00
-3.950796e+00
-4.588415e+00
-5.264193e+00
-5.976724e+00
-6.726070e+00
-7.512694e+00
-8.335172e+00
-9.193340e+00
-1.008703e+01
-1.101516e+01
-1.197803e+01
-1.297623e+01
-1.400961e+01