TITLE = "Solution"
VARIABLES = x, y, u, v, psiu, psiv, t, stress
ZONE T="structure" N=561 E=512 F=FEBLOCK ET=QUADRILATERAL VARLOCATION=([7,8]=cellcentered)
0.000000e+00
6.250000e+00
1.250000e+01
1.875000e+01
2.500000e+01
3.125000e+01
3.750000e+01
4.375000e+01
5.000000e+01
5.625000e+01
6.250000e+01
6.875000e+01
7.500000e+01
8.125000e+01
8.750000e+01
9.375000e+01
1.000000e+02
1.062500e+02
1.125000e+02
1.187500e+02
1.250000e+02
1.312500e+02
1.375000e+02
1.437500e+02
1.500000e+02
1.562500e+02
1.625000e+02
1.687500e+02
1.750000e+02
1.812500e+02
1.875000e+02
1.937500e+02
2.000000e+02
0.000000e+00
6.250000e+00
1.250000e+01
1.875000e+01
2.500000e+01
3.125000e+01
3.750000e+01
4.375000e+01
5.000000e+01
5.625000e+01
6.250000e+01
6.875000e+01
7.500000e+01
8.125000e+01
8.750000e+01
9.375000e+01
1.000000e+02
1.062500e+02
1.125000e+02
1.187500e+02
1.250000e+02
1.312500e+02
1.375000e+02
1.437500e+02
1.500000e+02
1.562500e+02
1.625000e+02
1.687500e+02
1.750000e+02
1.812500e+02
1.875000e+02
1.937500e+02
2.000000e+02
0.000000e+00
6.250000e+00
1.250000e+01
1.875000e+01
2.500000e+01
3.125000e+01
3.750000e+01
4.375000e+01
5.000000e+01
5.625000e+01
6.250000e+01
6.875000e+01
7.500000e+01
8.125000e+01
8.750000e+01
9.375000e+01
1.000000e+02
1.062500e+02
1.125000e+02
1.187500e+02
1.250000e+02
1.312500e+02
1.375000e+02
1.437500e+02
1.500000e+02
1.562500e+02
1.625000e+02
1.687500e+02
1.750000e+02
1.812500e+02
1.875000e+02
1.937500e+02
2.000000e+02
0.000000e+00
6.250000e+00
1.250000e+01
1.875000e+01
2.500000e+01
3.125000e+01
3.750000e+01
4.375000e+01
5.000000e+01
5.625000e+01
6.250000e+01
6.875000e+01
7.500000e+01
8.125000e+01
8.750000e+01
9.375000e+01
1.000000e+02
1.062500e+02
1.125000e+02
1.187500e+02
1.250000e+02
1.312500e+02
1.375000e+02
1.437500e+02
1.500000e+02
1.562500e+02
1.625000e+02
1.687500e+02
1.750000e+02
1.812500e+02
1.875000e+02
1.937500e+02
2.000000e+02
0.000000e+00
6.250000e+00
1.250000e+01
1.875000e+01
2.500000e+01
3.125000e+01
3.750000e+01
4.375000e+01
5.000000e+01
5.625000e+01
6.250000e+01
6.875000e+01
7.500000e+01
8.125000e+01
8.750000e+01
9.375000e+01
1.000000e+02
1.062500e+02
1.125000e+02
1.187500e+02
1.250000e+02
1.312500e+02
1.375000e+02
1.437500e+02
1.500000e+02
1.562500e+02
1.625000e+02
1.687500e+02
1.750000e+02
1.812500e+02
1.875000e+02
1.937500e+02
2.000000e+02
0.000000e+00
6.250000e+00
1.250000e+01
1.875000e+01
2.500000e+01
3.125000e+01
3.750000e+01
4.375000e+01
5.000000e+01
5.625000e+01
6.250000e+01
6.875000e+01
7.500000e+01
8.125000e+01
8.750000e+01
9.375000e+01
1.000000e+02
1.062500e+02
1.125000e+02
1.187500e+02
1.250000e+02
1.312500e+02
1.375000e+02
1.437500e+02
1.500000e+02
1.562500e+02
1.625000e+02
1.687500e+02
1.750000e+02
1.812500e+02
1.875000e+02
1.937500e+02
2.000000e+02
0.000000e+00
6.250000e+00
1.250000e+01
1.875000e+01
2.500000e+01
3.125000e+01
3.750000e+01
4.375000e+01
5.000000e+01
5.625000e+01
6.250000e+01
6.875000e+01
7.500000e+01
8.125000e+01
8.750000e+01
9.375000e+01
1.000000e+02
1.062500e+02
1.125000e+02
1.187500e+02
1.250000e+02
1.312500e+02
1.375000e+02
1.437500e+02
1.500000e+02
1.562500e+02
1.625000e+02
1.687500e+02
1.750000e+02
1.812500e+02
1.875000e+02
1.937500e+02
2.000000e+02
0.000000e+00
6.250000e+00
1.250000e+01
1.875000e+01
2.500000e+01
3.125000e+01
3.750000e+01
4.375000e+01
5.000000e+01
5.625000e+01
6.250000e+01
6.875000e+01
7.500000e+01
8.125000e+01
8.750000e+01
9.375000e+01
1.000000e+02
1.062500e+02
1.125000e+02
1.187500e+02
1.250000e+02
1.312500e+02
1.375000e+02
1.437500e+02
1.500000e+02
1.562500e+02
1.625000e+02
1.687500e+02
1.750000e+02
1.812500e+02
1.875000e+02
1.937500e+02
2.000000e+02
0.000000e+00
6.250000e+00
1.250000e+01
1.875000e+01
2.500000e+01
3.125000e+01
3.750000e+01
4.375000e+01
5.000000e+01
5.625000e+01
6.250000e+01
6.875000e+01
7.500000e+01
8.125000e+01
8.750000e+01
9.375000e+01
1.000000e+02
1.062500e+02
1.125000e+02
1.187500e+02
1.250000e+02
1.312500e+02
1.375000e+02
1.437500e+02
1.500000e+02
1.562500e+02
1.625000e+02
1.687500e+02
1.750000e+02
1.812500e+02
1.875000e+02
1.937500e+02
2.000000e+02
0.000000e+00
6.250000e+00
1.250000e+01
1.875000e+01
2.500000e+01
3.125000e+01
3.750000e+01
4.375000e+01
5.000000e+01
5.625000e+01
6.250000e+01
6.875000e+01
7.500000e+01
8.125000e+01
8.750000e+01
9.375000e+01
1.000000e+02
1.062500e+02
1.125000e+02
1.187500e+02
1.250000e+02
1.312500e+02
1.375000e+02
1.437500e+02
1.500000e+02
1.562500e+02
1.625000e+02
1.687500e+02
1.750000e+02
1.812500e+02
1.875000e+02
1.937500e+02
2.000000e+02
0.000000e+00
6.250000e+00
1.250000e+01
1.875000e+01
2.500000e+01
3.125000e+01
3.750000e+01
4.375000e+01
5.000000e+01
5.625000e+01
6.250000e+01
6.875000e+01
7.500000e+01
8.125000e+01
8.750000e+01
9.375000e+01
1.000000e+02
1.062500e+02
1.125000e+02
1.187500e+02
1.250000e+02
1.312500e+02
1.375000e+02
1.437500e+02
1.500000e+02
1.562500e+02
1.625000e+02
1.687500e+02
1.750000e+02
1.812500e+02
1.875000e+02
1.937500e+02
2.000000e+02
0.000000e+00
6.250000e+00
1.250000e+01
1.875000e+01
2.500000e+01
3.125000e+01
3.750000e+01
4.375000e+01
5.000000e+01
5.625000e+01
6.250000e+01
6.875000e+01
7.500000e+01
8.125000e+01
8.750000e+01
9.375000e+01
1.000000e+02
1.062500e+02
1.125000e+02
1.187500e+02
1.250000e+02
1.312500e+02
1.375000e+02
1.437500e+02
1.500000e+02
1.562500e+02
1.625000e+02
1.687500e+02
1.750000e+02
1.812500e+02
1.875000e+02
1.937500e+02
2.000000e+02
0.000000e+00
6.250000e+00
1.250000e+01
1.875000e+01
2.500000e+01
3.125000e+01
3.750000e+01
4.375000e+01
5.000000e+01
5.625000e+01
6.250000e+01
6.875000e+01
7.500000e+01
8.125000e+01
8.750000e+01
9.375000e+01
1.000000e+02
1.062500e+02
1.125000e+02
1.187500e+02
1.250000e+02
1.312500e+02
1.375000e+02
1.437500e+02
1.500000e+02
1.562500e+02
1.625000e+02
1.687500e+02
1.750000e+02
1.812500e+02
1.875000e+02
1.937500e+02
2.000000e+02
0.000000e+00
6.250000e+00
1.250000e+01
1.875000e+01
2.500000e+01
3.125000e+01
3.750000e+01
4.375000e+01
5.000000e+01
5.625000e+01
6.250000e+01
6.875000e+01
7.500000e+01
8.125000e+01
8.750000e+01
9.375000e+01
1.000000e+02
1.062500e+02
1.125000e+02
1.187500e+02
1.250000e+02
1.312500e+02
1.375000e+02
1.437500e+02
1.500000e+02
1.562500e+02
1.625000e+02
1.687500e+02
1.750000e+02
1.812500e+02
1.875000e+02
1.937500e+02
2.000000e+02
0.000000e+00
6.250000e+00
1.250000e+01
1.875000e+01
2.500000e+01
3.125000e+01
3.750000e+01
4.375000e+01
5.000000e+01
5.625000e+01
6.250000e+01
6.875000e+01
7.500000e+01
8.125000e+01
8.750000e+01
9.375000e+01
1.000000e+02
1.062500e+02
1.125000e+02
1.187500e+02
1.250000e+02
1.312500e+02
1.375000e+02
1.437500e+02
1.500000e+02
1.562500e+02
1.625000e+02
1.687500e+02
1.750000e+02
1.812500e+02
1.875000e+02
1.937500e+02
2.000000e+02
0.000000e+00
6.250000e+00
1.250000e+01
1.875000e+01
2.500000e+01
3.125000e+01
3.750000e+01
4.375000e+01
5.000000e+01
5.625000e+01
6.250000e+01
6.875000e+01
7.500000e+01
8.125000e+01
8.750000e+01
9.375000e+01
1.000000e+02
1.062500e+02
1.125000e+02
1.187500e+02
1.250000e+02
1.312500e+02
1.375000e+02
1.437500e+02
1.500000e+02
1.562500e+02
1.625000e+02
1.687500e+02
1.750000e+02
1.812500e+02
1.875000e+02
1.937500e+02
2.000000e+02
0.000000e+00
6.250000e+00
1.250000e+01
1.875000e+01
2.500000e+01
3.125000e+01
3.750000e+01
4.375000e+01
5.000000e+01
5.625000e+01
6.250000e+01
6.875000e+01
7.500000e+01
8.125000e+01
8.750000e+01
9.375000e+01
1.000000e+02
1.062500e+02
1.125000e+02
1.187500e+02
1.250000e+02
1.312500e+02
1.375000e+02
1.437500e+02
1.500000e+02
1.562500e+02
1.625000e+02
1.687500e+02
1.750000e+02
1.812500e+02
1.875000e+02
1.937500e+02
2.000000e+02
0.000000e+00
0.000000e+00
0.000000e+00
0.000000e+00
0.000000e+00
0.000000e+00
0.000000e+00
0.000000e+00
0.000000e+00
0.000000e+00
0.000000e+00
0.000000e+00
0.000000e+00
0.000000e+00
0.000000e+00
0.000000e+00
0.000000e+00
0.000000e+00
0.000000e+00
0.000000e+00
0.000000e+00
0.000000e+00
0.000000e+00
0.000000e+00
0.000000e+00
0.000000e+00
0.000000e+00
0.000000e+00
0.000000e+00
0.000000e+00
0.000000e+00
0.000000e+00
0.000000e+00
6.250000e+00
6.250000e+00
6.250000e+00
6.250000e+00
6.250000e+00
6.250000e+00
6.250000e+00
6.250000e+00
6.250000e+00
6.250000e+00
6.250000e+00
6.250000e+00
6.250000e+00
6.250000e+00
6.250000e+00
6.250000e+00
6.250000e+00
6.250000e+00
6.250000e+00
6.250000e+00
6.250000e+00
6.250000e+00
6.250000e+00
6.250000e+00
6.250000e+00
6.250000e+00
6.250000e+00
6.250000e+00
6.250000e+00
6.250000e+00
6.250000e+00
6.250000e+00
6.250000e+00
1.250000e+01
1.250000e+01
1.250000e+01
1.250000e+01
1.250000e+01
1.250000e+01
1.250000e+01
1.250000e+01
1.250000e+01
1.250000e+01
1.250000e+01
1.250000e+01
1.250000e+01
1.250000e+01
1.250000e+01
1.250000e+01
1.250000e+01
1.250000e+01
1.250000e+01
1.250000e+01
1.250000e+01
1.250000e+01
1.250000e+01
1.250000e+01
1.250000e+01
1.250000e+01
1.250000e+01
1.250000e+01
1.250000e+01
1.250000e+01
1.250000e+01
1.250000e+01
1.250000e+01
1.875000e+01
1.875000e+01
1.875000e+01
1.875000e+01
1.875000e+01
1.875000e+01
1.875000e+01
1.875000e+01
1.875000e+01
1.875000e+01
1.875000e+01
1.875000e+01
1.875000e+01
1.875000e+01
1.875000e+01
1.875000e+01
1.875000e+01
1.875000e+01
1.875000e+01
1.875000e+01
1.875000e+01
1.875000e+01
1.875000e+01
1.875000e+01
1.875000e+01
1.875000e+01
1.875000e+01
1.875000e+01
1.875000e+01
1.875000e+01
1.875000e+01
1.875000e+01
1.875000e+01
2.500000e+01
2.500000e+01
2.500000e+01
2.500000e+01
2.500000e+01
2.500000e+01
2.500000e+01
2.500000e+01
2.500000e+01
2.500000e+01
2.500000e+01
2.500000e+01
2.500000e+01
2.500000e+01
2.500000e+01
2.500000e+01
2.500000e+01
2.500000e+01
2.500000e+01
2.500000e+01
2.500000e+01
2.500000e+01
2.500000e+01
2.500000e+01
2.500000e+01
2.500000e+01
2.500000e+01
2.500000e+01
2.500000e+01
2.500000e+01
2.500000e+01
2.500000e+01
2.500000e+01
3.125000e+01
3.125000e+01
3.125000e+01
3.125000e+01
3.125000e+01
3.125000e+01
3.125000e+01
3.125000e+01
3.125000e+01
3.125000e+01
3.125000e+01
3.125000e+01
3.125000e+01
3.125000e+01
3.125000e+01
3.125000e+01
3.125000e+01
3.125000e+01
3.125000e+01
3.125000e+01
3.125000e+01
3.125000e+01
3.125000e+01
3.125000e+01
3.125000e+01
3.125000e+01
3.125000e+01
3.125000e+01
3.125000e+01
3.125000e+01
3.125000e+01
3.125000e+01
3.125000e+01
3.750000e+01
3.750000e+01
3.750000e+01
3.750000e+01
3.750000e+01
3.750000e+01
3.750000e+01
3.750000e+01
3.750000e+01
3.750000e+01
3.750000e+01
3.750000e+01
3.750000e+01
3.750000e+01
3.750000e+01
3.750000e+01
3.750000e+01
3.750000e+01
3.750000e+01
3.750000e+01
3.750000e+01
3.750000e+01
3.750000e+01
3.750000e+01
3.750000e+01
3.750000e+01
3.750000e+01
3.750000e+01
3.750000e+01
3.750000e+01
3.750000e+01
3.750000e+01
3.750000e+01
4.375000e+01
4.375000e+01
4.375000e+01
4.375000e+01
4.375000e+01
4.375000e+01
4.375000e+01
4.375000e+01
4.375000e+01
4.375000e+01
4.375000e+01
4.375000e+01
4.375000e+01
4.375000e+01
4.375000e+01
4.375000e+01
4.375000e+01
4.375000e+01
4.375000e+01
4.375000e+01
4.375000e+01
4.375000e+01
4.375000e+01
4.375000e+01
4.375000e+01
4.375000e+01
4.375000e+01
4.375000e+01
4.375000e+01
4.375000e+01
4.375000e+01
4.375000e+01
4.375000e+01
5.000000e+01
5.000000e+01
5.000000e+01
5.000000e+01
5.000000e+01
5.000000e+01
5.000000e+01
5.000000e+01
5.000000e+01
5.000000e+01
5.000000e+01
5.000000e+01
5.000000e+01
5.000000e+01
5.000000e+01
5.000000e+01
5.000000e+01
5.000000e+01
5.000000e+01
5.000000e+01
5.000000e+01
5.000000e+01
5.000000e+01
5.000000e+01
5.000000e+01
5.000000e+01
5.000000e+01
5.000000e+01
5.000000e+01
5.000000e+01
5.000000e+01
5.000000e+01
5.000000e+01
5.625000e+01
5.625000e+01
5.625000e+01
5.625000e+01
5.625000e+01
5.625000e+01
5.625000e+01
5.625000e+01
5.625000e+01
5.625000e+01
5.625000e+01
5.625000e+01
5.625000e+01
5.625000e+01
5.625000e+01
5.625000e+01
5.625000e+01
5.625000e+01
5.625000e+01
5.625000e+01
5.625000e+01
5.625000e+01
5.625000e+01
5.625000e+01
5.625000e+01
5.625000e+01
5.625000e+01
5.625000e+01
5.625000e+01
5.625000e+01
5.625000e+01
5.625000e+01
5.625000e+01
6.250000e+01
6.250000e+01
6.250000e+01
6.250000e+01
6.250000e+01
6.250000e+01
6.250000e+01
6.250000e+01
6.250000e+01
6.250000e+01
6.250000e+01
6.250000e+01
6.250000e+01
6.250000e+01
6.250000e+01
6.250000e+01
6.250000e+01
6.250000e+01
6.250000e+01
6.250000e+01
6.250000e+01
6.250000e+01
6.250000e+01
6.250000e+01
6.250000e+01
6.250000e+01
6.250000e+01
6.250000e+01
6.250000e+01
6.250000e+01
6.250000e+01
6.250000e+01
6.250000e+01
6.875000e+01
6.875000e+01
6.875000e+01
6.875000e+01
6.875000e+01
6.875000e+01
6.875000e+01
6.875000e+01
6.875000e+01
6.875000e+01
6.875000e+01
6.875000e+01
6.875000e+01
6.875000e+01
6.875000e+01
6.875000e+01
6.875000e+01
6.875000e+01
6.875000e+01
6.875000e+01
6.875000e+01
6.875000e+01
6.875000e+01
6.875000e+01
6.875000e+01
6.875000e+01
6.875000e+01
6.875000e+01
6.875000e+01
6.875000e+01
6.875000e+01
6.875000e+01
6.875000e+01
7.500000e+01
7.500000e+01
7.500000e+01
7.500000e+01
7.500000e+01
7.500000e+01
7.500000e+01
7.500000e+01
7.500000e+01
7.500000e+01
7.500000e+01
7.500000e+01
7.500000e+01
7.500000e+01
7.500000e+01
7.500000e+01
7.500000e+01
7.500000e+01
7.500000e+01
7.500000e+01
7.500000e+01
7.500000e+01
7.500000e+01
7.500000e+01
7.500000e+01
7.500000e+01
7.500000e+01
7.500000e+01
7.500000e+01
7.500000e+01
7.500000e+01
7.500000e+01
7.500000e+01
8.125000e+01
8.125000e+01
8.125000e+01
8.125000e+01
8.125000e+01
8.125000e+01
8.125000e+01
8.125000e+01
8.125000e+01
8.125000e+01
8.125000e+01
8.125000e+01
8.125000e+01
8.125000e+01
8.125000e+01
8.125000e+01
8.125000e+01
8.125000e+01
8.125000e+01
8.125000e+01
8.125000e+01
8.125000e+01
8.125000e+01
8.125000e+01
8.125000e+01
8.125000e+01
8.125000e+01
8.125000e+01
8.125000e+01
8.125000e+01
8.125000e+01
8.125000e+01
8.125000e+01
8.750000e+01
8.750000e+01
8.750000e+01
8.750000e+01
8.750000e+01
8.750000e+01
8.750000e+01
8.750000e+01
8.750000e+01
8.750000e+01
8.750000e+01
8.750000e+01
8.750000e+01
8.750000e+01
8.750000e+01
8.750000e+01
8.750000e+01
8.750000e+01
8.750000e+01
8.750000e+01
8.750000e+01
8.750000e+01
8.750000e+01
8.750000e+01
8.750000e+01
8.750000e+01
8.750000e+01
8.750000e+01
8.750000e+01
8.750000e+01
8.750000e+01
8.750000e+01
8.750000e+01
9.375000e+01
9.375000e+01
9.375000e+01
9.375000e+01
9.375000e+01
9.375000e+01
9.375000e+01
9.375000e+01
9.375000e+01
9.375000e+01
9.375000e+01
9.375000e+01
9.375000e+01
9.375000e+01
9.375000e+01
9.375000e+01
9.375000e+01
9.375000e+01
9.375000e+01
9.375000e+01
9.375000e+01
9.375000e+01
9.375000e+01
9.375000e+01
9.375000e+01
9.375000e+01
9.375000e+01
9.375000e+01
9.375000e+01
9.375000e+01
9.375000e+01
9.375000e+01
9.375000e+01
1.000000e+02
1.000000e+02
1.000000e+02
1.000000e+02
1.000000e+02
1.000000e+02
1.000000e+02
1.000000e+02
1.000000e+02
1.000000e+02
1.000000e+02
1.000000e+02
1.000000e+02
1.000000e+02
1.000000e+02
1.000000e+02
1.000000e+02
1.000000e+02
1.000000e+02
1.000000e+02
1.000000e+02
1.000000e+02
1.000000e+02
1.000000e+02
1.000000e+02
1.000000e+02
1.000000e+02
1.000000e+02
1.000000e+02
1.000000e+02
1.000000e+02
1.000000e+02
1.000000e+02
0.000000e+00
-3.699573e-01
-6.663907e-01
-9.541930e-01
-1.248184e+00
-1.536938e+00
-1.823483e+00
-2.110220e+00
-2.395898e+00
-2.679746e+00
-2.961782e+00
-3.241799e+00
-3.519293e+00
-3.793669e+00
-4.064208e+00
-4.329998e+00
-4.589936e+00
-4.842811e+00
-5.087450e+00
-5.322892e+00
-5.548563e+00
-5.764411e+00
-5.971010e+00
-6.169644e+00
-6.362388e+00
-6.552233e+00
-6.743275e+00
-6.941086e+00
-7.153529e+00
-7.391452e+00
-7.662323e+00
-7.954501e+00
-8.125307e+00
0.000000e+00
-2.366864e-01
-4.911479e-01
-7.442413e-01
-1.003040e+00
-1.257116e+00
-1.508558e+00
-1.759878e+00
-2.010136e+00
-2.258625e+00
-2.505396e+00
-2.750334e+00
-2.993035e+00
-3.233004e+00
-3.469643e+00
-3.702180e+00
-3.929662e+00
-4.151015e+00
-4.365160e+00
-4.571149e+00
-4.768299e+00
-4.956290e+00
-5.135210e+00
-5.305562e+00
-5.468225e+00
-5.624383e+00
-5.775370e+00
-5.922336e+00
-6.065161e+00
-6.198322e+00
-6.302185e+00
-6.357683e+00
-6.430788e+00
0.000000e+00
-1.790850e-01
-3.712805e-01
-5.802079e-01
-7.975585e-01
-1.013645e+00
-1.229054e+00
-1.444638e+00
-1.659457e+00
-1.872931e+00
-2.084955e+00
-2.295314e+00
-2.503620e+00
-2.709409e+00
-2.912126e+00
-3.111070e+00
-3.305390e+00
-3.494132e+00
-3.676304e+00
-3.850970e+00
-4.017330e+00
-4.174769e+00
-4.322855e+00
-4.461283e+00
-4.589757e+00
-4.707788e+00
-4.814348e+00
-4.907221e+00
-4.981686e+00
-5.028463e+00
-5.037928e+00
-5.029972e+00
-5.108135e+00
0.000000e+00
-1.404516e-01
-2.908807e-01
-4.552780e-01
-6.292451e-01
-8.058353e-01
-9.841070e-01
-1.163227e+00
-1.342143e+00
-1.520286e+00
-1.697322e+00
-1.872880e+00
-2.046541e+00
-2.217840e+00
-2.386234e+00
-2.551074e+00
-2.711602e+00
-2.866970e+00
-3.016272e+00
-3.158595e+00
-3.293048e+00
-3.418775e+00
-3.534932e+00
-3.640604e+00
-3.734684e+00
-3.815679e+00
-3.881456e+00
-3.928954e+00
-3.954188e+00
-3.954145e+00
-3.937114e+00
-3.938229e+00
-4.011940e+00
0.000000e+00
-1.121099e-01
-2.297343e-01
-3.560656e-01
-4.892893e-01
-6.272021e-01
-7.678917e-01
-9.099596e-01
-1.052425e+00
-1.194629e+00
-1.336058e+00
-1.476249e+00
-1.614759e+00
-1.751123e+00
-1.884823e+00
-2.015268e+00
-2.141782e+00
-2.263614e+00
-2.379941e+00
-2.489878e+00
-2.592496e+00
-2.686807e+00
-2.771742e+00
-2.846099e+00
-2.908475e+00
-2.957201e+00
-2.990368e+00
-3.006140e+00
-3.003953e+00
-2.988129e+00
-2.975756e+00
-2.998070e+00
-3.068148e+00
0.000000e+00
-8.416983e-02
-1.718755e-01
-2.643191e-01
-3.617552e-01
-4.631118e-01
-5.671641e-01
-6.727502e-01
-7.790014e-01
-8.852654e-01
-9.910109e-01
-1.095778e+00
-1.199137e+00
-1.300656e+00
-1.399862e+00
-1.496234e+00
-1.589181e+00
-1.678040e+00
-1.762068e+00
-1.840444e+00
-1.912265e+00
-1.976545e+00
-2.032207e+00
-2.078085e+00
-2.112946e+00
-2.135591e+00
-2.145148e+00
-2.141773e+00
-2.128189e+00
-2.112543e+00
-2.111365e+00
-2.142250e+00
-2.207979e+00
0.000000e+00
-5.610171e-02
-1.143316e-01
-1.753820e-01
-2.394386e-01
-3.061423e-01
-3.748012e-01
-4.446886e-01
-5.151729e-01
-5.857398e-01
-6.559586e-01
-7.254507e-01
-7.938591e-01
-8.608204e-01
-9.259426e-01
-9.887878e-01
-1.048859e+00
-1.105590e+00
-1.158339e+00
-1.206382e+00
-1.248922e+00
-1.285094e+00
-1.313995e+00
-1.334733e+00
-1.346541e+00
-1.348991e+00
-1.342410e+00
-1.328621e+00
-1.312087e+00
-1.301214e+00
-1.307683e+00
-1.340739e+00
-1.398568e+00
0.000000e+00
-2.808455e-02
-5.721275e-02
-8.766742e-02
-1.195445e-01
-1.527079e-01
-1.868659e-01
-2.216658e-01
-2.567741e-01
-2.918983e-01
-3.267814e-01
-3.611849e-01
-3.948711e-01
-4.275863e-01
-4.590453e-01
-4.889184e-01
-5.168206e-01
-5.423040e-01
-5.648540e-01
-5.838920e-01
-5.987891e-01
-6.088947e-01
-6.135903e-01
-6.123828e-01
-6.050606e-01
-5.919473e-01
-5.742884e-01
-5.547804e-01
-5.381199e-01
-5.310661e-01
-5.409475e-01
-5.717117e-01
-6.196406e-01
0.000000e+00
-1.575892e-04
-3.183389e-04
-4.755763e-04
-6.210096e-04
-7.443395e-04
-8.321713e-04
-8.663728e-04
-8.219960e-04
-6.646375e-04
-3.470411e-04
1.952716e-04
1.049487e-03
2.332084e-03
4.196200e-03
6.839025e-03
1.050799e-02
1.550394e-02
2.217905e-02
3.092620e-02
4.215563e-02
5.625260e-02
7.350738e-02
9.400610e-02
1.174697e-01
1.430319e-01
1.689653e-01
1.924185e-01
2.093405e-01
2.149417e-01
2.051725e-01
1.791912e-01
1.414003e-01
0.000000e+00
2.777462e-02
5.658617e-02
8.673096e-02
1.183210e-01
1.512399e-01
1.852213e-01
2.199473e-01
2.551318e-01
2.905477e-01
3.260275e-01
3.614545e-01
3.967552e-01
4.318948e-01
4.668762e-01
5.017406e-01
5.365695e-01
5.714835e-01
6.066357e-01
6.421963e-01
6.783249e-01
7.151247e-01
7.525710e-01
7.904095e-01
8.280197e-01
8.642550e-01
8.972921e-01
9.245722e-01
9.429769e-01
9.494396e-01
9.421342e-01
9.219924e-01
8.936788e-01
0.000000e+00
5.580765e-02
1.137356e-01
1.744900e-01
2.382709e-01
3.047361e-01
3.732153e-01
4.430115e-01
5.135339e-01
5.843237e-01
6.550255e-01
7.253621e-01
7.951118e-01
8.640908e-01
9.321422e-01
9.991318e-01
1.064946e+00
1.129489e+00
1.192676e+00
1.254421e+00
1.314610e+00
1.373071e+00
1.429508e+00
1.483425e+00
1.534026e+00
1.580118e+00
1.620045e+00
1.651750e+00
1.673034e+00
1.682144e+00
1.678680e+00
1.664586e+00
1.644738e+00
0.000000e+00
8.390333e-02
1.713329e-01
2.635046e-01
3.606843e-01
4.618122e-01
5.656792e-01
6.711454e-01
7.773722e-01
8.837483e-01
9.897965e-01
1.095128e+00
1.199406e+00
1.302319e+00
1.403550e+00
1.502778e+00
1.599663e+00
1.693853e+00
1.784982e+00
1.872668e+00
1.956507e+00
2.036056e+00
2.110799e+00
2.180095e+00
2.243116e+00
2.298789e+00
2.345789e+00
2.382629e+00
2.407919e+00
2.420853e+00
2.421903e+00
2.413587e+00
2.401014e+00
0.000000e+00
1.118867e-01
2.292757e-01
3.553734e-01
4.883703e-01
6.260713e-01
7.665723e-01
9.084868e-01
1.050851e+00
1.193031e+00
1.334540e+00
1.474953e+00
1.613870e+00
1.750880e+00
1.885523e+00
2.017281e+00
2.145562e+00
2.269711e+00
2.389027e+00
2.502783e+00
2.610253e+00
2.710725e+00
2.803497e+00
2.887851e+00
2.963020e+00
3.028163e+00
3.082373e+00
3.124757e+00
3.154641e+00
3.171925e+00
3.177612e+00
3.174489e+00
3.167851e+00
0.000000e+00
1.402963e-01
2.905537e-01
4.547769e-01
6.285669e-01
8.049787e-01
9.830761e-01
1.162027e+00
1.340782e+00
1.518776e+00
1.695681e+00
1.871130e+00
2.044699e+00
2.215908e+00
2.384182e+00
2.548805e+00
2.708910e+00
2.863489e+00
3.011443e+00
3.151644e+00
3.282999e+00
3.404507e+00
3.515280e+00
3.614546e+00
3.701639e+00
3.775988e+00
3.837141e+00
3.884825e+00
3.919065e+00
3.940402e+00
3.950238e+00
3.951417e+00
3.949203e+00
0.000000e+00
1.790280e-01
3.711494e-01
5.799921e-01
7.972479e-01
1.013227e+00
1.228522e+00
1.443979e+00
1.658645e+00
1.871932e+00
2.083721e+00
2.293769e+00
2.501646e+00
2.706820e+00
2.908619e+00
3.106146e+00
3.298247e+00
3.483534e+00
3.660459e+00
3.827438e+00
3.982963e+00
4.125696e+00
4.254522e+00
4.368569e+00
4.467222e+00
4.550138e+00
4.617287e+00
4.669015e+00
4.706117e+00
4.729921e+00
4.742392e+00
4.746452e+00
4.746926e+00
0.000000e+00
2.367333e-01
4.912227e-01
7.443401e-01
1.003160e+00
1.257245e+00
1.508696e+00
1.760016e+00
2.010248e+00
2.258665e+00
2.505299e+00
2.749989e+00
2.992268e+00
3.231534e+00
3.467013e+00
3.697629e+00
3.921951e+00
4.138213e+00
4.344427e+00
4.538540e+00
4.718602e+00
4.882888e+00
5.029970e+00
5.158756e+00
5.268527e+00
5.358993e+00
5.430386e+00
5.483576e+00
5.520189e+00
5.542663e+00
5.554163e+00
5.558338e+00
5.559358e+00
0.000000e+00
3.700392e-01
6.665930e-01
9.545438e-01
1.248699e+00
1.537618e+00
1.824352e+00
2.111303e+00
2.397207e+00
2.681285e+00
2.963541e+00
3.243732e+00
3.521294e+00
3.795515e+00
4.065469e+00
4.329874e+00
4.587020e+00
4.834806e+00
5.070859e+00
5.292718e+00
5.498007e+00
5.684574e+00
5.850559e+00
5.994450e+00
6.115144e+00
6.212053e+00
6.285288e+00
6.335899e+00
6.366167e+00
6.379872e+00
6.382417e+00
6.380398e+00
6.379251e+00
0.000000e+00
-2.283889e-01
-4.183226e-01
-6.405172e-01
-8.915523e-01
-1.173435e+00
-1.489870e+00
-1.841574e+00
-2.228514e+00
-2.651042e+00
-3.109322e+00
-3.603199e+00
-4.132374e+00
-4.696432e+00
-5.294794e+00
-5.926689e+00
-6.591158e+00
-7.287073e+00
-8.013181e+00
-8.768165e+00
-9.550743e+00
-1.035978e+01
-1.119446e+01
-1.205447e+01
-1.294038e+01
-1.385404e+01
-1.479935e+01
-1.578339e+01
-1.681831e+01
-1.792584e+01
-1.915408e+01
-2.062316e+01
-2.262089e+01
0.000000e+00
-1.422650e-01
-3.405872e-01
-5.592838e-01
-8.099349e-01
-1.092752e+00
-1.409372e+00
-1.761141e+00
-2.148487e+00
-2.571537e+00
-3.030362e+00
-3.524887e+00
-4.054867e+00
-4.619913e+00
-5.219490e+00
-5.852884e+00
-6.519184e+00
-7.217278e+00
-7.945887e+00
-8.703623e+00
-9.489092e+00
-1.030102e+01
-1.113842e+01
-1.200084e+01
-1.288865e+01
-1.380354e+01
-1.474924e+01
-1.573271e+01
-1.676630e+01
-1.787319e+01
-1.910014e+01
-2.054185e+01
-2.239245e+01
0.000000e+00
-1.062507e-01
-2.801458e-01
-4.937919e-01
-7.417578e-01
-1.023921e+00
-1.340285e+00
-1.691942e+00
-2.079466e+00
-2.502899e+00
-2.962219e+00
-3.457362e+00
-3.988112e+00
-4.554109e+00
-5.154850e+00
-5.789663e+00
-6.457677e+00
-7.157804e+00
-7.888762e+00
-8.649131e+00
-9.437461e+00
-1.025241e+01
-1.109292e+01
-1.195848e+01
-1.284943e+01
-1.376746e+01
-1.471639e+01
-1.570353e+01
-1.674213e+01
-1.785548e+01
-1.907623e+01
-2.042739e+01
-2.188895e+01
0.000000e+00
-9.123346e-02
-2.453329e-01
-4.469785e-01
-6.893826e-01
-9.685834e-01
-1.283521e+00
-1.634515e+00
-2.021837e+00
-2.445411e+00
-2.905129e+00
-3.400872e+00
-3.932416e+00
-4.499406e+00
-5.101357e+00
-5.737623e+00
-6.407359e+00
-7.109504e+00
-7.842793e+00
-8.605818e+00
-9.397126e+00
-1.021537e+01
-1.105948e+01
-1.192894e+01
-1.282410e+01
-1.374665e+01
-1.470035e+01
-1.569223e+01
-1.673433e+01
-1.784418e+01
-1.903004e+01
-2.026168e+01
-2.140273e+01
0.000000e+00
-8.569323e-02
-2.269525e-01
-4.176846e-01
-6.524031e-01
-9.270323e-01
-1.239441e+00
-1.589115e+00
-1.975816e+00
-2.399279e+00
-2.859273e+00
-3.355584e+00
-3.887938e+00
-4.455965e+00
-5.059181e+00
-5.696947e+00
-6.368437e+00
-7.072616e+00
-7.808255e+00
-8.573976e+00
-9.368358e+00
-1.019007e+01
-1.103804e+01
-1.191173e+01
-1.281137e+01
-1.373838e+01
-1.469590e+01
-1.568933e+01
-1.672670e+01
-1.781545e+01
-1.894517e+01
-2.005996e+01
-2.105835e+01
0.000000e+00
-8.205200e-02
-2.162927e-01
-3.993414e-01
-6.275694e-01
-8.975510e-01
-1.207148e+00
-1.555209e+00
-1.941080e+00
-2.364291e+00
-2.824474e+00
-3.321308e+00
-3.854456e+00
-4.423523e+00
-5.028011e+00
-5.667283e+00
-6.340527e+00
-7.046733e+00
-7.784707e+00
-8.553110e+00
-9.350543e+00
-1.017567e+01
-1.102738e+01
-1.190498e+01
-1.280838e+01
-1.373837e+01
-1.469674e+01
-1.568623e+01
-1.670942e+01
-1.776416e+01
-1.882940e+01
-1.985441e+01
-2.076838e+01
0.000000e+00
-7.952858e-02
-2.096824e-01
-3.879627e-01
-6.116429e-01
-8.780924e-01
-1.185299e+00
-1.531910e+00
-1.917018e+00
-2.339987e+00
-2.800329e+00
-3.297640e+00
-3.831530e+00
-4.401578e+00
-5.007277e+00
-5.647990e+00
-6.322918e+00
-7.031076e+00
-7.771293e+00
-8.542250e+00
-9.342539e+00
-1.017077e+01
-1.102569e+01
-1.190631e+01
-1.281201e+01
-1.374260e+01
-1.469816e+01
-1.567841e+01
-1.668105e+01
-1.769738e+01
-1.870434e+01
-1.966160e+01
-2.052004e+01
0.000000e+00
-7.807725e-02
-2.059878e-01
-3.816437e-01
-6.027424e-01
-8.670598e-01
-1.172750e+00
-1.518415e+00
-1.903043e+00
-2.325898e+00
-2.786423e+00
-3.284163e+00
-3.818704e+00
-4.389612e+00
-4.996381e+00
-5.638384e+00
-6.314837e+00
-7.024770e+00
-7.767021e+00
-8.540259e+00
-9.343023e+00
-1.017380e+01
-1.103109e+01
-1.191349e+01
-1.281969e+01
-1.374838e+01
-1.469790e+01
-1.566540e+01
-1.664518e+01
-1.762568e+01
-1.858558e+01
-1.949400e+01
-2.031658e+01
0.000000e+00
-7.760060e-02
-2.047922e-01
-3.796196e-01
-5.999051e-01
-8.635512e-01
-1.168774e+00
-1.514181e+00
-1.898735e+00
-2.321677e+00
-2.782435e+00
-3.280549e+00
-3.815610e+00
-4.387195e+00
-4.994816e+00
-5.637868e+00
-6.315585e+00
-7.027005e+00
-7.770956e+00
-8.546059e+00
-9.350754e+00
-1.018334e+01
-1.104200e+01
-1.192484e+01
-1.282981e+01
-1.375452e+01
-1.469584e+01
-1.564912e+01
-1.660686e+01
-1.755701e+01
-1.848127e+01
-1.935614e+01
-2.015674e+01
0.000000e+00
-7.806183e-02
-2.059805e-01
-3.816737e-01
-6.028436e-01
-8.672717e-01
-1.173120e+00
-1.519003e+00
-1.903924e+00
-2.327168e+00
-2.788204e+00
-3.286614e+00
-3.822025e+00
-4.394050e+00
-5.002239e+00
-5.646017e+00
-6.324641e+00
-7.037151e+00
-7.782349e+00
-8.558781e+00
-9.364747e+00
-1.019832e+01
-1.105733e+01
-1.193937e+01
-1.284170e+01
-1.376102e+01
-1.469313e+01
-1.563230e+01
-1.657046e+01
-1.749626e+01
-1.839459e+01
-1.924751e+01
-2.003635e+01
0.000000e+00
-7.949457e-02
-2.096626e-01
-3.880148e-01
-6.118325e-01
-8.784958e-01
-1.186008e+00
-1.533038e+00
-1.918710e+00
-2.342426e+00
-2.803751e+00
-3.302346e+00
-3.837901e+00
-4.410091e+00
-5.018510e+00
-5.662626e+00
-6.341721e+00
-7.054835e+00
-7.800729e+00
-8.577858e+00
-9.384363e+00
-1.021807e+01
-1.107647e+01
-1.195669e+01
-1.285539e+01
-1.376859e+01
-1.469137e+01
-1.561753e+01
-1.653909e+01
-1.744599e+01
-1.832603e+01
-1.916558e+01
-1.995050e+01
0.000000e+00
-8.199345e-02
-2.162507e-01
-3.994010e-01
-6.278239e-01
-8.981071e-01
-1.208135e+00
-1.556785e+00
-1.943449e+00
-2.367709e+00
-2.829270e+00
-3.327899e+00
-3.863374e+00
-4.435429e+00
-5.043716e+00
-5.687744e+00
-6.366821e+00
-7.079982e+00
-7.825943e+00
-8.603063e+00
-9.409325e+00
-1.024233e+01
-1.109926e+01
-1.197686e+01
-1.287132e+01
-1.377818e+01
-1.469212e+01
-1.560679e+01
-1.651470e+01
-1.740718e+01
-1.827463e+01
-1.910701e+01
-1.989410e+01
0.000000e+00
-8.560318e-02
-2.268782e-01
-4.177348e-01
-6.526921e-01
-9.276894e-01
-1.240623e+00
-1.591016e+00
-1.978682e+00
-2.403419e+00
-2.865084e+00
-3.363568e+00
-3.898732e+00
-4.470366e+00
-5.078165e+00
-5.721674e+00
-6.400218e+00
-7.112824e+00
-7.858161e+00
-8.634499e+00
-9.439686e+00
-1.027113e+01
-1.112580e+01
-1.200014e+01
-1.289003e+01
-1.379068e+01
-1.469657e+01
-1.560143e+01
-1.649829e+01
-1.737981e+01
-1.823868e+01
-1.906809e+01
-1.986177e+01
0.000000e+00
-9.110981e-02
-2.452245e-01
-4.470079e-01
-6.896774e-01
-9.692878e-01
-1.284808e+00
-1.636603e+00
-2.024999e+00
-2.449988e+00
-2.911559e+00
-3.409709e+00
-3.944357e+00
-4.515324e+00
-5.122324e+00
-5.764914e+00
-6.442417e+00
-7.153839e+00
-7.897807e+00
-8.672519e+00
-9.475732e+00
-1.030474e+01
-1.115636e+01
-1.202686e+01
-1.291194e+01
-1.380664e+01
-1.470538e+01
-1.560200e+01
-1.649002e+01
-1.736317e+01
-1.821604e+01
-1.904484e+01
-1.984764e+01
0.000000e+00
-1.061129e-01
-2.800216e-01
-4.938052e-01
-7.420443e-01
-1.024635e+00
-1.341608e+00
-1.694102e+00
-2.082748e+00
-2.507661e+00
-2.968914e+00
-3.466564e+00
-4.000543e+00
-4.570664e+00
-5.176626e+00
-5.817958e+00
-6.493948e+00
-7.203562e+00
-7.945384e+00
-8.717574e+00
-9.517849e+00
-1.034346e+01
-1.119118e+01
-1.205722e+01
-1.293721e+01
-1.382616e+01
-1.471850e+01
-1.560820e+01
-1.648918e+01
-1.735589e+01
-1.820430e+01
-1.903314e+01
-1.984512e+01
0.000000e+00
-1.421458e-01
-3.404710e-01
-5.592983e-01
-8.102214e-01
-1.093469e+00
-1.410706e+00
-1.763321e+00
-2.151799e+00
-2.576340e+00
-3.037111e+00
-3.534153e+00
-4.067363e+00
-4.636520e+00
-5.241270e+00
-5.881072e+00
-6.555137e+00
-7.262361e+00
-8.001286e+00
-8.770056e+00
-9.566405e+00
-1.038762e+01
-1.123049e+01
-1.209128e+01
-1.296568e+01
-1.384875e+01
-1.473503e+01
-1.561869e+01
-1.649390e+01
-1.735558e+01
-1.820048e+01
-1.902891e+01
-1.984717e+01
0.000000e+00
-2.283035e-01
-4.182351e-01
-6.405616e-01
-8.918682e-01
-1.174184e+00
-1.491240e+00
-1.843794e+00
-2.231866e+00
-2.655883e+00
-3.116098e+00
-3.612470e+00
-4.144832e+00
-4.712918e+00
-5.316298e+00
-5.954324e+00
-6.626092e+00
-7.330406e+00
-8.065755e+00
-8.830285e+00
-9.621770e+00
-1.043757e+01
-1.127456e+01