TITLE = "Solution"
VARIABLES = x, y, u, v, psiu, psiv, t, stress
ZONE T="structure" N=561 E=512 F=FEBLOCK ET=QUADRILATERAL VARLOCATION=([7,8]=cellcentered)
0.000000e+00
6.250000e+00
1.250000e+01
1.875000e+01
2.500000e+01
3.125000e+01
3.750000e+01
4.375000e+01
5.000000e+01
5.625000e+01
6.250000e+01
6.875000e+01
7.500000e+01
8.125000e+01
8.750000e+01
9.375000e+01
1.000000e+02
1.062500e+02
1.125000e+02
1.187500e+02
1.250000e+02
1.312500e+02
1.375000e+02
1.437500e+02
1.500000e+02
1.562500e+02
1.625000e+02
1.687500e+02
1.750000e+02
1.812500e+02
1.875000e+02
1.937500e+02
2.000000e+02
0.000000e+00
6.250000e+00
1.250000e+01
1.875000e+01
2.500000e+01
3.125000e+01
3.750000e+01
4.375000e+01
5.000000e+01
5.625000e+01
6.250000e+01
6.875000e+01
7.500000e+01
8.125000e+01
8.750000e+01
9.375000e+01
1.000000e+02
1.062500e+02
1.125000e+02
1.187500e+02
1.250000e+02
1.312500e+02
1.375000e+02
1.437500e+02
1.500000e+02
1.562500e+02
1.625000e+02
1.687500e+02
1.750000e+02
1.812500e+02
1.875000e+02
1.937500e+02
2.000000e+02
0.000000e+00
6.250000e+00
1.250000e+01
1.875000e+01
2.500000e+01
3.125000e+01
3.750000e+01
4.375000e+01
5.000000e+01
5.625000e+01
6.250000e+01
6.875000e+01
7.500000e+01
8.125000e+01
8.750000e+01
9.375000e+01
1.000000e+02
1.062500e+02
1.125000e+02
1.187500e+02
1.250000e+02
1.312500e+02
1.375000e+02
1.437500e+02
1.500000e+02
1.562500e+02
1.625000e+02
1.687500e+02
1.750000e+02
1.812500e+02
1.875000e+02
1.937500e+02
2.000000e+02
0.000000e+00
6.250000e+00
1.250000e+01
1.875000e+01
2.500000e+01
3.125000e+01
3.750000e+01
4.375000e+01
5.000000e+01
5.625000e+01
6.250000e+01
6.875000e+01
7.500000e+01
8.125000e+01
8.750000e+01
9.375000e+01
1.000000e+02
1.062500e+02
1.125000e+02
1.187500e+02
1.250000e+02
1.312500e+02
1.375000e+02
1.437500e+02
1.500000e+02
1.562500e+02
1.625000e+02
1.687500e+02
1.750000e+02
1.812500e+02
1.875000e+02
1.937500e+02
2.000000e+02
0.000000e+00
6.250000e+00
1.250000e+01
1.875000e+01
2.500000e+01
3.125000e+01
3.750000e+01
4.375000e+01
5.000000e+01
5.625000e+01
6.250000e+01
6.875000e+01
7.500000e+01
8.125000e+01
8.750000e+01
9.375000e+01
1.000000e+02
1.062500e+02
1.125000e+02
1.187500e+02
1.250000e+02
1.312500e+02
1.375000e+02
1.437500e+02
1.500000e+02
1.562500e+02
1.625000e+02
1.687500e+02
1.750000e+02
1.812500e+02
1.875000e+02
1.937500e+02
2.000000e+02
0.000000e+00
6.250000e+00
1.250000e+01
1.875000e+01
2.500000e+01
3.125000e+01
3.750000e+01
4.375000e+01
5.000000e+01
5.625000e+01
6.250000e+01
6.875000e+01
7.500000e+01
8.125000e+01
8.750000e+01
9.375000e+01
1.000000e+02
1.062500e+02
1.125000e+02
1.187500e+02
1.250000e+02
1.312500e+02
1.375000e+02
1.437500e+02
1.500000e+02
1.562500e+02
1.625000e+02
1.687500e+02
1.750000e+02
1.812500e+02
1.875000e+02
1.937500e+02
2.000000e+02
0.000000e+00
6.250000e+00
1.250000e+01
1.875000e+01
2.500000e+01
3.125000e+01
3.750000e+01
4.375000e+01
5.000000e+01
5.625000e+01
6.250000e+01
6.875000e+01
7.500000e+01
8.125000e+01
8.750000e+01
9.375000e+01
1.000000e+02
1.062500e+02
1.125000e+02
1.187500e+02
1.250000e+02
1.312500e+02
1.375000e+02
1.437500e+02
1.500000e+02
1.562500e+02
1.625000e+02
1.687500e+02
1.750000e+02
1.812500e+02
1.875000e+02
1.937500e+02
2.000000e+02
0.000000e+00
6.250000e+00
1.250000e+01
1.875000e+01
2.500000e+01
3.125000e+01
3.750000e+01
4.375000e+01
5.000000e+01
5.625000e+01
6.250000e+01
6.875000e+01
7.500000e+01
8.125000e+01
8.750000e+01
9.375000e+01
1.000000e+02
1.062500e+02
1.125000e+02
1.187500e+02
1.250000e+02
1.312500e+02
1.375000e+02
1.437500e+02
1.500000e+02
1.562500e+02
1.625000e+02
1.687500e+02
1.750000e+02
1.812500e+02
1.875000e+02
1.937500e+02
2.000000e+02
0.000000e+00
6.250000e+00
1.250000e+01
1.875000e+01
2.500000e+01
3.125000e+01
3.750000e+01
4.375000e+01
5.000000e+01
5.625000e+01
6.250000e+01
6.875000e+01
7.500000e+01
8.125000e+01
8.750000e+01
9.375000e+01
1.000000e+02
1.062500e+02
1.125000e+02
1.187500e+02
1.250000e+02
1.312500e+02
1.375000e+02
1.437500e+02
1.500000e+02
1.562500e+02
1.625000e+02
1.687500e+02
1.750000e+02
1.812500e+02
1.875000e+02
1.937500e+02
2.000000e+02
0.000000e+00
6.250000e+00
1.250000e+01
1.875000e+01
2.500000e+01
3.125000e+01
3.750000e+01
4.375000e+01
5.000000e+01
5.625000e+01
6.250000e+01
6.875000e+01
7.500000e+01
8.125000e+01
8.750000e+01
9.375000e+01
1.000000e+02
1.062500e+02
1.125000e+02
1.187500e+02
1.250000e+02
1.312500e+02
1.375000e+02
1.437500e+02
1.500000e+02
1.562500e+02
1.625000e+02
1.687500e+02
1.750000e+02
1.812500e+02
1.875000e+02
1.937500e+02
2.000000e+02
0.000000e+00
6.250000e+00
1.250000e+01
1.875000e+01
2.500000e+01
3.125000e+01
3.750000e+01
4.375000e+01
5.000000e+01
5.625000e+01
6.250000e+01
6.875000e+01
7.500000e+01
8.125000e+01
8.750000e+01
9.375000e+01
1.000000e+02
1.062500e+02
1.125000e+02
1.187500e+02
1.250000e+02
1.312500e+02
1.375000e+02
1.437500e+02
1.500000e+02
1.562500e+02
1.625000e+02
1.687500e+02
1.750000e+02
1.812500e+02
1.875000e+02
1.937500e+02
2.000000e+02
0.000000e+00
6.250000e+00
1.250000e+01
1.875000e+01
2.500000e+01
3.125000e+01
3.750000e+01
4.375000e+01
5.000000e+01
5.625000e+01
6.250000e+01
6.875000e+01
7.500000e+01
8.125000e+01
8.750000e+01
9.375000e+01
1.000000e+02
1.062500e+02
1.125000e+02
1.187500e+02
1.250000e+02
1.312500e+02
1.375000e+02
1.437500e+02
1.500000e+02
1.562500e+02
1.625000e+02
1.687500e+02
1.750000e+02
1.812500e+02
1.875000e+02
1.937500e+02
2.000000e+02
0.000000e+00
6.250000e+00
1.250000e+01
1.875000e+01
2.500000e+01
3.125000e+01
3.750000e+01
4.375000e+01
5.000000e+01
5.625000e+01
6.250000e+01
6.875000e+01
7.500000e+01
8.125000e+01
8.750000e+01
9.375000e+01
1.000000e+02
1.062500e+02
1.125000e+02
1.187500e+02
1.250000e+02
1.312500e+02
1.375000e+02
1.437500e+02
1.500000e+02
1.562500e+02
1.625000e+02
1.687500e+02
1.750000e+02
1.812500e+02
1.875000e+02
1.937500e+02
2.000000e+02
0.000000e+00
6.250000e+00
1.250000e+01
1.875000e+01
2.500000e+01
3.125000e+01
3.750000e+01
4.375000e+01
5.000000e+01
5.625000e+01
6.250000e+01
6.875000e+01
7.500000e+01
8.125000e+01
8.750000e+01
9.375000e+01
1.000000e+02
1.062500e+02
1.125000e+02
1.187500e+02
1.250000e+02
1.312500e+02
1.375000e+02
1.437500e+02
1.500000e+02
1.562500e+02
1.625000e+02
1.687500e+02
1.750000e+02
1.812500e+02
1.875000e+02
1.937500e+02
2.000000e+02
0.000000e+00
6.250000e+00
1.250000e+01
1.875000e+01
2.500000e+01
3.125000e+01
3.750000e+01
4.375000e+01
5.000000e+01
5.625000e+01
6.250000e+01
6.875000e+01
7.500000e+01
8.125000e+01
8.750000e+01
9.375000e+01
1.000000e+02
1.062500e+02
1.125000e+02
1.187500e+02
1.250000e+02
1.312500e+02
1.375000e+02
1.437500e+02
1.500000e+02
1.562500e+02
1.625000e+02
1.687500e+02
1.750000e+02
1.812500e+02
1.875000e+02
1.937500e+02
2.000000e+02
0.000000e+00
6.250000e+00
1.250000e+01
1.875000e+01
2.500000e+01
3.125000e+01
3.750000e+01
4.375000e+01
5.000000e+01
5.625000e+01
6.250000e+01
6.875000e+01
7.500000e+01
8.125000e+01
8.750000e+01
9.375000e+01
1.000000e+02
1.062500e+02
1.125000e+02
1.187500e+02
1.250000e+02
1.312500e+02
1.375000e+02
1.437500e+02
1.500000e+02
1.562500e+02
1.625000e+02
1.687500e+02
1.750000e+02
1.812500e+02
1.875000e+02
1.937500e+02
2.000000e+02
0.000000e+00
6.250000e+00
1.250000e+01
1.875000e+01
2.500000e+01
3.125000e+01
3.750000e+01
4.375000e+01
5.000000e+01
5.625000e+01
6.250000e+01
6.875000e+01
7.500000e+01
8.125000e+01
8.750000e+01
9.375000e+01
1.000000e+02
1.062500e+02
1.125000e+02
1.187500e+02
1.250000e+02
1.312500e+02
1.375000e+02
1.437500e+02
1.500000e+02
1.562500e+02
1.625000e+02
1.687500e+02
1.750000e+02
1.812500e+02
1.875000e+02
1.937500e+02
2.000000e+02
0.000000e+00
0.000000e+00
0.000000e+00
0.000000e+00
0.000000e+00
0.000000e+00
0.000000e+00
0.000000e+00
0.000000e+00
0.000000e+00
0.000000e+00
0.000000e+00
0.000000e+00
0.000000e+00
0.000000e+00
0.000000e+00
0.000000e+00
0.000000e+00
0.000000e+00
0.000000e+00
0.000000e+00
0.000000e+00
0.000000e+00
0.000000e+00
0.000000e+00
0.000000e+00
0.000000e+00
0.000000e+00
0.000000e+00
0.000000e+00
0.000000e+00
0.000000e+00
0.000000e+00
6.250000e+00
6.250000e+00
6.250000e+00
6.250000e+00
6.250000e+00
6.250000e+00
6.250000e+00
6.250000e+00
6.250000e+00
6.250000e+00
6.250000e+00
6.250000e+00
6.250000e+00
6.250000e+00
6.250000e+00
6.250000e+00
6.250000e+00
6.250000e+00
6.250000e+00
6.250000e+00
6.250000e+00
6.250000e+00
6.250000e+00
6.250000e+00
6.250000e+00
6.250000e+00
6.250000e+00
6.250000e+00
6.250000e+00
6.250000e+00
6.250000e+00
6.250000e+00
6.250000e+00
1.250000e+01
1.250000e+01
1.250000e+01
1.250000e+01
1.250000e+01
1.250000e+01
1.250000e+01
1.250000e+01
1.250000e+01
1.250000e+01
1.250000e+01
1.250000e+01
1.250000e+01
1.250000e+01
1.250000e+01
1.250000e+01
1.250000e+01
1.250000e+01
1.250000e+01
1.250000e+01
1.250000e+01
1.250000e+01
1.250000e+01
1.250000e+01
1.250000e+01
1.250000e+01
1.250000e+01
1.250000e+01
1.250000e+01
1.250000e+01
1.250000e+01
1.250000e+01
1.250000e+01
1.875000e+01
1.875000e+01
1.875000e+01
1.875000e+01
1.875000e+01
1.875000e+01
1.875000e+01
1.875000e+01
1.875000e+01
1.875000e+01
1.875000e+01
1.875000e+01
1.875000e+01
1.875000e+01
1.875000e+01
1.875000e+01
1.875000e+01
1.875000e+01
1.875000e+01
1.875000e+01
1.875000e+01
1.875000e+01
1.875000e+01
1.875000e+01
1.875000e+01
1.875000e+01
1.875000e+01
1.875000e+01
1.875000e+01
1.875000e+01
1.875000e+01
1.875000e+01
1.875000e+01
2.500000e+01
2.500000e+01
2.500000e+01
2.500000e+01
2.500000e+01
2.500000e+01
2.500000e+01
2.500000e+01
2.500000e+01
2.500000e+01
2.500000e+01
2.500000e+01
2.500000e+01
2.500000e+01
2.500000e+01
2.500000e+01
2.500000e+01
2.500000e+01
2.500000e+01
2.500000e+01
2.500000e+01
2.500000e+01
2.500000e+01
2.500000e+01
2.500000e+01
2.500000e+01
2.500000e+01
2.500000e+01
2.500000e+01
2.500000e+01
2.500000e+01
2.500000e+01
2.500000e+01
3.125000e+01
3.125000e+01
3.125000e+01
3.125000e+01
3.125000e+01
3.125000e+01
3.125000e+01
3.125000e+01
3.125000e+01
3.125000e+01
3.125000e+01
3.125000e+01
3.125000e+01
3.125000e+01
3.125000e+01
3.125000e+01
3.125000e+01
3.125000e+01
3.125000e+01
3.125000e+01
3.125000e+01
3.125000e+01
3.125000e+01
3.125000e+01
3.125000e+01
3.125000e+01
3.125000e+01
3.125000e+01
3.125000e+01
3.125000e+01
3.125000e+01
3.125000e+01
3.125000e+01
3.750000e+01
3.750000e+01
3.750000e+01
3.750000e+01
3.750000e+01
3.750000e+01
3.750000e+01
3.750000e+01
3.750000e+01
3.750000e+01
3.750000e+01
3.750000e+01
3.750000e+01
3.750000e+01
3.750000e+01
3.750000e+01
3.750000e+01
3.750000e+01
3.750000e+01
3.750000e+01
3.750000e+01
3.750000e+01
3.750000e+01
3.750000e+01
3.750000e+01
3.750000e+01
3.750000e+01
3.750000e+01
3.750000e+01
3.750000e+01
3.750000e+01
3.750000e+01
3.750000e+01
4.375000e+01
4.375000e+01
4.375000e+01
4.375000e+01
4.375000e+01
4.375000e+01
4.375000e+01
4.375000e+01
4.375000e+01
4.375000e+01
4.375000e+01
4.375000e+01
4.375000e+01
4.375000e+01
4.375000e+01
4.375000e+01
4.375000e+01
4.375000e+01
4.375000e+01
4.375000e+01
4.375000e+01
4.375000e+01
4.375000e+01
4.375000e+01
4.375000e+01
4.375000e+01
4.375000e+01
4.375000e+01
4.375000e+01
4.375000e+01
4.375000e+01
4.375000e+01
4.375000e+01
5.000000e+01
5.000000e+01
5.000000e+01
5.000000e+01
5.000000e+01
5.000000e+01
5.000000e+01
5.000000e+01
5.000000e+01
5.000000e+01
5.000000e+01
5.000000e+01
5.000000e+01
5.000000e+01
5.000000e+01
5.000000e+01
5.000000e+01
5.000000e+01
5.000000e+01
5.000000e+01
5.000000e+01
5.000000e+01
5.000000e+01
5.000000e+01
5.000000e+01
5.000000e+01
5.000000e+01
5.000000e+01
5.000000e+01
5.000000e+01
5.000000e+01
5.000000e+01
5.000000e+01
5.625000e+01
5.625000e+01
5.625000e+01
5.625000e+01
5.625000e+01
5.625000e+01
5.625000e+01
5.625000e+01
5.625000e+01
5.625000e+01
5.625000e+01
5.625000e+01
5.625000e+01
5.625000e+01
5.625000e+01
5.625000e+01
5.625000e+01
5.625000e+01
5.625000e+01
5.625000e+01
5.625000e+01
5.625000e+01
5.625000e+01
5.625000e+01
5.625000e+01
5.625000e+01
5.625000e+01
5.625000e+01
5.625000e+01
5.625000e+01
5.625000e+01
5.625000e+01
5.625000e+01
6.250000e+01
6.250000e+01
6.250000e+01
6.250000e+01
6.250000e+01
6.250000e+01
6.250000e+01
6.250000e+01
6.250000e+01
6.250000e+01
6.250000e+01
6.250000e+01
6.250000e+01
6.250000e+01
6.250000e+01
6.250000e+01
6.250000e+01
6.250000e+01
6.250000e+01
6.250000e+01
6.250000e+01
6.250000e+01
6.250000e+01
6.250000e+01
6.250000e+01
6.250000e+01
6.250000e+01
6.250000e+01
6.250000e+01
6.250000e+01
6.250000e+01
6.250000e+01
6.250000e+01
6.875000e+01
6.875000e+01
6.875000e+01
6.875000e+01
6.875000e+01
6.875000e+01
6.875000e+01
6.875000e+01
6.875000e+01
6.875000e+01
6.875000e+01
6.875000e+01
6.875000e+01
6.875000e+01
6.875000e+01
6.875000e+01
6.875000e+01
6.875000e+01
6.875000e+01
6.875000e+01
6.875000e+01
6.875000e+01
6.875000e+01
6.875000e+01
6.875000e+01
6.875000e+01
6.875000e+01
6.875000e+01
6.875000e+01
6.875000e+01
6.875000e+01
6.875000e+01
6.875000e+01
7.500000e+01
7.500000e+01
7.500000e+01
7.500000e+01
7.500000e+01
7.500000e+01
7.500000e+01
7.500000e+01
7.500000e+01
7.500000e+01
7.500000e+01
7.500000e+01
7.500000e+01
7.500000e+01
7.500000e+01
7.500000e+01
7.500000e+01
7.500000e+01
7.500000e+01
7.500000e+01
7.500000e+01
7.500000e+01
7.500000e+01
7.500000e+01
7.500000e+01
7.500000e+01
7.500000e+01
7.500000e+01
7.500000e+01
7.500000e+01
7.500000e+01
7.500000e+01
7.500000e+01
8.125000e+01
8.125000e+01
8.125000e+01
8.125000e+01
8.125000e+01
8.125000e+01
8.125000e+01
8.125000e+01
8.125000e+01
8.125000e+01
8.125000e+01
8.125000e+01
8.125000e+01
8.125000e+01
8.125000e+01
8.125000e+01
8.125000e+01
8.125000e+01
8.125000e+01
8.125000e+01
8.125000e+01
8.125000e+01
8.125000e+01
8.125000e+01
8.125000e+01
8.125000e+01
8.125000e+01
8.125000e+01
8.125000e+01
8.125000e+01
8.125000e+01
8.125000e+01
8.125000e+01
8.750000e+01
8.750000e+01
8.750000e+01
8.750000e+01
8.750000e+01
8.750000e+01
8.750000e+01
8.750000e+01
8.750000e+01
8.750000e+01
8.750000e+01
8.750000e+01
8.750000e+01
8.750000e+01
8.750000e+01
8.750000e+01
8.750000e+01
8.750000e+01
8.750000e+01
8.750000e+01
8.750000e+01
8.750000e+01
8.750000e+01
8.750000e+01
8.750000e+01
8.750000e+01
8.750000e+01
8.750000e+01
8.750000e+01
8.750000e+01
8.750000e+01
8.750000e+01
8.750000e+01
9.375000e+01
9.375000e+01
9.375000e+01
9.375000e+01
9.375000e+01
9.375000e+01
9.375000e+01
9.375000e+01
9.375000e+01
9.375000e+01
9.375000e+01
9.375000e+01
9.375000e+01
9.375000e+01
9.375000e+01
9.375000e+01
9.375000e+01
9.375000e+01
9.375000e+01
9.375000e+01
9.375000e+01
9.375000e+01
9.375000e+01
9.375000e+01
9.375000e+01
9.375000e+01
9.375000e+01
9.375000e+01
9.375000e+01
9.375000e+01
9.375000e+01
9.375000e+01
9.375000e+01
1.000000e+02
1.000000e+02
1.000000e+02
1.000000e+02
1.000000e+02
1.000000e+02
1.000000e+02
1.000000e+02
1.000000e+02
1.000000e+02
1.000000e+02
1.000000e+02
1.000000e+02
1.000000e+02
1.000000e+02
1.000000e+02
1.000000e+02
1.000000e+02
1.000000e+02
1.000000e+02
1.000000e+02
1.000000e+02
1.000000e+02
1.000000e+02
1.000000e+02
1.000000e+02
1.000000e+02
1.000000e+02
1.000000e+02
1.000000e+02
1.000000e+02
1.000000e+02
1.000000e+02
0.000000e+00
-4.082111e-02
-7.406448e-02
-1.048598e-01
-1.344146e-01
-1.629542e-01
-1.905360e-01
-2.171575e-01
-2.428019e-01
-2.674506e-01
-2.910881e-01
-3.137038e-01
-3.352922e-01
-3.558528e-01
-3.753904e-01
-3.939153e-01
-4.114441e-01
-4.280009e-01
-4.436190e-01
-4.583434e-01
-4.722339e-01
-4.853696e-01
-4.978553e-01
-5.098297e-01
-5.214789e-01
-5.330555e-01
-5.449108e-01
-5.575452e-01
-5.716934e-01
-5.884359e-01
-6.091750e-01
-6.338902e-01
-6.489736e-01
0.000000e+00
-2.736946e-02
-5.694510e-02
-8.483103e-02
-1.113355e-01
-1.367109e-01
-1.610914e-01
-1.845355e-01
-2.070667e-01
-2.286925e-01
-2.494145e-01
-2.692325e-01
-2.881476e-01
-3.061628e-01
-3.232840e-01
-3.395209e-01
-3.548871e-01
-3.694018e-01
-3.830901e-01
-3.959845e-01
-4.081269e-01
-4.195697e-01
-4.303780e-01
-4.406317e-01
-4.504260e-01
-4.598707e-01
-4.690813e-01
-4.781532e-01
-4.870858e-01
-4.955884e-01
-5.026734e-01
-5.068156e-01
-5.125823e-01
0.000000e+00
-2.170952e-02
-4.469427e-02
-6.809640e-02
-9.083603e-02
-1.127376e-01
-1.337873e-01
-1.540049e-01
-1.734083e-01
-1.920097e-01
-2.098172e-01
-2.268361e-01
-2.430713e-01
-2.585274e-01
-2.732104e-01
-2.871271e-01
-3.002868e-01
-3.127008e-01
-3.243830e-01
-3.353500e-01
-3.456211e-01
-3.552170e-01
-3.641582e-01
-3.724605e-01
-3.801272e-01
-3.871338e-01
-3.934000e-01
-3.987414e-01
-4.027969e-01
-4.049806e-01
-4.047891e-01
-4.035629e-01
-4.102968e-01
0.000000e+00
-1.722458e-02
-3.540044e-02
-5.407386e-02
-7.270353e-02
-9.088194e-02
-1.084534e-01
-1.253621e-01
-1.415930e-01
-1.571453e-01
-1.720230e-01
-1.862312e-01
-1.997747e-01
-2.126576e-01
-2.248838e-01
-2.364568e-01
-2.473797e-01
-2.576553e-01
-2.672858e-01
-2.762716e-01
-2.846105e-01
-2.922949e-01
-2.993076e-01
-3.056162e-01
-3.111622e-01
-3.158479e-01
-3.195181e-01
-3.219486e-01
-3.228766e-01
-3.221877e-01
-3.205145e-01
-3.204146e-01
-3.268304e-01
0.000000e+00
-1.336868e-02
-2.737450e-02
-4.182772e-02
-5.639837e-02
-7.079030e-02
-8.480495e-02
-9.834177e-02
-1.113551e-01
-1.238272e-01
-1.357537e-01
-1.471351e-01
-1.579735e-01
-1.682708e-01
-1.780276e-01
-1.872431e-01
-1.959145e-01
-2.040364e-01
-2.116005e-01
-2.185941e-01
-2.249984e-01
-2.307861e-01
-2.359175e-01
-2.403364e-01
-2.439645e-01
-2.466993e-01
-2.484202e-01
-2.490238e-01
-2.485286e-01
-2.473168e-01
-2.465306e-01
-2.483461e-01
-2.538190e-01
0.000000e+00
-9.825201e-03
-2.007135e-02
-3.064668e-02
-4.136845e-02
-5.203653e-02
-6.249203e-02
-7.263167e-02
-8.239876e-02
-9.176574e-02
-1.007210e-01
-1.092604e-01
-1.173825e-01
-1.250858e-01
-1.323675e-01
-1.392223e-01
-1.456422e-01
-1.516153e-01
-1.571256e-01
-1.621515e-01
-1.666646e-01
-1.706283e-01
-1.739965e-01
-1.767124e-01
-1.787118e-01
-1.799318e-01
-1.803365e-01
-1.799733e-01
-1.790780e-01
-1.782263e-01
-1.784337e-01
-1.807481e-01
-1.852766e-01
0.000000e+00
-6.466163e-03
-1.318809e-02
-2.012326e-02
-2.717277e-02
-3.421797e-02
-4.115259e-02
-4.789921e-02
-5.440935e-02
-6.065626e-02
-6.662645e-02
-7.231311e-02
-7.771188e-02
-8.281827e-02
-8.762613e-02
-9.212664e-02
-9.630769e-02
-1.001532e-01
-1.036425e-01
-1.067500e-01
-1.094443e-01
-1.116890e-01
-1.134433e-01
-1.146658e-01
-1.153226e-01
-1.154041e-01
-1.149550e-01
-1.141240e-01
-1.132272e-01
-1.127925e-01
-1.134707e-01
-1.157240e-01
-1.193795e-01
0.000000e+00
-3.211741e-03
-6.544905e-03
-9.982360e-03
-1.348069e-02
-1.698464e-02
-2.044171e-02
-2.381085e-02
-2.706430e-02
-3.018512e-02
-3.316327e-02
-3.599209e-02
-3.866581e-02
-4.117779e-02
-4.351947e-02
-4.567960e-02
-4.764370e-02
-4.939363e-02
-5.090740e-02
-5.215921e-02
-5.312015e-02
-5.375978e-02
-5.404953e-02
-5.396894e-02
-5.351642e-02
-5.272651e-02
-5.169480e-02
-5.060773e-02
-4.976383e-02
-4.955244e-02
-5.034815e-02
-5.231387e-02
-5.521439e-02
0.000000e+00
-5.181825e-06
-1.123567e-05
-1.782617e-05
-2.460667e-05
-3.110973e-05
-3.663095e-05
-4.009985e-05
-3.992913e-05
-3.383314e-05
-1.860874e-05
1.012532e-05
5.823007e-05
1.333824e-04
2.454295e-04
4.067309e-04
6.324351e-04
9.406055e-04
1.352059e-03
1.889712e-03
2.577127e-03
3.435810e-03
4.480655e-03
5.712796e-03
7.109152e-03
8.608555e-03
1.009621e-02
1.139230e-02
1.225750e-02
1.243295e-02
1.172648e-02
1.012655e-02
7.885756e-03
0.000000e+00
3.201981e-03
6.523700e-03
9.948648e-03
1.343405e-02
1.692550e-02
2.037182e-02
2.373393e-02
2.698706e-02
3.011853e-02
3.312430e-02
3.600594e-02
3.876869e-02
4.142038e-02
4.397102e-02
4.643273e-02
4.881974e-02
5.114825e-02
5.343601e-02
5.570131e-02
5.796107e-02
6.022774e-02
6.250455e-02
6.477885e-02
6.701368e-02
6.913851e-02
7.104212e-02
7.257320e-02
7.355696e-02
7.383548e-02
7.333106e-02
7.211567e-02
7.045256e-02
0.000000e+00
6.458190e-03
1.317065e-02
2.009533e-02
2.713383e-02
3.416813e-02
4.109300e-02
4.783259e-02
5.434077e-02
6.059423e-02
6.658431e-02
7.231087e-02
7.777855e-02
8.299472e-02
8.796852e-02
9.271056e-02
9.723270e-02
1.015478e-01
1.056694e-01
1.096101e-01
1.133802e-01
1.169844e-01
1.204179e-01
1.236608e-01
1.266724e-01
1.293859e-01
1.317069e-01
1.335197e-01
1.347062e-01
1.351806e-01
1.349367e-01
1.340957e-01
1.329350e-01
0.000000e+00
9.820115e-03
2.006002e-02
3.062823e-02
4.134225e-02
5.200233e-02
6.245019e-02
7.258350e-02
8.234707e-02
9.171546e-02
1.006801e-01
1.092413e-01
1.174033e-01
1.251725e-01
1.325562e-01
1.395623e-01
1.461991e-01
1.524748e-01
1.583976e-01
1.639744e-01
1.692090e-01
1.741001e-01
1.786385e-01
1.828025e-01
1.865555e-01
1.898429e-01
1.925938e-01
1.947288e-01
1.961766e-01
1.969021e-01
1.969429e-01
1.964496e-01
1.957160e-01
0.000000e+00
1.336741e-02
2.737134e-02
4.182207e-02
5.638962e-02
7.077797e-02
8.478872e-02
9.832162e-02
1.113314e-01
1.238011e-01
1.357271e-01
1.471114e-01
1.579582e-01
1.682720e-01
1.780572e-01
1.873176e-01
1.960569e-01
2.042778e-01
2.119824e-01
2.191710e-01
2.258415e-01
2.319877e-01
2.375978e-01
2.426524e-01
2.471231e-01
2.509724e-01
2.541563e-01
2.566307e-01
2.583648e-01
2.593611e-01
2.596843e-01
2.594991e-01
2.591126e-01
0.000000e+00
1.722778e-02
3.540694e-02
5.408354e-02
7.271610e-02
9.089705e-02
1.084705e-01
1.253804e-01
1.416110e-01
1.571609e-01
1.720328e-01
1.862302e-01
1.997558e-01
2.126111e-01
2.247962e-01
2.363103e-01
2.471511e-01
2.573150e-01
2.667972e-01
2.755908e-01
2.836869e-01
2.910744e-01
2.977391e-01
3.036643e-01
3.088310e-01
3.132199e-01
3.168145e-01
3.196067e-01
3.216051e-01
3.228470e-01
3.234182e-01
3.234863e-01
3.233581e-01
0.000000e+00
2.171733e-02
4.471095e-02
6.812252e-02
9.087207e-02
1.127841e-01
1.338441e-01
1.540715e-01
1.734828e-01
1.920883e-01
2.098931e-01
2.268985e-01
2.431033e-01
2.585046e-01
2.730975e-01
2.868754e-01
2.998297e-01
3.119500e-01
3.232235e-01
3.336350e-01
3.431675e-01
3.518025e-01
3.595212e-01
3.663063e-01
3.721449e-01
3.770327e-01
3.809783e-01
3.840097e-01
3.861793e-01
3.875688e-01
3.882961e-01
3.885330e-01
3.885613e-01
0.000000e+00
2.738118e-02
5.697072e-02
8.487224e-02
1.113943e-01
1.367894e-01
1.611911e-01
1.846576e-01
2.072106e-01
2.288554e-01
2.495895e-01
2.694072e-01
2.883012e-01
3.062626e-01
3.232814e-01
3.393453e-01
3.544398e-01
3.685471e-01
3.816460e-01
3.937118e-01
4.047166e-01
4.146309e-01
4.234253e-01
4.310746e-01
4.375630e-01
4.428909e-01
4.470833e-01
4.501993e-01
4.523399e-01
4.536515e-01
4.543215e-01
4.545645e-01
4.546240e-01
0.000000e+00
4.083395e-02
7.409444e-02
1.049111e-01
1.344914e-01
1.630607e-01
1.906765e-01
2.173361e-01
2.430220e-01
2.677134e-01
2.913914e-01
3.140396e-01
3.356434e-01
3.561889e-01
3.756619e-01
3.940461e-01
4.113219e-01
4.274653e-01
4.424468e-01
4.562309e-01
4.687760e-01
4.800360e-01
4.899626e-01
4.985103e-01
5.056438e-01
5.113486e-01
5.156451e-01
5.186050e-01
5.203692e-01
5.211641e-01
5.213086e-01
5.211889e-01
5.211216e-01
0.000000e+00
-2.522667e-02
-4.402598e-02
-6.454056e-02
-8.738476e-02
-1.131896e-01
-1.421343e-01
-1.742693e-01
-2.095625e-01
-2.479383e-01
-2.892950e-01
-3.335155e-01
-3.804736e-01
-4.300381e-01
-4.820748e-01
-5.364487e-01
-5.930257e-01
-6.516739e-01
-7.122660e-01
-7.746819e-01
-8.388131e-01
-9.045681e-01
-9.718816e-01
-1.040728e+00
-1.111141e+00
-1.183251e+00
-1.257346e+00
-1.333983e+00
-1.414234e+00
-1.500216e+00
-1.596501e+00
-1.713871e+00
-1.876022e+00
0.000000e+00
-1.567741e-02
-3.535534e-02
-5.600830e-02
-7.917091e-02
-1.052561e-01
-1.344820e-01
-1.668983e-01
-2.024756e-01
-2.411382e-01
-2.827839e-01
-3.272947e-01
-3.745434e-01
-4.243975e-01
-4.767216e-01
-5.313795e-01
-5.882353e-01
-6.471551e-01
-7.080092e-01
-7.706746e-01
-8.350389e-01
-9.010059e-01
-9.685044e-01
-1.037501e+00
-1.108020e+00
-1.180181e+00
-1.254256e+00
-1.330785e+00
-1.410817e+00
-1.496434e+00
-1.591975e+00
-1.706733e+00
-1.858223e+00
0.000000e+00
-1.151596e-02
-2.850330e-02
-4.887453e-02
-7.207760e-02
-9.835497e-02
-1.278116e-01
-1.604749e-01
-1.963056e-01
-2.352244e-01
-2.771272e-01
-3.218953e-01
-3.694007e-01
-4.195106e-01
-4.720890e-01
-5.269993e-01
-5.841048e-01
-6.432709e-01
-7.043671e-01
-7.672692e-01
-8.318639e-01
-8.980544e-01
-9.657692e-01
-1.034976e+00
-1.105702e+00
-1.178073e+00
-1.252373e+00
-1.329157e+00
-1.409461e+00
-1.495159e+00
-1.589456e+00
-1.696141e+00
-1.814486e+00
0.000000e+00
-9.221495e-03
-2.413655e-02
-4.342148e-02
-6.632636e-02
-9.259557e-02
-1.221782e-01
-1.550245e-01
-1.910637e-01
-2.302020e-01
-2.723287e-01
-3.173221e-01
-3.650532e-01
-4.153887e-01
-4.681931e-01
-5.233298e-01
-5.806628e-01
-6.400580e-01
-7.013854e-01
-7.645221e-01
-8.293561e-01
-8.957930e-01
-9.637647e-01
-1.033244e+00
-1.104266e+00
-1.176961e+00
-1.251611e+00
-1.328728e+00
-1.409158e+00
-1.494137e+00
-1.584849e+00
-1.680521e+00
-1.769582e+00
0.000000e+00
-7.802901e-03
-2.128084e-02
-3.954916e-02
-6.193191e-02
-8.802889e-02
-1.176227e-01
-1.505757e-01
-1.867689e-01
-2.260839e-01
-2.683979e-01
-3.135832e-01
-3.615088e-01
-4.120410e-01
-4.650446e-01
-5.203841e-01
-5.779248e-01
-6.375341e-01
-6.990838e-01
-7.624531e-01
-8.275325e-01
-8.942304e-01
-9.624818e-01
-1.032261e+00
-1.103601e+00
-1.176615e+00
-1.251534e+00
-1.328726e+00
-1.408678e+00
-1.491782e+00
-1.577642e+00
-1.663105e+00
-1.740668e+00
0.000000e+00
-6.900237e-03
-1.940715e-02
-3.688441e-02
-5.876331e-02
-8.461583e-02
-1.141453e-01
-1.471405e-01
-1.834350e-01
-2.228825e-01
-2.653448e-01
-3.106869e-01
-3.587743e-01
-4.094729e-01
-4.626480e-01
-5.181656e-01
-5.758927e-01
-6.356988e-01
-6.974576e-01
-7.610501e-01
-8.263686e-01
-8.933220e-01
-9.618432e-01
-1.031899e+00
-1.103502e+00
-1.176721e+00
-1.251685e+00
-1.328557e+00
-1.407424e+00
-1.488021e+00
-1.569120e+00
-1.647824e+00
-1.719759e+00
0.000000e+00
-6.339242e-03
-1.822250e-02
-3.515226e-02
-5.664058e-02
-8.227032e-02
-1.117121e-01
-1.447114e-01
-1.810658e-01
-2.206050e-01
-2.631767e-01
-3.086385e-01
-3.568529e-01
-4.076851e-01
-4.610014e-01
-5.166692e-01
-5.745572e-01
-6.345367e-01
-6.964830e-01
-7.602778e-01
-8.258125e-01
-8.929923e-01
-9.617410e-01
-1.032007e+00
-1.103766e+00
-1.177019e+00
-1.251773e+00
-1.327985e+00
-1.405435e+00
-1.483493e+00
-1.560808e+00
-1.635151e+00
-1.703791e+00
0.000000e+00
-6.030967e-03
-1.756517e-02
-3.417615e-02
-5.542338e-02
-8.090408e-02
-1.102783e-01
-1.432703e-01
-1.796572e-01
-2.192531e-01
-2.618964e-01
-3.074398e-01
-3.557440e-01
-4.066740e-01
-4.600971e-01
-5.158823e-01
-5.738997e-01
-6.340220e-01
-6.961247e-01
-7.600883e-01
-8.258003e-01
-8.931576e-01
-9.620684e-01
-1.032453e+00
-1.104242e+00
-1.177360e+00
-1.251699e+00
-1.327059e+00
-1.403035e+00
-1.478881e+00
-1.553379e+00
-1.624852e+00
-1.691436e+00
0.000000e+00
-5.931641e-03
-1.735310e-02
-3.385979e-02
-5.502668e-02
-8.045694e-02
-1.098086e-01
-1.428002e-01
-1.792023e-01
-2.188247e-01
-2.615029e-01
-3.070887e-01
-3.554430e-01
-4.064315e-01
-4.599230e-01
-5.157877e-01
-5.738969e-01
-6.341235e-01
-6.963421e-01
-7.604302e-01
-8.262685e-01
-8.937417e-01
-9.627379e-01
-1.033145e+00
-1.104846e+00
-1.177696e+00
-1.251498e+00
-1.325949e+00
-1.400566e+00
-1.474615e+00
-1.547065e+00
-1.616638e+00
-1.681967e+00
0.000000e+00
-6.028093e-03
-1.756118e-02
-3.417272e-02
-5.542234e-02
-8.090773e-02
-1.102896e-01
-1.432934e-01
-1.796972e-01
-2.193169e-01
-2.619931e-01
-3.075805e-01
-3.559426e-01
-4.069472e-01
-4.604644e-01
-5.163657e-01
-5.745231e-01
-6.348088e-01
-6.970955e-01
-7.612558e-01
-8.271620e-01
-8.946844e-01
-9.636892e-01
-1.034033e+00
-1.105552e+00
-1.178050e+00
-1.251265e+00
-1.324841e+00
-1.398283e+00
-1.470922e+00
-1.541908e+00
-1.610252e+00
-1.674910e+00
0.000000e+00
-6.333728e-03
-1.821485e-02
-3.514564e-02
-5.663851e-02
-8.227717e-02
-1.117336e-01
-1.447553e-01
-1.811422e-01
-2.207272e-01
-2.633618e-01
-3.089080e-01
-3.572336e-01
-4.082090e-01
-4.617060e-01
-5.175971e-01
-5.757541e-01
-6.360485e-01
-6.983498e-01
-7.625254e-01
-8.284379e-01
-8.959434e-01
-9.648869e-01
-1.035096e+00
-1.106372e+00
-1.178475e+00
-1.251107e+00
-1.323892e+00
-1.396354e+00
-1.467907e+00
-1.537864e+00
-1.605462e+00
-1.669901e+00
0.000000e+00
-6.892574e-03
-1.939651e-02
-3.687516e-02
-5.876032e-02
-8.462520e-02
-1.141751e-01
-1.472014e-01
-1.835414e-01
-2.230529e-01
-2.656031e-01
-3.110634e-01
-3.593063e-01
-4.102054e-01
-4.636340e-01
-5.194648e-01
-5.775697e-01
-6.378184e-01
-7.000776e-01
-7.642089e-01
-8.300663e-01
-8.974927e-01
-9.663146e-01
-1.036336e+00
-1.107331e+00
-1.179031e+00
-1.251117e+00
-1.323212e+00
-1.394872e+00
-1.465598e+00
-1.534844e+00
-1.602045e+00
-1.666617e+00
0.000000e+00
-7.793874e-03
-2.126833e-02
-3.953827e-02
-6.192845e-02
-8.804023e-02
-1.176586e-01
-1.506492e-01
-1.868973e-01
-2.262897e-01
-2.687101e-01
-3.140384e-01
-3.621522e-01
-4.129272e-01
-4.662377e-01
-5.219567e-01
-5.799554e-01
-6.401021e-01
-7.022605e-01
-7.662874e-01
-8.320295e-01
-8.993188e-01
-9.679677e-01
-1.037763e+00
-1.108458e+00
-1.179767e+00
-1.251361e+00
-1.322869e+00
-1.393882e+00
-1.463977e+00
-1.532737e+00
-1.599777e+00
-1.664737e+00
0.000000e+00
-9.212217e-03
-2.412370e-02
-4.341040e-02
-6.632338e-02
-9.260889e-02
-1.222187e-01
-1.551066e-01
-1.912065e-01
-2.304304e-01
-2.726748e-01
-3.178262e-01
-3.657651e-01
-4.163687e-01
-4.695117e-01
-5.250669e-01
-5.829048e-01
-6.428923e-01
-7.048907e-01
-7.687532e-01
-8.343208e-01
-9.014182e-01
-9.698481e-01
-1.039385e+00
-1.109771e+00
-1.180711e+00
-1.251871e+00
-1.322887e+00
-1.393383e+00
-1.462994e+00
-1.531412e+00
-1.598422e+00
-1.663918e+00
0.000000e+00
-1.150788e-02
-2.849205e-02
-4.886518e-02
-7.207672e-02
-9.837119e-02
-1.278564e-01
-1.605632e-01
-1.964573e-01
-2.354654e-01
-2.774906e-01
-3.224226e-01
-3.701433e-01
-4.205300e-01
-4.734574e-01
-5.287979e-01
-5.864212e-01
-6.461928e-01
-7.079724e-01
-7.716107e-01
-8.369453e-01
-9.037965e-01
-9.719615e-01
-1.041209e+00
-1.111276e+00
-1.181863e+00
-1.252637e+00
-1.323244e+00
-1.393327e+00
-1.462563e+00
-1.530725e+00
-1.597741e+00
-1.663775e+00
0.000000e+00
-1.567222e-02
-3.534768e-02
-5.600280e-02
-7.917431e-02
-1.052772e-01
-1.345324e-01
-1.669930e-01
-2.026345e-01
-2.413869e-01
-2.831550e-01
-3.278291e-01
-3.752910e-01
-4.254179e-01
-4.780841e-01
-5.331613e-01
-5.905182e-01
-6.500196e-01
-7.115235e-01
-7.748789e-01
-8.399217e-01
-9.064702e-01
-9.743198e-01
-1.043238e+00
-1.112962e+00
-1.183193e+00
-1.253606e+00
-1.323855e+00
-1.393599e+00
-1.462543e+00
-1.530501e+00
-1.597495e+00
-1.663897e+00
0.000000e+00
-2.522593e-02
-4.402343e-02
-6.454104e-02
-8.739506e-02
-1.132186e-01
-1.421935e-01
-1.743737e-01
-2.097315e-01
-2.481968e-01
-2.896743e-01
-3.340546e-01
-3.812196e-01
-4.310465e-01
-4.834090e-01
-5.381780e-01
-5.952214e-01
-6.544024e-01
-7.155777e-01
-7.785946e-01
-8.432876e-01
-9.094739e-01
-9.769487e-01