TITLE = "Solution"
VARIABLES = x, y, u, v, psiu, psiv, t, stress
ZONE T="structure" N=153 E=128 F=FEBLOCK ET=QUADRILATERAL VARLOCATION=([7,8]=cellcentered)
0.000000e+00
1.250000e+01
2.500000e+01
3.750000e+01
5.000000e+01
6.250000e+01
7.500000e+01
8.750000e+01
1.000000e+02
1.125000e+02
1.250000e+02
1.375000e+02
1.500000e+02
1.625000e+02
1.750000e+02
1.875000e+02
2.000000e+02
0.000000e+00
1.250000e+01
2.500000e+01
3.750000e+01
5.000000e+01
6.250000e+01
7.500000e+01
8.750000e+01
1.000000e+02
1.125000e+02
1.250000e+02
1.375000e+02
1.500000e+02
1.625000e+02
1.750000e+02
1.875000e+02
2.000000e+02
0.000000e+00
1.250000e+01
2.500000e+01
3.750000e+01
5.000000e+01
6.250000e+01
7.500000e+01
8.750000e+01
1.000000e+02
1.125000e+02
1.250000e+02
1.375000e+02
1.500000e+02
1.625000e+02
1.750000e+02
1.875000e+02
2.000000e+02
0.000000e+00
1.250000e+01
2.500000e+01
3.750000e+01
5.000000e+01
6.250000e+01
7.500000e+01
8.750000e+01
1.000000e+02
1.125000e+02
1.250000e+02
1.375000e+02
1.500000e+02
1.625000e+02
1.750000e+02
1.875000e+02
2.000000e+02
0.000000e+00
1.250000e+01
2.500000e+01
3.750000e+01
5.000000e+01
6.250000e+01
7.500000e+01
8.750000e+01
1.000000e+02
1.125000e+02
1.250000e+02
1.375000e+02
1.500000e+02
1.625000e+02
1.750000e+02
1.875000e+02
2.000000e+02
0.000000e+00
1.250000e+01
2.500000e+01
3.750000e+01
5.000000e+01
6.250000e+01
7.500000e+01
8.750000e+01
1.000000e+02
1.125000e+02
1.250000e+02
1.375000e+02
1.500000e+02
1.625000e+02
1.750000e+02
1.875000e+02
2.000000e+02
0.000000e+00
1.250000e+01
2.500000e+01
3.750000e+01
5.000000e+01
6.250000e+01
7.500000e+01
8.750000e+01
1.000000e+02
1.125000e+02
1.250000e+02
1.375000e+02
1.500000e+02
1.625000e+02
1.750000e+02
1.875000e+02
2.000000e+02
0.000000e+00
1.250000e+01
2.500000e+01
3.750000e+01
5.000000e+01
6.250000e+01
7.500000e+01
8.750000e+01
1.000000e+02
1.125000e+02
1.250000e+02
1.375000e+02
1.500000e+02
1.625000e+02
1.750000e+02
1.875000e+02
2.000000e+02
0.000000e+00
1.250000e+01
2.500000e+01
3.750000e+01
5.000000e+01
6.250000e+01
7.500000e+01
8.750000e+01
1.000000e+02
1.125000e+02
1.250000e+02
1.375000e+02
1.500000e+02
1.625000e+02
1.750000e+02
1.875000e+02
2.000000e+02
0.000000e+00
0.000000e+00
0.000000e+00
0.000000e+00
0.000000e+00
0.000000e+00
0.000000e+00
0.000000e+00
0.000000e+00
0.000000e+00
0.000000e+00
0.000000e+00
0.000000e+00
0.000000e+00
0.000000e+00
0.000000e+00
0.000000e+00
1.250000e+01
1.250000e+01
1.250000e+01
1.250000e+01
1.250000e+01
1.250000e+01
1.250000e+01
1.250000e+01
1.250000e+01
1.250000e+01
1.250000e+01
1.250000e+01
1.250000e+01
1.250000e+01
1.250000e+01
1.250000e+01
1.250000e+01
2.500000e+01
2.500000e+01
2.500000e+01
2.500000e+01
2.500000e+01
2.500000e+01
2.500000e+01
2.500000e+01
2.500000e+01
2.500000e+01
2.500000e+01
2.500000e+01
2.500000e+01
2.500000e+01
2.500000e+01
2.500000e+01
2.500000e+01
3.750000e+01
3.750000e+01
3.750000e+01
3.750000e+01
3.750000e+01
3.750000e+01
3.750000e+01
3.750000e+01
3.750000e+01
3.750000e+01
3.750000e+01
3.750000e+01
3.750000e+01
3.750000e+01
3.750000e+01
3.750000e+01
3.750000e+01
5.000000e+01
5.000000e+01
5.000000e+01
5.000000e+01
5.000000e+01
5.000000e+01
5.000000e+01
5.000000e+01
5.000000e+01
5.000000e+01
5.000000e+01
5.000000e+01
5.000000e+01
5.000000e+01
5.000000e+01
5.000000e+01
5.000000e+01
6.250000e+01
6.250000e+01
6.250000e+01
6.250000e+01
6.250000e+01
6.250000e+01
6.250000e+01
6.250000e+01
6.250000e+01
6.250000e+01
6.250000e+01
6.250000e+01
6.250000e+01
6.250000e+01
6.250000e+01
6.250000e+01
6.250000e+01
7.500000e+01
7.500000e+01
7.500000e+01
7.500000e+01
7.500000e+01
7.500000e+01
7.500000e+01
7.500000e+01
7.500000e+01
7.500000e+01
7.500000e+01
7.500000e+01
7.500000e+01
7.500000e+01
7.500000e+01
7.500000e+01
7.500000e+01
8.750000e+01
8.750000e+01
8.750000e+01
8.750000e+01
8.750000e+01
8.750000e+01
8.750000e+01
8.750000e+01
8.750000e+01
8.750000e+01
8.750000e+01
8.750000e+01
8.750000e+01
8.750000e+01
8.750000e+01
8.750000e+01
8.750000e+01
1.000000e+02
1.000000e+02
1.000000e+02
1.000000e+02
1.000000e+02
1.000000e+02
1.000000e+02
1.000000e+02
1.000000e+02
1.000000e+02
1.000000e+02
1.000000e+02
1.000000e+02
1.000000e+02
1.000000e+02
1.000000e+02
1.000000e+02
0.000000e+00
-8.223434e-01
-1.477756e+00
-2.105983e+00
-2.750408e+00
-3.383085e+00
-4.003765e+00
-4.617923e+00
-5.222728e+00
-5.814674e+00
-6.392176e+00
-6.953814e+00
-7.500984e+00
-8.042036e+00
-8.588582e+00
-9.165313e+00
-9.562228e+00
0.000000e+00
-4.476171e-01
-9.234061e-01
-1.389704e+00
-1.871735e+00
-2.346426e+00
-2.811330e+00
-3.270525e+00
-3.721945e+00
-4.162071e+00
-4.587471e+00
-4.992388e+00
-5.367223e+00
-5.690410e+00
-5.909441e+00
-5.958605e+00
-6.092597e+00
0.000000e+00
-2.416902e-01
-5.083430e-01
-8.104086e-01
-1.130233e+00
-1.448453e+00
-1.762175e+00
-2.071221e+00
-2.372448e+00
-2.661205e+00
-2.930666e+00
-3.169938e+00
-3.362016e+00
-3.480153e+00
-3.496780e+00
-3.468322e+00
-3.607000e+00
0.000000e+00
-1.011019e-01
-2.199388e-01
-3.642798e-01
-5.223762e-01
-6.823896e-01
-8.411221e-01
-9.960599e-01
-1.143703e+00
-1.278951e+00
-1.394148e+00
-1.478786e+00
-1.520347e+00
-1.509873e+00
-1.467012e+00
-1.472917e+00
-1.584536e+00
0.000000e+00
-5.705579e-04
-1.205597e-03
-1.792869e-03
-2.128530e-03
-1.835486e-03
-1.718885e-04
4.204673e-03
1.349621e-02
3.103112e-02
6.137069e-02
1.096207e-01
1.783455e-01
2.588757e-01
3.184436e-01
3.133323e-01
2.326695e-01
0.000000e+00
1.000413e-01
2.177034e-01
3.609001e-01
5.182959e-01
6.787848e-01
8.402433e-01
1.002036e+00
1.164011e+00
1.326433e+00
1.489126e+00
1.650247e+00
1.803531e+00
1.933165e+00
2.013589e+00
2.024987e+00
1.981695e+00
0.000000e+00
2.411057e-01
5.069198e-01
8.079247e-01
1.126971e+00
1.445327e+00
1.760188e+00
2.071380e+00
2.376554e+00
2.672949e+00
2.956121e+00
3.217556e+00
3.444279e+00
3.619902e+00
3.728502e+00
3.765103e+00
3.755111e+00
0.000000e+00
4.477426e-01
9.231803e-01
1.388728e+00
1.870295e+00
2.345255e+00
2.810211e+00
3.267378e+00
3.712715e+00
4.140121e+00
4.540707e+00
4.898781e+00
5.194268e+00
5.410714e+00
5.542725e+00
5.599578e+00
5.610163e+00
0.000000e+00
8.229310e-01
1.478576e+00
2.106920e+00
2.752257e+00
3.386977e+00
4.009426e+00
4.622466e+00
5.219795e+00
5.791778e+00
6.323370e+00
6.788244e+00
7.153680e+00
7.395639e+00
7.514132e+00
7.542925e+00
7.542018e+00
0.000000e+00
-5.058217e-01
-1.044297e+00
-1.757956e+00
-2.633192e+00
-3.666139e+00
-4.860053e+00
-6.215207e+00
-7.728573e+00
-9.396507e+00
-1.121465e+01
-1.317841e+01
-1.528605e+01
-1.754532e+01
-2.001218e+01
-2.288618e+01
-2.711696e+01
0.000000e+00
-3.204736e-01
-8.848592e-01
-1.592023e+00
-2.466200e+00
-3.502188e+00
-4.698585e+00
-6.056108e+00
-7.573015e+00
-9.245587e+00
-1.106956e+01
-1.304081e+01
-1.515838e+01
-1.743465e+01
-1.991842e+01
-2.278761e+01
-2.632338e+01
0.000000e+00
-2.626363e-01
-7.796772e-01
-1.479768e+00
-2.350063e+00
-3.386153e+00
-4.584516e+00
-5.945193e+00
-7.466786e+00
-9.146198e+00
-1.097989e+01
-1.296483e+01
-1.510268e+01
-1.740725e+01
-1.990586e+01
-2.261208e+01
-2.518202e+01
0.000000e+00
-2.587157e-01
-7.392757e-01
-1.420313e+00
-2.284373e+00
-3.318510e+00
-4.518531e+00
-5.883303e+00
-7.411323e+00
-9.100194e+00
-1.094686e+01
-1.294821e+01
-1.510345e+01
-1.741313e+01
-1.985395e+01
-2.230525e+01
-2.448134e+01
0.000000e+00
-2.634651e-01
-7.316179e-01
-1.404314e+00
-2.264332e+00
-3.298274e+00
-4.500514e+00
-5.869655e+00
-7.404218e+00
-9.102195e+00
-1.096025e+01
-1.297273e+01
-1.513016e+01
-1.741061e+01
-1.975084e+01
-2.201923e+01
-2.401178e+01
0.000000e+00
-2.586872e-01
-7.395935e-01
-1.421293e+00
-2.286688e+00
-3.323622e+00
-4.528594e+00
-5.900959e+00
-7.439745e+00
-9.143081e+00
-1.100695e+01
-1.302168e+01
-1.516683e+01
-1.740149e+01
-1.965106e+01
-2.180538e+01
-2.372630e+01
0.000000e+00
-2.624726e-01
-7.800678e-01
-1.481251e+00
-2.353817e+00
-3.394533e+00
-4.600970e+00
-5.974089e+00
-7.513564e+00
-9.217347e+00
-1.108046e+01
-1.308942e+01
-1.521496e+01
-1.740575e+01
-1.958773e+01
-2.167685e+01
-2.359541e+01
0.000000e+00
-3.202762e-01
-8.851600e-01
-1.593567e+00
-2.470491e+00
-3.511859e+00
-4.717321e+00
-6.088691e+00
-7.625574e+00
-9.325330e+00
-1.118157e+01
-1.317791e+01
-1.528058e+01
-1.743500e+01
-1.957096e+01
-2.162230e+01
-2.356485e+01
0.000000e+00
-5.057183e-01
-1.044548e+00
-1.759522e+00
-2.637829e+00
-3.676422e+00
-4.879237e+00
-6.247500e+00
-7.779365e+00
-9.471369e+00
-1.131496e+01
-1.329086e+01
-1.536427e+01
-1.748319e+01
-1.958417e+01
-2.161211e+01
-2.356567e+01


0.000000e+00
1.442145e-05
2.938308e-05
4.431292e-05
6.021796e-05
7.616428e-05
9.125201e-05
1.051281e-04
1.176994e-04
1.290975e-04
1.394441e-04
1.484683e-04
1.556107e-04
1.606746e-04
1.641452e-04
1.675940e-04
1.717198e-04
0.000000e+00
1.040843e-05
2.329515e-05
3.465792e-05
4.666792e-05
5.882779e-05
7.017767e-05
8.039002e-05
8.945511e-05
9.749052e-05
1.045624e-04
1.103764e-04
1.143071e-04
1.159812e-04
1.166223e-04
1.193172e-04
1.238115e-04
0.000000e+00
7.895251e-06
1.638680e-05
2.404951e-05
3.214040e-05
4.014559e-05
4.752378e-05
5.407377e-05
5.976013e-05
6.457139e-05
6.846662e-05
7.127308e-05
7.274482e-05
7.303652e-05
7.338597e-05
7.581418e-05
8.003464e-05
0.000000e+00
3.946117e-06
7.562343e-06
1.162096e-05
1.569066e-05
1.954740e-05
2.307966e-05
2.619497e-05
2.878603e-05
3.075452e-05
3.203656e-05
3.264152e-05
3.275078e-05
3.284746e-05
3.355121e-05
3.552548e-05
3.871033e-05
0.000000e+00
-5.671649e-10
-1.536782e-08
-4.927010e-08
-1.053381e-07
-1.908516e-07
-3.226950e-07
-5.319792e-07
-8.655119e-07
-1.380328e-06
-2.109155e-06
-2.979626e-06
-3.735796e-06
-3.961821e-06
-3.466285e-06
-2.356241e-06
-5.521518e-07
0.000000e+00
-3.951326e-06
-7.577537e-06
-1.166764e-05
-1.581254e-05
-1.980767e-05
-2.354715e-05
-2.694739e-05
-2.995308e-05
-3.257238e-05
-3.484399e-05
-3.677211e-05
-3.824607e-05
-3.909501e-05
-3.939736e-05
-3.928718e-05
-3.860792e-05
0.000000e+00
-7.900776e-06
-1.637136e-05
-2.399866e-05
-3.209970e-05
-4.020670e-05
-4.773105e-05
-5.437496e-05
-6.006056e-05
-6.481228e-05
-6.868437e-05
-7.170384e-05
-7.390817e-05
-7.537135e-05
-7.624665e-05
-7.663994e-05
-7.655844e-05
0.000000e+00
-1.040878e-05
-2.325520e-05
-3.453743e-05
-4.650417e-05
-5.873772e-05
-7.021613e-05
-8.045925e-05
-8.934730e-05
-9.691809e-05
-1.031682e-04
-1.079851e-04
-1.113488e-04
-1.134560e-04
-1.146271e-04
-1.151465e-04
-1.152516e-04
0.000000e+00
-1.442308e-05
-2.933536e-05
-4.417315e-05
-6.000736e-05
-7.597355e-05
-9.112266e-05
-1.049732e-04
-1.173279e-04
-1.282000e-04
-1.375072e-04
-1.448984e-04
-1.500485e-04
-1.530159e-04
-1.543140e-04
-1.546480e-04
-1.546690e-04
0.000000e+00
1.271171e-05
2.275438e-05
3.527076e-05
5.195020e-05
7.223482e-05
9.597781e-05
1.232029e-04
1.537767e-04
1.875114e-04
2.241379e-04
2.632406e-04
3.044918e-04
3.483051e-04
3.973078e-04
4.526378e-04
5.090506e-04
0.000000e+00
6.456119e-06
1.637973e-05
2.851416e-05
4.481473e-05
6.526370e-05
8.954363e-05
1.174164e-04
1.486280e-04
1.829338e-04
2.201645e-04
2.601037e-04
3.024360e-04
3.470223e-04
3.944224e-04
4.470589e-04
5.018659e-04
0.000000e+00
2.638682e-06
1.128401e-05
2.348101e-05
3.961579e-05
6.022809e-05
8.495129e-05
1.133494e-04
1.450726e-04
1.798588e-04
2.175863e-04
2.581644e-04
3.013013e-04
3.461544e-04
3.912841e-04
4.403118e-04
4.923708e-04
0.000000e+00
1.429716e-06
9.020840e-06
2.108978e-05
3.734523e-05
5.807657e-05
8.297568e-05
1.115997e-04
1.435777e-04
1.786330e-04
2.166104e-04
2.574210e-04
3.007639e-04
3.453505e-04
3.890001e-04
4.345925e-04
4.826740e-04
0.000000e+00
1.226744e-06
8.418628e-06
2.031218e-05
3.667328e-05
5.746292e-05
8.242393e-05
1.111443e-04
1.432469e-04
1.784373e-04
2.165268e-04
2.573880e-04
3.006301e-04
3.448625e-04
3.878411e-04
4.310258e-04
4.749517e-04
0.000000e+00
1.448379e-06
9.052574e-06
2.111335e-05
3.734495e-05
5.807492e-05
8.302593e-05
1.117490e-04
1.438593e-04
1.790852e-04
2.172519e-04
2.581503e-04
3.011955e-04
3.449140e-04
3.875658e-04
4.293702e-04
4.703600e-04
0.000000e+00
2.661748e-06
1.132198e-05
2.350862e-05
3.961921e-05
6.024322e-05
8.504994e-05
1.135986e-04
1.455481e-04
1.806774e-04
2.188290e-04
2.596617e-04
3.023402e-04
3.454247e-04
3.875733e-04
4.286078e-04
4.684222e-04
0.000000e+00
6.474662e-06
1.640120e-05
2.852711e-05
4.483575e-05
6.533646e-05
8.970837e-05
1.177046e-04
1.491108e-04
1.837561e-04
2.214582e-04
2.617606e-04
3.037284e-04
3.460625e-04
3.876892e-04
4.282909e-04
4.679535e-04
0.000000e+00
1.272364e-05
2.275012e-05
3.525769e-05
5.198719e-05
7.237425e-05
9.620570e-05
1.234822e-04
1.541243e-04
1.880077e-04
2.248786e-04
2.642250e-04
3.052133e-04
3.467451e-04
3.878868e-04
4.282359e-04
4.679256e-04


2.148580e+00
2.043994e+00
2.154293e+00
2.387311e+00
2.554914e+00
2.766806e+00
3.046291e+00
3.366617e+00
3.729430e+00
4.132511e+00
4.540138e+00
4.892039e+00
5.072342e+00
4.837627e+00
4.209954e+00
3.716258e+00
2.990297e+00
2.892896e+00
2.959953e+00
3.114433e+00
3.218853e+00
3.363279e+00
3.567659e+00
3.808736e+00
4.087541e+00
4.400658e+00
4.719133e+00
4.993167e+00
5.109017e+00
4.818882e+00
4.171506e+00
3.674526e+00
4.290098e+00
4.230154e+00
4.242111e+00
4.277327e+00
4.280064e+00
4.325322e+00
4.415249e+00
4.528672e+00
4.662748e+00
4.815635e+00
4.977498e+00
5.123914e+00
5.163481e+00
4.888600e+00
4.342137e+00
3.948519e+00
5.139162e+00
5.110435e+00
5.083979e+00
5.030043e+00
4.975395e+00
4.960968e+00
4.977560e+00
5.002491e+00
5.028060e+00
5.058056e+00
5.104016e+00
5.166571e+00
5.186682e+00
5.028467e+00
4.716884e+00
4.500027e+00
5.144840e+00
5.114542e+00
5.085628e+00
5.030465e+00
4.975712e+00
4.958512e+00
4.966826e+00
4.979755e+00
4.994296e+00
5.017952e+00
5.063520e+00
5.135263e+00
5.195689e+00
5.169337e+00
5.065523e+00
4.994006e+00
4.299522e+00
4.235949e+00
4.242808e+00
4.276271e+00
4.279982e+00
4.320500e+00
4.394543e+00
4.486169e+00
4.603691e+00
4.751594e+00
4.917628e+00
5.082319e+00
5.216197e+00
5.285561e+00
5.301684e+00
5.306142e+00
2.994132e+00
2.893138e+00
2.955977e+00
3.110774e+00
3.219043e+00
3.363292e+00
3.560125e+00
3.794089e+00
4.078211e+00
4.410307e+00
4.746817e+00
5.034889e+00
5.243604e+00
5.369577e+00
5.436562e+00
5.467735e+00
2.147820e+00
2.040509e+00
2.148304e+00
2.383429e+00
2.557100e+00
2.774078e+00
3.057266e+00
3.388603e+00
3.780023e+00
4.225079e+00
4.663593e+00
5.023131e+00
5.270455e+00
5.417641e+00
5.497381e+00
5.535282e+00


-4.204314e-01
-1.287388e-01
-5.105274e-02
-1.124392e-01
-7.679747e-02
-3.653933e-02
-1.455446e-02
1.625063e-02
5.981400e-02
1.124701e-01
1.778085e-01
2.568382e-01
3.549506e-01
4.938254e-01
6.497689e-01
-3.003636e-01
5.519742e-01
4.518815e-01
4.235086e-01
3.741181e-01
3.816812e-01
3.954486e-01
4.021614e-01
4.162614e-01
4.434290e-01
4.876004e-01
5.567428e-01
6.564072e-01
7.850370e-01
9.036593e-01
7.958781e-01
-9.549089e-01
8.464433e-01
7.518614e-01
6.696377e-01
6.251387e-01
6.151075e-01
6.113931e-01
6.087898e-01
6.122385e-01
6.253190e-01
6.511417e-01
6.901363e-01
7.314094e-01
7.414044e-01
6.563833e-01
3.960178e-01
-7.142886e-02
9.226040e-01
8.350033e-01
7.517699e-01
7.050726e-01
6.874158e-01
6.790888e-01
6.728045e-01
6.673580e-01
6.615622e-01
6.526412e-01
6.338798e-01
5.907596e-01
5.056122e-01
3.988818e-01
3.650970e-01
3.881649e-01
9.230082e-01
8.354417e-01
7.521194e-01
7.046596e-01
6.850186e-01
6.729328e-01
6.598566e-01
6.424596e-01
6.169559e-01
5.789766e-01
5.248812e-01
4.555810e-01
3.920429e-01
3.963548e-01
5.190110e-01
7.079413e-01
8.475696e-01
7.533099e-01
6.711549e-01
6.249929e-01
6.105174e-01
5.991349e-01
5.833924e-01
5.634653e-01
5.366590e-01
5.016928e-01
4.635201e-01
4.373970e-01
4.560918e-01
5.560650e-01
7.261256e-01
9.022406e-01
5.528092e-01
4.536532e-01
4.258990e-01
3.750146e-01
3.785188e-01
3.878479e-01
3.895309e-01
3.944227e-01
4.035697e-01
4.193851e-01
4.533726e-01
5.173853e-01
6.189282e-01
7.556282e-01
8.942572e-01
9.825915e-01
-4.216709e-01
-1.284520e-01
-4.986730e-02
-1.134890e-01
-8.169425e-02
-4.097800e-02
-1.086129e-02
3.655207e-02
1.089550e-01
2.158700e-01
3.753992e-01
5.785055e-01
7.760656e-01
9.160590e-01
9.834624e-01
9.996698e-01
1 2 19 18
2 3 20 19
3 4 21 20
4 5 22 21
5 6 23 22
6 7 24 23
7 8 25 24
8 9 26 25
9 10 27 26
10 11 28 27
11 12 29 28
12 13 30 29
13 14 31 30
14 15 32 31
15 16 33 32
16 17 34 33
18 19 36 35
19 20 37 36
20 21 38 37
21 22 39 38
22 23 40 39
23 24 41 40
24 25 42 41
25 26 43 42
26 27 44 43
27 28 45 44
28 29 46 45
29 30 47 46
30 31 48 47
31 32 49 48
32 33 50 49
33 34 51 50
35 36 53 52
36 37 54 53
37 38 55 54
38 39 56 55
39 40 57 56
40 41 58 57
41 42 59 58
42 43 60 59
43 44 61 60
44 45 62 61
45 46 63 62
46 47 64 63
47 48 65 64
48 49 66 65
49 50 67 66
50 51 68 67
52 53 70 69
53 54 71 70
54 55 72 71
55 56 73 72
56 57 74 73
57 58 75 74
58 59 76 75
59 60 77 76
60 61 78 77
61 62 79 78
62 63 80 79
63 64 81 80
64 65 82 81
65 66 83 82
66 67 84 83
67 68 85 84
69 70 87 86
70 71 88 87
71 72 89 88
72 73 90 89
73 74 91 90
74 75 92 91
75 76 93 92
76 77 94 93
77 78 95 94
78 79 96 95
79 80 97 96
80 81 98 97
81 82 99 98
82 83 100 99
83 84 101 100
84 85 102 101
86 87 104 103
87 88 105 104
88 89 106 105
89 90 107 106
90 91 108 107
91 92 109 108
92 93 110 109
93 94 111 110
94 95 112 111
95 96 113 112
96 97 114 113
97 98 115 114
98 99 116 115
99 100 117 116
100 101 118 117
101 102 119 118
103 104 121 120
104 105 122 121
105 106 123 122
106 107 124 123
107 108 125 124
108 109 126 125
109 110 127 126
110 111 128 127
111 112 129 128
112 113 130 129
113 114 131 130
114 115 132 131
115 116 133 132
116 117 134 133
117 118 135 134
118 119 136 135
120 121 138 137
121 122 139 138
122 123 140 139
123 124 141 140
124 125 142 141
125 126 143 142
126 127 144 143
127 128 145 144
128 129 146 145
129 130 147 146
130 131 148 147
131 132 149 148
132 133 150 149
133 134 151 150
134 135 152 151
135 136 153 152
