TITLE = "Solution"
VARIABLES = x, y, u, v, psiu, psiv, t, stress
ZONE T="structure" N=153 E=128 F=FEBLOCK ET=QUADRILATERAL VARLOCATION=([7,8]=cellcentered)
0.000000e+00
1.250000e+01
2.500000e+01
3.750000e+01
5.000000e+01
6.250000e+01
7.500000e+01
8.750000e+01
1.000000e+02
1.125000e+02
1.250000e+02
1.375000e+02
1.500000e+02
1.625000e+02
1.750000e+02
1.875000e+02
2.000000e+02
0.000000e+00
1.250000e+01
2.500000e+01
3.750000e+01
5.000000e+01
6.250000e+01
7.500000e+01
8.750000e+01
1.000000e+02
1.125000e+02
1.250000e+02
1.375000e+02
1.500000e+02
1.625000e+02
1.750000e+02
1.875000e+02
2.000000e+02
0.000000e+00
1.250000e+01
2.500000e+01
3.750000e+01
5.000000e+01
6.250000e+01
7.500000e+01
8.750000e+01
1.000000e+02
1.125000e+02
1.250000e+02
1.375000e+02
1.500000e+02
1.625000e+02
1.750000e+02
1.875000e+02
2.000000e+02
0.000000e+00
1.250000e+01
2.500000e+01
3.750000e+01
5.000000e+01
6.250000e+01
7.500000e+01
8.750000e+01
1.000000e+02
1.125000e+02
1.250000e+02
1.375000e+02
1.500000e+02
1.625000e+02
1.750000e+02
1.875000e+02
2.000000e+02
0.000000e+00
1.250000e+01
2.500000e+01
3.750000e+01
5.000000e+01
6.250000e+01
7.500000e+01
8.750000e+01
1.000000e+02
1.125000e+02
1.250000e+02
1.375000e+02
1.500000e+02
1.625000e+02
1.750000e+02
1.875000e+02
2.000000e+02
0.000000e+00
1.250000e+01
2.500000e+01
3.750000e+01
5.000000e+01
6.250000e+01
7.500000e+01
8.750000e+01
1.000000e+02
1.125000e+02
1.250000e+02
1.375000e+02
1.500000e+02
1.625000e+02
1.750000e+02
1.875000e+02
2.000000e+02
0.000000e+00
1.250000e+01
2.500000e+01
3.750000e+01
5.000000e+01
6.250000e+01
7.500000e+01
8.750000e+01
1.000000e+02
1.125000e+02
1.250000e+02
1.375000e+02
1.500000e+02
1.625000e+02
1.750000e+02
1.875000e+02
2.000000e+02
0.000000e+00
1.250000e+01
2.500000e+01
3.750000e+01
5.000000e+01
6.250000e+01
7.500000e+01
8.750000e+01
1.000000e+02
1.125000e+02
1.250000e+02
1.375000e+02
1.500000e+02
1.625000e+02
1.750000e+02
1.875000e+02
2.000000e+02
0.000000e+00
1.250000e+01
2.500000e+01
3.750000e+01
5.000000e+01
6.250000e+01
7.500000e+01
8.750000e+01
1.000000e+02
1.125000e+02
1.250000e+02
1.375000e+02
1.500000e+02
1.625000e+02
1.750000e+02
1.875000e+02
2.000000e+02
0.000000e+00
0.000000e+00
0.000000e+00
0.000000e+00
0.000000e+00
0.000000e+00
0.000000e+00
0.000000e+00
0.000000e+00
0.000000e+00
0.000000e+00
0.000000e+00
0.000000e+00
0.000000e+00
0.000000e+00
0.000000e+00
0.000000e+00
1.250000e+01
1.250000e+01
1.250000e+01
1.250000e+01
1.250000e+01
1.250000e+01
1.250000e+01
1.250000e+01
1.250000e+01
1.250000e+01
1.250000e+01
1.250000e+01
1.250000e+01
1.250000e+01
1.250000e+01
1.250000e+01
1.250000e+01
2.500000e+01
2.500000e+01
2.500000e+01
2.500000e+01
2.500000e+01
2.500000e+01
2.500000e+01
2.500000e+01
2.500000e+01
2.500000e+01
2.500000e+01
2.500000e+01
2.500000e+01
2.500000e+01
2.500000e+01
2.500000e+01
2.500000e+01
3.750000e+01
3.750000e+01
3.750000e+01
3.750000e+01
3.750000e+01
3.750000e+01
3.750000e+01
3.750000e+01
3.750000e+01
3.750000e+01
3.750000e+01
3.750000e+01
3.750000e+01
3.750000e+01
3.750000e+01
3.750000e+01
3.750000e+01
5.000000e+01
5.000000e+01
5.000000e+01
5.000000e+01
5.000000e+01
5.000000e+01
5.000000e+01
5.000000e+01
5.000000e+01
5.000000e+01
5.000000e+01
5.000000e+01
5.000000e+01
5.000000e+01
5.000000e+01
5.000000e+01
5.000000e+01
6.250000e+01
6.250000e+01
6.250000e+01
6.250000e+01
6.250000e+01
6.250000e+01
6.250000e+01
6.250000e+01
6.250000e+01
6.250000e+01
6.250000e+01
6.250000e+01
6.250000e+01
6.250000e+01
6.250000e+01
6.250000e+01
6.250000e+01
7.500000e+01
7.500000e+01
7.500000e+01
7.500000e+01
7.500000e+01
7.500000e+01
7.500000e+01
7.500000e+01
7.500000e+01
7.500000e+01
7.500000e+01
7.500000e+01
7.500000e+01
7.500000e+01
7.500000e+01
7.500000e+01
7.500000e+01
8.750000e+01
8.750000e+01
8.750000e+01
8.750000e+01
8.750000e+01
8.750000e+01
8.750000e+01
8.750000e+01
8.750000e+01
8.750000e+01
8.750000e+01
8.750000e+01
8.750000e+01
8.750000e+01
8.750000e+01
8.750000e+01
8.750000e+01
1.000000e+02
1.000000e+02
1.000000e+02
1.000000e+02
1.000000e+02
1.000000e+02
1.000000e+02
1.000000e+02
1.000000e+02
1.000000e+02
1.000000e+02
1.000000e+02
1.000000e+02
1.000000e+02
1.000000e+02
1.000000e+02
1.000000e+02
0.000000e+00
-9.946789e-01
-1.679414e+00
-2.431086e+00
-3.116012e+00
-3.751872e+00
-4.457198e+00
-5.087802e+00
-5.763035e+00
-6.405488e+00
-7.056154e+00
-7.723173e+00
-8.376643e+00
-9.147376e+00
-1.007743e+01
-1.083355e+01
-1.128370e+01
0.000000e+00
-4.454122e-01
-9.070593e-01
-1.418998e+00
-1.930431e+00
-2.411340e+00
-2.925128e+00
-3.423246e+00
-3.919491e+00
-4.421503e+00
-4.914556e+00
-5.416973e+00
-5.901947e+00
-6.421981e+00
-6.897469e+00
-7.023529e+00
-7.202392e+00
0.000000e+00
-1.462322e-01
-3.493884e-01
-6.398557e-01
-9.778901e-01
-1.303144e+00
-1.656576e+00
-2.013040e+00
-2.357161e+00
-2.718607e+00
-3.057793e+00
-3.391775e+00
-3.687384e+00
-3.927253e+00
-4.036194e+00
-4.034094e+00
-4.182580e+00
0.000000e+00
-7.894607e-02
-1.622274e-01
-3.095932e-01
-4.546844e-01
-6.284785e-01
-8.132801e-01
-9.792970e-01
-1.166303e+00
-1.328442e+00
-1.489392e+00
-1.628388e+00
-1.721622e+00
-1.729700e+00
-1.656233e+00
-1.635556e+00
-1.752766e+00
0.000000e+00
-3.276679e-03
-7.143704e-03
-1.115288e-02
-1.546304e-02
-1.873143e-02
-1.942631e-02
-1.649158e-02
-7.564302e-03
9.298477e-03
3.373973e-02
7.843339e-02
1.607469e-01
2.756284e-01
3.953231e-01
4.359874e-01
3.377999e-01
0.000000e+00
7.322828e-02
1.506821e-01
2.907401e-01
4.291448e-01
5.963275e-01
7.748836e-01
9.449064e-01
1.150647e+00
1.345879e+00
1.562754e+00
1.783176e+00
2.009443e+00
2.216325e+00
2.352053e+00
2.385015e+00
2.319431e+00
0.000000e+00
1.439264e-01
3.442219e-01
6.309754e-01
9.659655e-01
1.291163e+00
1.643285e+00
1.999497e+00
2.360899e+00
2.765531e+00
3.144332e+00
3.511390e+00
3.844565e+00
4.119690e+00
4.296084e+00
4.350761e+00
4.328167e+00
0.000000e+00
4.460669e-01
9.078499e-01
1.419560e+00
1.930196e+00
2.409722e+00
2.920513e+00
3.415576e+00
3.903725e+00
4.396817e+00
4.875151e+00
5.350404e+00
5.779148e+00
6.126560e+00
6.343399e+00
6.439078e+00
6.456744e+00
0.000000e+00
9.968029e-01
1.684462e+00
2.439864e+00
3.126757e+00
3.763786e+00
4.468542e+00
5.097046e+00
5.746628e+00
6.331418e+00
6.905190e+00
7.506072e+00
8.037057e+00
8.448518e+00
8.649908e+00
8.702764e+00
8.703309e+00
0.000000e+00
-6.183508e-01
-1.361353e+00
-2.362160e+00
-3.536051e+00
-4.879725e+00
-6.410532e+00
-8.096595e+00
-9.956812e+00
-1.198006e+01
-1.416491e+01
-1.651527e+01
-1.902896e+01
-2.176012e+01
-2.472409e+01
-2.808374e+01
-3.309950e+01
0.000000e+00
-4.152725e-01
-1.192878e+00
-2.176152e+00
-3.366832e+00
-4.705363e+00
-6.233245e+00
-7.927695e+00
-9.780774e+00
-1.181231e+01
-1.399270e+01
-1.634766e+01
-1.885589e+01
-2.156753e+01
-2.458406e+01
-2.799991e+01
-3.205012e+01
0.000000e+00
-3.895991e-01
-1.091202e+00
-2.072744e+00
-3.247455e+00
-4.579710e+00
-6.113121e+00
-7.798173e+00
-9.661640e+00
-1.169062e+01
-1.388208e+01
-1.624835e+01
-1.876690e+01
-2.150531e+01
-2.457418e+01
-2.784788e+01
-3.088033e+01
0.000000e+00
-4.485450e-01
-1.087531e+00
-2.046639e+00
-3.184652e+00
-4.510532e+00
-6.050749e+00
-7.721969e+00
-9.603832e+00
-1.163238e+01
-1.384505e+01
-1.623130e+01
-1.877544e+01
-2.151553e+01
-2.450473e+01
-2.753808e+01
-3.016335e+01
0.000000e+00
-4.556459e-01
-1.109784e+00
-2.030873e+00
-3.170785e+00
-4.500115e+00
-6.029714e+00
-7.719549e+00
-9.594359e+00
-1.164466e+01
-1.387135e+01
-1.626518e+01
-1.881679e+01
-2.151663e+01
-2.435407e+01
-2.717170e+01
-2.955906e+01
0.000000e+00
-4.472349e-01
-1.087175e+00
-2.048690e+00
-3.191532e+00
-4.527703e+00
-6.077989e+00
-7.758679e+00
-9.656435e+00
-1.171073e+01
-1.394113e+01
-1.631733e+01
-1.884803e+01
-2.150656e+01
-2.421891e+01
-2.685212e+01
-2.912119e+01
0.000000e+00
-3.878523e-01
-1.091119e+00
-2.077397e+00
-3.260958e+00
-4.608675e+00
-6.158799e+00
-7.867910e+00
-9.762062e+00
-1.182650e+01
-1.402769e+01
-1.638445e+01
-1.888752e+01
-2.150653e+01
-2.413632e+01
-2.664500e+01
-2.888790e+01
0.000000e+00
-4.136575e-01
-1.192867e+00
-2.181605e+00
-3.382608e+00
-4.736149e+00
-6.284383e+00
-8.009045e+00
-9.900733e+00
-1.196340e+01
-1.414313e+01
-1.648301e+01
-1.896470e+01
-2.154815e+01
-2.411578e+01
-2.655737e+01
-2.882750e+01
0.000000e+00
-6.173361e-01
-1.361984e+00
-2.368274e+00
-3.552246e+00
-4.910508e+00
-6.462364e+00
-8.177614e+00
-1.007292e+01
-1.211912e+01
-1.429833e+01
-1.663140e+01
-1.908836e+01
-2.163009e+01
-2.414043e+01
-2.654245e+01
-2.882636e+01


0.000000e+00
1.542108e-05
2.510390e-05
3.749535e-05
5.359708e-05
6.721132e-05
8.311060e-05
9.719535e-05
1.117560e-04
1.257574e-04
1.408598e-04
1.551680e-04
1.718433e-04
1.875235e-04
1.973695e-04
2.030460e-04
2.099725e-04
0.000000e+00
1.146497e-05
1.974182e-05
2.839362e-05
4.101099e-05
5.169849e-05
6.182508e-05
7.295777e-05
8.313832e-05
9.454725e-05
1.052295e-04
1.155385e-04
1.265108e-04
1.357693e-04
1.371753e-04
1.409121e-04
1.467407e-04
0.000000e+00
9.537766e-06
1.501844e-05
2.017949e-05
2.885511e-05
3.549923e-05
4.125372e-05
4.861173e-05
5.459502e-05
6.193757e-05
6.838095e-05
7.397566e-05
7.872817e-05
8.084345e-05
8.002606e-05
8.240701e-05
8.664833e-05
0.000000e+00
5.181832e-06
6.844572e-06
9.604065e-06
1.305435e-05
1.354712e-05
1.586571e-05
1.740615e-05
2.089114e-05
2.441142e-05
2.809451e-05
2.907866e-05
2.848104e-05
2.700929e-05
2.680345e-05
2.986679e-05
3.553806e-05
0.000000e+00
-1.730707e-07
-4.307906e-07
-8.473373e-07
-1.704344e-06
-2.844433e-06
-4.923426e-06
-7.124245e-06
-7.686345e-06
-7.711349e-06
-8.705905e-06
-1.191203e-05
-1.466749e-05
-1.602074e-05
-1.569239e-05
-1.351814e-05
-9.530827e-06
0.000000e+00
-5.442710e-06
-7.427518e-06
-1.072088e-05
-1.463248e-05
-1.607319e-05
-2.046831e-05
-2.436271e-05
-3.015816e-05
-3.325034e-05
-3.732477e-05
-4.215573e-05
-4.719835e-05
-4.887904e-05
-4.942630e-05
-4.991906e-05
-4.821347e-05
0.000000e+00
-9.537243e-06
-1.508659e-05
-2.034915e-05
-2.895829e-05
-3.529687e-05
-4.073441e-05
-4.875630e-05
-5.593897e-05
-6.348448e-05
-6.874630e-05
-7.376529e-05
-7.794101e-05
-8.137905e-05
-8.329478e-05
-8.521207e-05
-8.596266e-05
0.000000e+00
-1.139424e-05
-1.965726e-05
-2.829252e-05
-4.078942e-05
-5.163957e-05
-6.158737e-05
-7.279580e-05
-8.318618e-05
-9.455164e-05
-1.052250e-04
-1.134516e-04
-1.182698e-04
-1.232515e-04
-1.268070e-04
-1.280870e-04
-1.281833e-04
0.000000e+00
-1.543050e-05
-2.504665e-05
-3.734475e-05
-5.338564e-05
-6.704022e-05
-8.280343e-05
-9.593125e-05
-1.098728e-04
-1.234397e-04
-1.410998e-04
-1.567849e-04
-1.663903e-04
-1.715620e-04
-1.737792e-04
-1.739866e-04
-1.738016e-04
0.000000e+00
1.260301e-05
2.000448e-05
3.245378e-05
4.878354e-05
6.691477e-05
9.136213e-05
1.202396e-04
1.534478e-04
1.902382e-04
2.303468e-04
2.743600e-04
3.244023e-04
3.784272e-04
4.398681e-04
5.106553e-04
5.839465e-04
0.000000e+00
7.680423e-06
1.611688e-05
2.635081e-05
4.231329e-05
6.096435e-05
8.490724e-05
1.143518e-04
1.472405e-04
1.840765e-04
2.240438e-04
2.681301e-04
3.178087e-04
3.735702e-04
4.346740e-04
5.032771e-04
5.735800e-04
0.000000e+00
4.329055e-06
1.230764e-05
2.172646e-05
3.650731e-05
5.572610e-05
7.951202e-05
1.098389e-04
1.430825e-04
1.795910e-04
2.194270e-04
2.636211e-04
3.140136e-04
3.712285e-04
4.305700e-04
4.957991e-04
5.638747e-04
0.000000e+00
3.203455e-06
1.060698e-05
2.008764e-05
3.452377e-05
5.208218e-05
7.650488e-05
1.088756e-04
1.436007e-04
1.781485e-04
2.173214e-04
2.620455e-04
3.132877e-04
3.698226e-04
4.278470e-04
4.879621e-04
5.497034e-04
0.000000e+00
2.815751e-06
1.027869e-05
2.004690e-05
3.423854e-05
5.078722e-05
7.539786e-05
1.098724e-04
1.448784e-04
1.779585e-04
2.155271e-04
2.620472e-04
3.136000e-04
3.699178e-04
4.266968e-04
4.815732e-04
5.336017e-04
0.000000e+00
3.343685e-06
1.079453e-05
2.045840e-05
3.485549e-05
5.188961e-05
7.722677e-05
1.107638e-04
1.454600e-04
1.777545e-04
2.158943e-04
2.636470e-04
3.159862e-04
3.701744e-04
4.265843e-04
4.792567e-04
5.226319e-04
0.000000e+00
4.479163e-06
1.253299e-05
2.206639e-05
3.677842e-05
5.579385e-05
8.045408e-05
1.117784e-04
1.447618e-04
1.788360e-04
2.182489e-04
2.669129e-04
3.194752e-04
3.721986e-04
4.256443e-04
4.765331e-04
5.192104e-04
0.000000e+00
7.802385e-06
1.635064e-05
2.664722e-05
4.256078e-05
6.135652e-05
8.585065e-05
1.159693e-04
1.481729e-04
1.831771e-04
2.229461e-04
2.706089e-04
3.224925e-04
3.743747e-04
4.257523e-04
4.745251e-04
5.196920e-04
0.000000e+00
1.271474e-05
2.023917e-05
3.273907e-05
4.910991e-05
6.743518e-05
9.237453e-05
1.216491e-04
1.543055e-04
1.894694e-04
2.301299e-04
2.749105e-04
3.246953e-04
3.755772e-04
4.260456e-04
4.740409e-04
5.199613e-04


5.622668e+00
6.104357e+00
6.836186e+00
5.873204e+00
5.467019e+00
6.065359e+00
6.060027e+00
6.193865e+00
5.858760e+00
5.874440e+00
6.263359e+00
7.136592e+00
8.833244e+00
9.812703e+00
9.132868e+00
7.983870e+00
8.054885e+00
8.436255e+00
8.640685e+00
8.338735e+00
8.094185e+00
8.301228e+00
8.478895e+00
8.333803e+00
8.333973e+00
8.251547e+00
8.398129e+00
8.827377e+00
9.493527e+00
9.825155e+00
8.378548e+00
6.459292e+00
9.830427e+00
9.813789e+00
9.987609e+00
9.825517e+00
9.823497e+00
9.922670e+00
9.819260e+00
9.917841e+00
9.833403e+00
9.866527e+00
9.883266e+00
9.862769e+00
9.880949e+00
9.381449e+00
7.979422e+00
6.172857e+00
9.993731e+00
9.993687e+00
9.993661e+00
9.992978e+00
9.992024e+00
9.990230e+00
9.988240e+00
9.988283e+00
9.989501e+00
9.989332e+00
9.984492e+00
9.469070e+00
8.817717e+00
8.359192e+00
7.967352e+00
7.885093e+00
9.993697e+00
9.993605e+00
9.993514e+00
9.992614e+00
9.991038e+00
9.987741e+00
9.921804e+00
9.960130e+00
9.981200e+00
9.902190e+00
9.343861e+00
8.560195e+00
7.673955e+00
7.717437e+00
8.625251e+00
9.138316e+00
9.830393e+00
9.813448e+00
9.986924e+00
9.823625e+00
9.818322e+00
9.664751e+00
9.335865e+00
9.518293e+00
9.379761e+00
8.829889e+00
8.288211e+00
7.861209e+00
8.139801e+00
8.712671e+00
9.425090e+00
9.978122e+00
8.055416e+00
8.436042e+00
8.639006e+00
8.334409e+00
8.013723e+00
7.870982e+00
7.696420e+00
7.687510e+00
7.744516e+00
7.284330e+00
7.451869e+00
8.458780e+00
9.250292e+00
9.816367e+00
9.987205e+00
9.992284e+00
5.624478e+00
6.104383e+00
6.834159e+00
5.865443e+00
5.443338e+00
5.725248e+00
5.583460e+00
6.029273e+00
6.004269e+00
6.391450e+00
7.820544e+00
9.094868e+00
9.964201e+00
9.990014e+00
9.993072e+00
9.994136e+00


-8.145724e-01
-1.728810e-01
-3.949213e-01
-2.558931e-01
-9.956344e-02
-3.016552e-01
-1.261993e-01
-2.088726e-01
-1.611472e-01
-1.603286e-01
-2.121235e-01
-1.510918e-01
-4.638326e-01
-6.817698e-01
3.166777e-01
-8.469352e-01
6.114530e-01
4.792967e-01
2.965585e-01
2.257358e-01
2.890025e-01
1.683153e-01
1.761501e-01
1.719143e-01
1.117716e-01
1.469135e-01
1.300388e-01
2.417287e-01
3.022822e-01
5.110405e-01
6.957470e-01
-9.363844e-01
7.237199e-01
4.713865e-01
5.840227e-02
-1.878111e-02
-3.816962e-02
-1.825147e-01
-8.034570e-02
-1.351488e-01
-7.475934e-02
-1.774291e-02
3.429425e-02
1.871904e-01
2.794019e-01
1.488640e-01
-2.421929e-02
-1.691515e-01
7.288999e-01
5.563610e-01
1.939497e-01
6.408829e-02
-2.344760e-02
-1.020152e-01
-1.722622e-02
-5.982556e-02
1.444153e-02
1.943236e-02
6.000014e-02
1.176580e-01
5.809473e-02
-2.637341e-01
-3.831391e-01
-7.699746e-02
7.318070e-01
5.602734e-01
2.018376e-01
7.204301e-02
-2.024847e-02
-1.083314e-01
-3.753833e-02
-1.005546e-01
-4.970622e-02
-3.912083e-02
2.057429e-02
1.443892e-02
-3.728618e-02
-1.315388e-01
-1.031281e-01
3.116471e-01
7.305094e-01
4.814994e-01
7.637736e-02
-9.332904e-04
-2.700683e-02
-1.593196e-01
-8.032789e-02
-1.930612e-01
-1.813170e-01
-1.058882e-01
-7.899313e-02
-9.850024e-02
-1.078759e-01
4.664522e-02
3.340500e-01
7.251628e-01
6.155294e-01
4.849396e-01
3.040076e-01
2.311599e-01
2.855908e-01
1.624247e-01
1.529690e-01
9.829998e-02
-5.531700e-02
-3.969912e-02
-9.765978e-02
-5.968937e-02
6.002815e-02
3.668263e-01
7.130534e-01
9.479521e-01
-8.197384e-01
-1.788133e-01
-4.024841e-01
-2.588191e-01
-9.998235e-02
-2.966586e-01
-1.209633e-01
-1.540127e-01
-5.642378e-02
-2.247765e-02
-9.295921e-02
9.667906e-02
3.893854e-01
7.722443e-01
9.528541e-01
9.987347e-01
1 2 19 18
2 3 20 19
3 4 21 20
4 5 22 21
5 6 23 22
6 7 24 23
7 8 25 24
8 9 26 25
9 10 27 26
10 11 28 27
11 12 29 28
12 13 30 29
13 14 31 30
14 15 32 31
15 16 33 32
16 17 34 33
18 19 36 35
19 20 37 36
20 21 38 37
21 22 39 38
22 23 40 39
23 24 41 40
24 25 42 41
25 26 43 42
26 27 44 43
27 28 45 44
28 29 46 45
29 30 47 46
30 31 48 47
31 32 49 48
32 33 50 49
33 34 51 50
35 36 53 52
36 37 54 53
37 38 55 54
38 39 56 55
39 40 57 56
40 41 58 57
41 42 59 58
42 43 60 59
43 44 61 60
44 45 62 61
45 46 63 62
46 47 64 63
47 48 65 64
48 49 66 65
49 50 67 66
50 51 68 67
52 53 70 69
53 54 71 70
54 55 72 71
55 56 73 72
56 57 74 73
57 58 75 74
58 59 76 75
59 60 77 76
60 61 78 77
61 62 79 78
62 63 80 79
63 64 81 80
64 65 82 81
65 66 83 82
66 67 84 83
67 68 85 84
69 70 87 86
70 71 88 87
71 72 89 88
72 73 90 89
73 74 91 90
74 75 92 91
75 76 93 92
76 77 94 93
77 78 95 94
78 79 96 95
79 80 97 96
80 81 98 97
81 82 99 98
82 83 100 99
83 84 101 100
84 85 102 101
86 87 104 103
87 88 105 104
88 89 106 105
89 90 107 106
90 91 108 107
91 92 109 108
92 93 110 109
93 94 111 110
94 95 112 111
95 96 113 112
96 97 114 113
97 98 115 114
98 99 116 115
99 100 117 116
100 101 118 117
101 102 119 118
103 104 121 120
104 105 122 121
105 106 123 122
106 107 124 123
107 108 125 124
108 109 126 125
109 110 127 126
110 111 128 127
111 112 129 128
112 113 130 129
113 114 131 130
114 115 132 131
115 116 133 132
116 117 134 133
117 118 135 134
118 119 136 135
120 121 138 137
121 122 139 138
122 123 140 139
123 124 141 140
124 125 142 141
125 126 143 142
126 127 144 143
127 128 145 144
128 129 146 145
129 130 147 146
130 131 148 147
131 132 149 148
132 133 150 149
133 134 151 150
134 135 152 151
135 136 153 152
