TITLE = "Solution"
VARIABLES = x, y, u, v, psiu, psiv, t, stress
ZONE T="structure" N=153 E=128 F=FEBLOCK ET=QUADRILATERAL VARLOCATION=([7,8]=cellcentered)
0.000000e+00
1.250000e+01
2.500000e+01
3.750000e+01
5.000000e+01
6.250000e+01
7.500000e+01
8.750000e+01
1.000000e+02
1.125000e+02
1.250000e+02
1.375000e+02
1.500000e+02
1.625000e+02
1.750000e+02
1.875000e+02
2.000000e+02
0.000000e+00
1.250000e+01
2.500000e+01
3.750000e+01
5.000000e+01
6.250000e+01
7.500000e+01
8.750000e+01
1.000000e+02
1.125000e+02
1.250000e+02
1.375000e+02
1.500000e+02
1.625000e+02
1.750000e+02
1.875000e+02
2.000000e+02
0.000000e+00
1.250000e+01
2.500000e+01
3.750000e+01
5.000000e+01
6.250000e+01
7.500000e+01
8.750000e+01
1.000000e+02
1.125000e+02
1.250000e+02
1.375000e+02
1.500000e+02
1.625000e+02
1.750000e+02
1.875000e+02
2.000000e+02
0.000000e+00
1.250000e+01
2.500000e+01
3.750000e+01
5.000000e+01
6.250000e+01
7.500000e+01
8.750000e+01
1.000000e+02
1.125000e+02
1.250000e+02
1.375000e+02
1.500000e+02
1.625000e+02
1.750000e+02
1.875000e+02
2.000000e+02
0.000000e+00
1.250000e+01
2.500000e+01
3.750000e+01
5.000000e+01
6.250000e+01
7.500000e+01
8.750000e+01
1.000000e+02
1.125000e+02
1.250000e+02
1.375000e+02
1.500000e+02
1.625000e+02
1.750000e+02
1.875000e+02
2.000000e+02
0.000000e+00
1.250000e+01
2.500000e+01
3.750000e+01
5.000000e+01
6.250000e+01
7.500000e+01
8.750000e+01
1.000000e+02
1.125000e+02
1.250000e+02
1.375000e+02
1.500000e+02
1.625000e+02
1.750000e+02
1.875000e+02
2.000000e+02
0.000000e+00
1.250000e+01
2.500000e+01
3.750000e+01
5.000000e+01
6.250000e+01
7.500000e+01
8.750000e+01
1.000000e+02
1.125000e+02
1.250000e+02
1.375000e+02
1.500000e+02
1.625000e+02
1.750000e+02
1.875000e+02
2.000000e+02
0.000000e+00
1.250000e+01
2.500000e+01
3.750000e+01
5.000000e+01
6.250000e+01
7.500000e+01
8.750000e+01
1.000000e+02
1.125000e+02
1.250000e+02
1.375000e+02
1.500000e+02
1.625000e+02
1.750000e+02
1.875000e+02
2.000000e+02
0.000000e+00
1.250000e+01
2.500000e+01
3.750000e+01
5.000000e+01
6.250000e+01
7.500000e+01
8.750000e+01
1.000000e+02
1.125000e+02
1.250000e+02
1.375000e+02
1.500000e+02
1.625000e+02
1.750000e+02
1.875000e+02
2.000000e+02
0.000000e+00
0.000000e+00
0.000000e+00
0.000000e+00
0.000000e+00
0.000000e+00
0.000000e+00
0.000000e+00
0.000000e+00
0.000000e+00
0.000000e+00
0.000000e+00
0.000000e+00
0.000000e+00
0.000000e+00
0.000000e+00
0.000000e+00
1.250000e+01
1.250000e+01
1.250000e+01
1.250000e+01
1.250000e+01
1.250000e+01
1.250000e+01
1.250000e+01
1.250000e+01
1.250000e+01
1.250000e+01
1.250000e+01
1.250000e+01
1.250000e+01
1.250000e+01
1.250000e+01
1.250000e+01
2.500000e+01
2.500000e+01
2.500000e+01
2.500000e+01
2.500000e+01
2.500000e+01
2.500000e+01
2.500000e+01
2.500000e+01
2.500000e+01
2.500000e+01
2.500000e+01
2.500000e+01
2.500000e+01
2.500000e+01
2.500000e+01
2.500000e+01
3.750000e+01
3.750000e+01
3.750000e+01
3.750000e+01
3.750000e+01
3.750000e+01
3.750000e+01
3.750000e+01
3.750000e+01
3.750000e+01
3.750000e+01
3.750000e+01
3.750000e+01
3.750000e+01
3.750000e+01
3.750000e+01
3.750000e+01
5.000000e+01
5.000000e+01
5.000000e+01
5.000000e+01
5.000000e+01
5.000000e+01
5.000000e+01
5.000000e+01
5.000000e+01
5.000000e+01
5.000000e+01
5.000000e+01
5.000000e+01
5.000000e+01
5.000000e+01
5.000000e+01
5.000000e+01
6.250000e+01
6.250000e+01
6.250000e+01
6.250000e+01
6.250000e+01
6.250000e+01
6.250000e+01
6.250000e+01
6.250000e+01
6.250000e+01
6.250000e+01
6.250000e+01
6.250000e+01
6.250000e+01
6.250000e+01
6.250000e+01
6.250000e+01
7.500000e+01
7.500000e+01
7.500000e+01
7.500000e+01
7.500000e+01
7.500000e+01
7.500000e+01
7.500000e+01
7.500000e+01
7.500000e+01
7.500000e+01
7.500000e+01
7.500000e+01
7.500000e+01
7.500000e+01
7.500000e+01
7.500000e+01
8.750000e+01
8.750000e+01
8.750000e+01
8.750000e+01
8.750000e+01
8.750000e+01
8.750000e+01
8.750000e+01
8.750000e+01
8.750000e+01
8.750000e+01
8.750000e+01
8.750000e+01
8.750000e+01
8.750000e+01
8.750000e+01
8.750000e+01
1.000000e+02
1.000000e+02
1.000000e+02
1.000000e+02
1.000000e+02
1.000000e+02
1.000000e+02
1.000000e+02
1.000000e+02
1.000000e+02
1.000000e+02
1.000000e+02
1.000000e+02
1.000000e+02
1.000000e+02
1.000000e+02
1.000000e+02
0.000000e+00
-6.983091e-02
-1.285809e-01
-1.826384e-01
-2.329811e-01
-2.795027e-01
-3.221034e-01
-3.607501e-01
-3.954992e-01
-4.265107e-01
-4.540919e-01
-4.787820e-01
-5.015083e-01
-5.238729e-01
-5.486389e-01
-5.790546e-01
-6.018782e-01
0.000000e+00
-4.170179e-02
-8.662736e-02
-1.281132e-01
-1.663345e-01
-2.014364e-01
-2.334918e-01
-2.625436e-01
-2.886442e-01
-3.118740e-01
-3.323509e-01
-3.502225e-01
-3.656029e-01
-3.783337e-01
-3.873135e-01
-3.892817e-01
-3.963382e-01
0.000000e+00
-2.607912e-02
-5.362518e-02
-8.110645e-02
-1.067593e-01
-1.303123e-01
-1.517462e-01
-1.710852e-01
-1.883342e-01
-2.034644e-01
-2.163944e-01
-2.269435e-01
-2.347357e-01
-2.390855e-01
-2.392063e-01
-2.374686e-01
-2.446657e-01
0.000000e+00
-1.258739e-02
-2.591284e-02
-3.932243e-02
-5.214442e-02
-6.395426e-02
-7.465871e-02
-8.422661e-02
-9.260317e-02
-9.967942e-02
-1.052745e-01
-1.091243e-01
-1.109137e-01
-1.104956e-01
-1.087781e-01
-1.092478e-01
-1.146068e-01
0.000000e+00
-1.159532e-05
-2.635981e-05
-4.107581e-05
-4.888584e-05
-3.449804e-05
3.244001e-05
2.063920e-04
5.767129e-04
1.276502e-03
2.479406e-03
4.359867e-03
6.965022e-03
9.908977e-03
1.194257e-02
1.138482e-02
7.836709e-03
0.000000e+00
1.256955e-02
2.587142e-02
3.925617e-02
5.206201e-02
6.388723e-02
7.468472e-02
8.450727e-02
9.344007e-02
1.015867e-01
1.090537e-01
1.158962e-01
1.219955e-01
1.268864e-01
1.297635e-01
1.299917e-01
1.281908e-01
0.000000e+00
2.607619e-02
5.361626e-02
8.108869e-02
1.067316e-01
1.302778e-01
1.517175e-01
1.710945e-01
1.884489e-01
2.038114e-01
2.171956e-01
2.285686e-01
2.377998e-01
2.446247e-01
2.487211e-01
2.500513e-01
2.496313e-01
0.000000e+00
4.171890e-02
8.666455e-02
1.281726e-01
1.664140e-01
2.015215e-01
2.335396e-01
2.624562e-01
2.882275e-01
3.107791e-01
3.300038e-01
3.457689e-01
3.579482e-01
3.665014e-01
3.716035e-01
3.737793e-01
3.741789e-01
0.000000e+00
6.985952e-02
1.286563e-01
1.827798e-01
2.332069e-01
2.798203e-01
3.224823e-01
3.610687e-01
3.954507e-01
4.254495e-01
4.508050e-01
4.711791e-01
4.862373e-01
4.958611e-01
5.005153e-01
5.016641e-01
5.016419e-01
0.000000e+00
-4.227058e-02
-8.298204e-02
-1.357346e-01
-2.004775e-01
-2.770895e-01
-3.647317e-01
-4.624232e-01
-5.691251e-01
-6.838126e-01
-8.055387e-01
-9.335498e-01
-1.067537e+00
-1.208216e+00
-1.359237e+00
-1.532032e+00
-1.780308e+00
0.000000e+00
-2.602254e-02
-6.849128e-02
-1.218980e-01
-1.876990e-01
-2.653566e-01
-3.540605e-01
-4.528060e-01
-5.605421e-01
-6.762254e-01
-7.988828e-01
-9.277262e-01
-1.062399e+00
-1.203598e+00
-1.354560e+00
-1.526307e+00
-1.736714e+00
0.000000e+00
-1.963631e-02
-5.844556e-02
-1.120494e-01
-1.784725e-01
-2.569294e-01
-3.464487e-01
-4.460158e-01
-5.545870e-01
-6.711337e-01
-7.947017e-01
-9.245297e-01
-1.060295e+00
-1.202580e+00
-1.353672e+00
-1.516408e+00
-1.673902e+00
0.000000e+00
-1.692117e-02
-5.345088e-02
-1.062686e-01
-1.729318e-01
-2.518716e-01
-3.419490e-01
-4.421108e-01
-5.513331e-01
-6.686149e-01
-7.930227e-01
-9.237807e-01
-1.060413e+00
-1.202855e+00
-1.350924e+00
-1.500455e+00
-1.638208e+00
0.000000e+00
-1.613899e-02
-5.193925e-02
-1.044244e-01
-1.711058e-01
-2.502421e-01
-3.405785e-01
-4.410628e-01
-5.506904e-01
-6.684769e-01
-7.934679e-01
-9.247647e-01
-1.061519e+00
-1.202721e+00
-1.346258e+00
-1.487222e+00
-1.617085e+00
0.000000e+00
-1.691112e-02
-5.344373e-02
-1.062813e-01
-1.729943e-01
-2.520362e-01
-3.423011e-01
-4.427777e-01
-5.524828e-01
-6.704271e-01
-7.955944e-01
-9.268973e-01
-1.063066e+00
-1.202367e+00
-1.342125e+00
-1.478255e+00
-1.605345e+00
0.000000e+00
-1.961993e-02
-5.843372e-02
-1.120706e-01
-1.785778e-01
-2.572079e-01
-3.470457e-01
-4.471481e-01
-5.565419e-01
-6.742207e-01
-7.990998e-01
-9.299248e-01
-1.065120e+00
-1.202595e+00
-1.339644e+00
-1.473161e+00
-1.600168e+00
0.000000e+00
-2.600718e-02
-6.848097e-02
-1.219262e-01
-1.878254e-01
-2.656840e-01
-3.547554e-01
-4.541147e-01
-5.627877e-01
-6.797496e-01
-8.038713e-01
-9.338087e-01
-1.067852e+00
-1.203797e+00
-1.339022e+00
-1.471055e+00
-1.598952e+00
0.000000e+00
-4.226423e-02
-8.298293e-02
-1.357782e-01
-2.006240e-01
-2.774395e-01
-3.654428e-01
-4.637205e-01
-5.712881e-01
-6.871027e-01
-8.100082e-01
-9.386307e-01
-1.071248e+00
-1.205706e+00
-1.339550e+00
-1.470670e+00
-1.598971e+00


0.000000e+00
9.858739e-09
1.975358e-08
2.894330e-08
3.756203e-08
4.556109e-08
5.290686e-08
5.959721e-08
6.564551e-08
7.107707e-08
7.592781e-08
8.023775e-08
8.403027e-08
8.727549e-08
8.993164e-08
9.220134e-08
9.422081e-08
0.000000e+00
5.543892e-09
1.349066e-08
2.063675e-08
2.718948e-08
3.323023e-08
3.875345e-08
4.375911e-08
4.825115e-08
5.223273e-08
5.570259e-08
5.865046e-08
6.106134e-08
6.298481e-08
6.474171e-08
6.682685e-08
6.897287e-08
0.000000e+00
3.492729e-09
8.525030e-09
1.324701e-08
1.764940e-08
2.169883e-08
2.537929e-08
2.868631e-08
3.161478e-08
3.415482e-08
3.629184e-08
3.801545e-08
3.935265e-08
4.044064e-08
4.158818e-08
4.313859e-08
4.492991e-08
0.000000e+00
1.706090e-09
4.086703e-09
6.399249e-09
8.600614e-09
1.062317e-08
1.244501e-08
1.405778e-08
1.545196e-08
1.661542e-08
1.753803e-08
1.822523e-08
1.872343e-08
1.915003e-08
1.969964e-08
2.060330e-08
2.184694e-08
0.000000e+00
1.789359e-12
2.217013e-12
-9.362413e-13
-1.070615e-11
-3.193443e-11
-7.171841e-11
-1.395092e-10
-2.462660e-10
-4.017422e-10
-6.085068e-10
-8.519453e-10
-1.088589e-09
-1.238723e-09
-1.179578e-09
-7.542388e-10
6.275896e-11
0.000000e+00
-1.702749e-09
-4.082215e-09
-6.399412e-09
-8.616207e-09
-1.067308e-08
-1.256024e-08
-1.428569e-08
-1.585939e-08
-1.728750e-08
-1.856719e-08
-1.968096e-08
-2.059320e-08
-2.125066e-08
-2.158759e-08
-2.152335e-08
-2.107583e-08
0.000000e+00
-3.490623e-09
-8.521917e-09
-1.324515e-08
-1.765306e-08
-2.171612e-08
-2.542430e-08
-2.878168e-08
-3.179406e-08
-3.446323e-08
-3.678263e-08
-3.873389e-08
-4.028601e-08
-4.140264e-08
-4.206526e-08
-4.228592e-08
-4.215377e-08
0.000000e+00
-5.546003e-09
-1.349486e-08
-2.064055e-08
-2.718878e-08
-3.321803e-08
-3.871823e-08
-4.368310e-08
-4.810861e-08
-5.198908e-08
-5.531560e-08
-5.807498e-08
-6.025002e-08
-6.182623e-08
-6.281747e-08
-6.330483e-08
-6.342257e-08
0.000000e+00
-9.870391e-09
-1.977423e-08
-2.896884e-08
-3.758386e-08
-4.556128e-08
-5.285144e-08
-5.942748e-08
-6.526777e-08
-7.035258e-08
-7.466633e-08
-7.820208e-08
-8.096580e-08
-8.298017e-08
-8.429226e-08
-8.497055e-08
-8.518842e-08
0.000000e+00
8.924930e-09
1.741243e-08
2.693690e-08
3.829651e-08
5.160850e-08
6.678570e-08
8.368800e-08
1.021539e-07
1.220266e-07
1.431716e-07
1.655061e-07
1.890754e-07
2.142184e-07
2.415558e-07
2.705944e-07
2.994047e-07
0.000000e+00
5.399428e-09
1.364853e-08
2.324716e-08
3.482734e-08
4.840637e-08
6.387044e-08
8.106114e-08
9.981278e-08
1.199663e-07
1.413849e-07
1.639794e-07
1.877520e-07
2.128517e-07
2.395237e-07
2.678259e-07
2.962569e-07
0.000000e+00
3.440083e-09
1.063107e-08
2.021869e-08
3.196525e-08
4.577578e-08
6.148954e-08
7.893568e-08
9.794568e-08
1.183598e-07
1.400363e-07
1.628641e-07
1.867668e-07
2.116741e-07
2.375449e-07
2.648135e-07
2.923281e-07
0.000000e+00
2.524519e-09
9.043442e-09
1.845257e-08
3.027581e-08
4.422985e-08
6.010620e-08
7.772318e-08
9.690992e-08
1.175038e-07
1.393514e-07
1.623069e-07
1.862164e-07
2.108873e-07
2.361651e-07
2.623820e-07
2.885260e-07
0.000000e+00
2.261366e-09
8.562007e-09
1.788441e-08
2.972835e-08
4.373988e-08
5.968642e-08
7.738142e-08
9.665182e-08
1.173288e-07
1.392434e-07
1.622170e-07
1.860443e-07
2.104703e-07
2.352441e-07
2.605200e-07
2.853157e-07
0.000000e+00
2.526558e-09
9.051091e-09
1.847149e-08
3.031342e-08
4.429623e-08
6.021394e-08
7.788555e-08
9.713619e-08
1.177894e-07
1.396608e-07
1.625483e-07
1.862165e-07
2.103753e-07
2.347111e-07
2.592011e-07
2.830134e-07
0.000000e+00
3.443371e-09
1.064440e-08
2.025185e-08
3.203120e-08
4.589235e-08
6.167894e-08
7.922141e-08
9.834420e-08
1.188634e-07
1.405817e-07
1.632808e-07
1.867088e-07
2.105630e-07
2.345087e-07
2.584108e-07
2.816106e-07
0.000000e+00
5.403603e-09
1.366544e-08
2.328799e-08
3.490782e-08
4.854789e-08
6.409945e-08
8.140498e-08
1.002892e-07
1.205622e-07
1.420166e-07
1.644221e-07
1.875182e-07
2.110074e-07
2.345813e-07
2.580555e-07
2.809410e-07
0.000000e+00
8.931845e-09
1.743220e-08
2.698094e-08
3.838031e-08
5.175247e-08
6.701401e-08
8.402348e-08
1.026063e-07
1.225693e-07
1.437000e-07
1.657623e-07
1.884932e-07
2.116071e-07
2.348326e-07
2.579977e-07
2.807457e-07


2.040400e-01
2.040400e-01
2.040400e-01
2.040400e-01
2.040400e-01
2.040400e-01
2.040400e-01
2.040400e-01
2.040400e-01
2.040400e-01
2.040400e-01
2.040400e-01
2.040400e-01
2.040400e-01
2.040400e-01
2.040400e-01
2.040400e-01
2.040400e-01
2.040400e-01
2.040400e-01
2.040400e-01
2.040400e-01
2.040400e-01
2.040400e-01
2.040400e-01
2.040400e-01
2.040400e-01
2.040400e-01
2.040400e-01
2.040400e-01
2.040400e-01
2.040400e-01
2.040400e-01
2.040400e-01
2.040400e-01
2.040400e-01
2.040400e-01
2.040400e-01
2.040400e-01
2.040400e-01
2.040400e-01
2.040400e-01
2.040400e-01
2.040400e-01
2.040400e-01
2.040400e-01
2.040400e-01
2.040400e-01
2.040400e-01
2.040400e-01
2.040400e-01
2.040400e-01
2.040400e-01
2.040400e-01
2.040400e-01
2.040400e-01
2.040400e-01
2.040400e-01
2.040400e-01
2.040400e-01
2.040400e-01
2.040400e-01
2.040400e-01
2.040400e-01
2.040400e-01
2.040400e-01
2.040400e-01
2.040400e-01
2.040400e-01
2.040400e-01
2.040400e-01
2.040400e-01
2.040400e-01
2.040400e-01
2.040400e-01
2.040400e-01
2.040400e-01
2.040400e-01
2.040400e-01
2.040400e-01
2.040400e-01
2.040400e-01
2.040400e-01
2.040400e-01
2.040400e-01
2.040400e-01
2.040400e-01
2.040400e-01
2.040400e-01
2.040400e-01
2.040400e-01
2.040400e-01
2.040400e-01
2.040400e-01
2.040400e-01
2.040400e-01
2.040400e-01
2.040400e-01
2.040400e-01
2.040400e-01
2.040400e-01
2.040400e-01
2.040400e-01
2.040400e-01
2.040400e-01
2.040400e-01
2.040400e-01
2.040400e-01
2.040400e-01
2.040400e-01
2.040400e-01
2.040400e-01
2.040400e-01
2.040400e-01
2.040400e-01
2.040400e-01
2.040400e-01
2.040400e-01
2.040400e-01
2.040400e-01
2.040400e-01
2.040400e-01
2.040400e-01
2.040400e-01
2.040400e-01
2.040400e-01
2.040400e-01
2.040400e-01


9.890290e-01
9.905848e-01
9.920240e-01
9.931319e-01
9.941602e-01
9.951085e-01
9.959724e-01
9.967418e-01
9.974087e-01
9.979665e-01
9.984100e-01
9.987349e-01
9.989369e-01
9.990089e-01
9.990609e-01
9.958547e-01
9.958495e-01
9.951365e-01
9.955952e-01
9.961939e-01
9.967520e-01
9.972593e-01
9.977185e-01
9.981345e-01
9.985111e-01
9.988522e-01
9.991617e-01
9.994420e-01
9.996865e-01
9.998467e-01
9.994417e-01
9.939533e-01
9.985579e-01
9.981484e-01
9.980379e-01
9.981934e-01
9.983979e-01
9.985960e-01
9.987800e-01
9.989538e-01
9.991222e-01
9.992864e-01
9.994397e-01
9.995584e-01
9.995832e-01
9.993694e-01
9.985939e-01
9.971991e-01
9.997065e-01
9.994079e-01
9.992234e-01
9.991766e-01
9.991953e-01
9.992266e-01
9.992579e-01
9.992885e-01
9.993186e-01
9.993437e-01
9.993507e-01
9.993133e-01
9.991947e-01
9.989819e-01
9.988014e-01
9.987558e-01
9.997076e-01
9.994094e-01
9.992248e-01
9.991763e-01
9.991906e-01
9.992132e-01
9.992289e-01
9.992342e-01
9.992270e-01
9.992039e-01
9.991608e-01
9.990988e-01
9.990397e-01
9.990514e-01
9.992185e-01
9.995076e-01
9.985599e-01
9.981515e-01
9.980409e-01
9.981934e-01
9.983900e-01
9.985715e-01
9.987251e-01
9.988486e-01
9.989411e-01
9.990034e-01
9.990427e-01
9.990812e-01
9.991621e-01
9.993316e-01
9.995862e-01
9.998495e-01
9.958491e-01
9.951362e-01
9.955946e-01
9.961922e-01
9.967477e-01
9.972493e-01
9.976979e-01
9.980950e-01
9.984410e-01
9.987368e-01
9.989873e-01
9.992059e-01
9.994165e-01
9.996373e-01
9.998438e-01
9.999739e-01
9.890215e-01
9.905731e-01
9.920096e-01
9.931158e-01
9.941458e-01
9.951032e-01
9.959902e-01
9.968047e-01
9.975468e-01
9.982151e-01
9.988017e-01
9.992883e-01
9.996503e-01
9.998736e-01
9.999752e-01
9.999995e-01
1 2 19 18
2 3 20 19
3 4 21 20
4 5 22 21
5 6 23 22
6 7 24 23
7 8 25 24
8 9 26 25
9 10 27 26
10 11 28 27
11 12 29 28
12 13 30 29
13 14 31 30
14 15 32 31
15 16 33 32
16 17 34 33
18 19 36 35
19 20 37 36
20 21 38 37
21 22 39 38
22 23 40 39
23 24 41 40
24 25 42 41
25 26 43 42
26 27 44 43
27 28 45 44
28 29 46 45
29 30 47 46
30 31 48 47
31 32 49 48
32 33 50 49
33 34 51 50
35 36 53 52
36 37 54 53
37 38 55 54
38 39 56 55
39 40 57 56
40 41 58 57
41 42 59 58
42 43 60 59
43 44 61 60
44 45 62 61
45 46 63 62
46 47 64 63
47 48 65 64
48 49 66 65
49 50 67 66
50 51 68 67
52 53 70 69
53 54 71 70
54 55 72 71
55 56 73 72
56 57 74 73
57 58 75 74
58 59 76 75
59 60 77 76
60 61 78 77
61 62 79 78
62 63 80 79
63 64 81 80
64 65 82 81
65 66 83 82
66 67 84 83
67 68 85 84
69 70 87 86
70 71 88 87
71 72 89 88
72 73 90 89
73 74 91 90
74 75 92 91
75 76 93 92
76 77 94 93
77 78 95 94
78 79 96 95
79 80 97 96
80 81 98 97
81 82 99 98
82 83 100 99
83 84 101 100
84 85 102 101
86 87 104 103
87 88 105 104
88 89 106 105
89 90 107 106
90 91 108 107
91 92 109 108
92 93 110 109
93 94 111 110
94 95 112 111
95 96 113 112
96 97 114 113
97 98 115 114
98 99 116 115
99 100 117 116
100 101 118 117
101 102 119 118
103 104 121 120
104 105 122 121
105 106 123 122
106 107 124 123
107 108 125 124
108 109 126 125
109 110 127 126
110 111 128 127
111 112 129 128
112 113 130 129
113 114 131 130
114 115 132 131
115 116 133 132
116 117 134 133
117 118 135 134
118 119 136 135
120 121 138 137
121 122 139 138
122 123 140 139
123 124 141 140
124 125 142 141
125 126 143 142
126 127 144 143
127 128 145 144
128 129 146 145
129 130 147 146
130 131 148 147
131 132 149 148
132 133 150 149
133 134 151 150
134 135 152 151
135 136 153 152
