TITLE = "Solution"
VARIABLES = x, y, u, v, psiu, psiv, t, stress
ZONE T="structure" N=561 E=512 F=FEBLOCK ET=QUADRILATERAL VARLOCATION=([7,8]=cellcentered)
0.000000e+00
6.250000e+00
1.250000e+01
1.875000e+01
2.500000e+01
3.125000e+01
3.750000e+01
4.375000e+01
5.000000e+01
5.625000e+01
6.250000e+01
6.875000e+01
7.500000e+01
8.125000e+01
8.750000e+01
9.375000e+01
1.000000e+02
1.062500e+02
1.125000e+02
1.187500e+02
1.250000e+02
1.312500e+02
1.375000e+02
1.437500e+02
1.500000e+02
1.562500e+02
1.625000e+02
1.687500e+02
1.750000e+02
1.812500e+02
1.875000e+02
1.937500e+02
2.000000e+02
0.000000e+00
6.250000e+00
1.250000e+01
1.875000e+01
2.500000e+01
3.125000e+01
3.750000e+01
4.375000e+01
5.000000e+01
5.625000e+01
6.250000e+01
6.875000e+01
7.500000e+01
8.125000e+01
8.750000e+01
9.375000e+01
1.000000e+02
1.062500e+02
1.125000e+02
1.187500e+02
1.250000e+02
1.312500e+02
1.375000e+02
1.437500e+02
1.500000e+02
1.562500e+02
1.625000e+02
1.687500e+02
1.750000e+02
1.812500e+02
1.875000e+02
1.937500e+02
2.000000e+02
0.000000e+00
6.250000e+00
1.250000e+01
1.875000e+01
2.500000e+01
3.125000e+01
3.750000e+01
4.375000e+01
5.000000e+01
5.625000e+01
6.250000e+01
6.875000e+01
7.500000e+01
8.125000e+01
8.750000e+01
9.375000e+01
1.000000e+02
1.062500e+02
1.125000e+02
1.187500e+02
1.250000e+02
1.312500e+02
1.375000e+02
1.437500e+02
1.500000e+02
1.562500e+02
1.625000e+02
1.687500e+02
1.750000e+02
1.812500e+02
1.875000e+02
1.937500e+02
2.000000e+02
0.000000e+00
6.250000e+00
1.250000e+01
1.875000e+01
2.500000e+01
3.125000e+01
3.750000e+01
4.375000e+01
5.000000e+01
5.625000e+01
6.250000e+01
6.875000e+01
7.500000e+01
8.125000e+01
8.750000e+01
9.375000e+01
1.000000e+02
1.062500e+02
1.125000e+02
1.187500e+02
1.250000e+02
1.312500e+02
1.375000e+02
1.437500e+02
1.500000e+02
1.562500e+02
1.625000e+02
1.687500e+02
1.750000e+02
1.812500e+02
1.875000e+02
1.937500e+02
2.000000e+02
0.000000e+00
6.250000e+00
1.250000e+01
1.875000e+01
2.500000e+01
3.125000e+01
3.750000e+01
4.375000e+01
5.000000e+01
5.625000e+01
6.250000e+01
6.875000e+01
7.500000e+01
8.125000e+01
8.750000e+01
9.375000e+01
1.000000e+02
1.062500e+02
1.125000e+02
1.187500e+02
1.250000e+02
1.312500e+02
1.375000e+02
1.437500e+02
1.500000e+02
1.562500e+02
1.625000e+02
1.687500e+02
1.750000e+02
1.812500e+02
1.875000e+02
1.937500e+02
2.000000e+02
0.000000e+00
6.250000e+00
1.250000e+01
1.875000e+01
2.500000e+01
3.125000e+01
3.750000e+01
4.375000e+01
5.000000e+01
5.625000e+01
6.250000e+01
6.875000e+01
7.500000e+01
8.125000e+01
8.750000e+01
9.375000e+01
1.000000e+02
1.062500e+02
1.125000e+02
1.187500e+02
1.250000e+02
1.312500e+02
1.375000e+02
1.437500e+02
1.500000e+02
1.562500e+02
1.625000e+02
1.687500e+02
1.750000e+02
1.812500e+02
1.875000e+02
1.937500e+02
2.000000e+02
0.000000e+00
6.250000e+00
1.250000e+01
1.875000e+01
2.500000e+01
3.125000e+01
3.750000e+01
4.375000e+01
5.000000e+01
5.625000e+01
6.250000e+01
6.875000e+01
7.500000e+01
8.125000e+01
8.750000e+01
9.375000e+01
1.000000e+02
1.062500e+02
1.125000e+02
1.187500e+02
1.250000e+02
1.312500e+02
1.375000e+02
1.437500e+02
1.500000e+02
1.562500e+02
1.625000e+02
1.687500e+02
1.750000e+02
1.812500e+02
1.875000e+02
1.937500e+02
2.000000e+02
0.000000e+00
6.250000e+00
1.250000e+01
1.875000e+01
2.500000e+01
3.125000e+01
3.750000e+01
4.375000e+01
5.000000e+01
5.625000e+01
6.250000e+01
6.875000e+01
7.500000e+01
8.125000e+01
8.750000e+01
9.375000e+01
1.000000e+02
1.062500e+02
1.125000e+02
1.187500e+02
1.250000e+02
1.312500e+02
1.375000e+02
1.437500e+02
1.500000e+02
1.562500e+02
1.625000e+02
1.687500e+02
1.750000e+02
1.812500e+02
1.875000e+02
1.937500e+02
2.000000e+02
0.000000e+00
6.250000e+00
1.250000e+01
1.875000e+01
2.500000e+01
3.125000e+01
3.750000e+01
4.375000e+01
5.000000e+01
5.625000e+01
6.250000e+01
6.875000e+01
7.500000e+01
8.125000e+01
8.750000e+01
9.375000e+01
1.000000e+02
1.062500e+02
1.125000e+02
1.187500e+02
1.250000e+02
1.312500e+02
1.375000e+02
1.437500e+02
1.500000e+02
1.562500e+02
1.625000e+02
1.687500e+02
1.750000e+02
1.812500e+02
1.875000e+02
1.937500e+02
2.000000e+02
0.000000e+00
6.250000e+00
1.250000e+01
1.875000e+01
2.500000e+01
3.125000e+01
3.750000e+01
4.375000e+01
5.000000e+01
5.625000e+01
6.250000e+01
6.875000e+01
7.500000e+01
8.125000e+01
8.750000e+01
9.375000e+01
1.000000e+02
1.062500e+02
1.125000e+02
1.187500e+02
1.250000e+02
1.312500e+02
1.375000e+02
1.437500e+02
1.500000e+02
1.562500e+02
1.625000e+02
1.687500e+02
1.750000e+02
1.812500e+02
1.875000e+02
1.937500e+02
2.000000e+02
0.000000e+00
6.250000e+00
1.250000e+01
1.875000e+01
2.500000e+01
3.125000e+01
3.750000e+01
4.375000e+01
5.000000e+01
5.625000e+01
6.250000e+01
6.875000e+01
7.500000e+01
8.125000e+01
8.750000e+01
9.375000e+01
1.000000e+02
1.062500e+02
1.125000e+02
1.187500e+02
1.250000e+02
1.312500e+02
1.375000e+02
1.437500e+02
1.500000e+02
1.562500e+02
1.625000e+02
1.687500e+02
1.750000e+02
1.812500e+02
1.875000e+02
1.937500e+02
2.000000e+02
0.000000e+00
6.250000e+00
1.250000e+01
1.875000e+01
2.500000e+01
3.125000e+01
3.750000e+01
4.375000e+01
5.000000e+01
5.625000e+01
6.250000e+01
6.875000e+01
7.500000e+01
8.125000e+01
8.750000e+01
9.375000e+01
1.000000e+02
1.062500e+02
1.125000e+02
1.187500e+02
1.250000e+02
1.312500e+02
1.375000e+02
1.437500e+02
1.500000e+02
1.562500e+02
1.625000e+02
1.687500e+02
1.750000e+02
1.812500e+02
1.875000e+02
1.937500e+02
2.000000e+02
0.000000e+00
6.250000e+00
1.250000e+01
1.875000e+01
2.500000e+01
3.125000e+01
3.750000e+01
4.375000e+01
5.000000e+01
5.625000e+01
6.250000e+01
6.875000e+01
7.500000e+01
8.125000e+01
8.750000e+01
9.375000e+01
1.000000e+02
1.062500e+02
1.125000e+02
1.187500e+02
1.250000e+02
1.312500e+02
1.375000e+02
1.437500e+02
1.500000e+02
1.562500e+02
1.625000e+02
1.687500e+02
1.750000e+02
1.812500e+02
1.875000e+02
1.937500e+02
2.000000e+02
0.000000e+00
6.250000e+00
1.250000e+01
1.875000e+01
2.500000e+01
3.125000e+01
3.750000e+01
4.375000e+01
5.000000e+01
5.625000e+01
6.250000e+01
6.875000e+01
7.500000e+01
8.125000e+01
8.750000e+01
9.375000e+01
1.000000e+02
1.062500e+02
1.125000e+02
1.187500e+02
1.250000e+02
1.312500e+02
1.375000e+02
1.437500e+02
1.500000e+02
1.562500e+02
1.625000e+02
1.687500e+02
1.750000e+02
1.812500e+02
1.875000e+02
1.937500e+02
2.000000e+02
0.000000e+00
6.250000e+00
1.250000e+01
1.875000e+01
2.500000e+01
3.125000e+01
3.750000e+01
4.375000e+01
5.000000e+01
5.625000e+01
6.250000e+01
6.875000e+01
7.500000e+01
8.125000e+01
8.750000e+01
9.375000e+01
1.000000e+02
1.062500e+02
1.125000e+02
1.187500e+02
1.250000e+02
1.312500e+02
1.375000e+02
1.437500e+02
1.500000e+02
1.562500e+02
1.625000e+02
1.687500e+02
1.750000e+02
1.812500e+02
1.875000e+02
1.937500e+02
2.000000e+02
0.000000e+00
6.250000e+00
1.250000e+01
1.875000e+01
2.500000e+01
3.125000e+01
3.750000e+01
4.375000e+01
5.000000e+01
5.625000e+01
6.250000e+01
6.875000e+01
7.500000e+01
8.125000e+01
8.750000e+01
9.375000e+01
1.000000e+02
1.062500e+02
1.125000e+02
1.187500e+02
1.250000e+02
1.312500e+02
1.375000e+02
1.437500e+02
1.500000e+02
1.562500e+02
1.625000e+02
1.687500e+02
1.750000e+02
1.812500e+02
1.875000e+02
1.937500e+02
2.000000e+02
0.000000e+00
6.250000e+00
1.250000e+01
1.875000e+01
2.500000e+01
3.125000e+01
3.750000e+01
4.375000e+01
5.000000e+01
5.625000e+01
6.250000e+01
6.875000e+01
7.500000e+01
8.125000e+01
8.750000e+01
9.375000e+01
1.000000e+02
1.062500e+02
1.125000e+02
1.187500e+02
1.250000e+02
1.312500e+02
1.375000e+02
1.437500e+02
1.500000e+02
1.562500e+02
1.625000e+02
1.687500e+02
1.750000e+02
1.812500e+02
1.875000e+02
1.937500e+02
2.000000e+02
0.000000e+00
0.000000e+00
0.000000e+00
0.000000e+00
0.000000e+00
0.000000e+00
0.000000e+00
0.000000e+00
0.000000e+00
0.000000e+00
0.000000e+00
0.000000e+00
0.000000e+00
0.000000e+00
0.000000e+00
0.000000e+00
0.000000e+00
0.000000e+00
0.000000e+00
0.000000e+00
0.000000e+00
0.000000e+00
0.000000e+00
0.000000e+00
0.000000e+00
0.000000e+00
0.000000e+00
0.000000e+00
0.000000e+00
0.000000e+00
0.000000e+00
0.000000e+00
0.000000e+00
6.250000e+00
6.250000e+00
6.250000e+00
6.250000e+00
6.250000e+00
6.250000e+00
6.250000e+00
6.250000e+00
6.250000e+00
6.250000e+00
6.250000e+00
6.250000e+00
6.250000e+00
6.250000e+00
6.250000e+00
6.250000e+00
6.250000e+00
6.250000e+00
6.250000e+00
6.250000e+00
6.250000e+00
6.250000e+00
6.250000e+00
6.250000e+00
6.250000e+00
6.250000e+00
6.250000e+00
6.250000e+00
6.250000e+00
6.250000e+00
6.250000e+00
6.250000e+00
6.250000e+00
1.250000e+01
1.250000e+01
1.250000e+01
1.250000e+01
1.250000e+01
1.250000e+01
1.250000e+01
1.250000e+01
1.250000e+01
1.250000e+01
1.250000e+01
1.250000e+01
1.250000e+01
1.250000e+01
1.250000e+01
1.250000e+01
1.250000e+01
1.250000e+01
1.250000e+01
1.250000e+01
1.250000e+01
1.250000e+01
1.250000e+01
1.250000e+01
1.250000e+01
1.250000e+01
1.250000e+01
1.250000e+01
1.250000e+01
1.250000e+01
1.250000e+01
1.250000e+01
1.250000e+01
1.875000e+01
1.875000e+01
1.875000e+01
1.875000e+01
1.875000e+01
1.875000e+01
1.875000e+01
1.875000e+01
1.875000e+01
1.875000e+01
1.875000e+01
1.875000e+01
1.875000e+01
1.875000e+01
1.875000e+01
1.875000e+01
1.875000e+01
1.875000e+01
1.875000e+01
1.875000e+01
1.875000e+01
1.875000e+01
1.875000e+01
1.875000e+01
1.875000e+01
1.875000e+01
1.875000e+01
1.875000e+01
1.875000e+01
1.875000e+01
1.875000e+01
1.875000e+01
1.875000e+01
2.500000e+01
2.500000e+01
2.500000e+01
2.500000e+01
2.500000e+01
2.500000e+01
2.500000e+01
2.500000e+01
2.500000e+01
2.500000e+01
2.500000e+01
2.500000e+01
2.500000e+01
2.500000e+01
2.500000e+01
2.500000e+01
2.500000e+01
2.500000e+01
2.500000e+01
2.500000e+01
2.500000e+01
2.500000e+01
2.500000e+01
2.500000e+01
2.500000e+01
2.500000e+01
2.500000e+01
2.500000e+01
2.500000e+01
2.500000e+01
2.500000e+01
2.500000e+01
2.500000e+01
3.125000e+01
3.125000e+01
3.125000e+01
3.125000e+01
3.125000e+01
3.125000e+01
3.125000e+01
3.125000e+01
3.125000e+01
3.125000e+01
3.125000e+01
3.125000e+01
3.125000e+01
3.125000e+01
3.125000e+01
3.125000e+01
3.125000e+01
3.125000e+01
3.125000e+01
3.125000e+01
3.125000e+01
3.125000e+01
3.125000e+01
3.125000e+01
3.125000e+01
3.125000e+01
3.125000e+01
3.125000e+01
3.125000e+01
3.125000e+01
3.125000e+01
3.125000e+01
3.125000e+01
3.750000e+01
3.750000e+01
3.750000e+01
3.750000e+01
3.750000e+01
3.750000e+01
3.750000e+01
3.750000e+01
3.750000e+01
3.750000e+01
3.750000e+01
3.750000e+01
3.750000e+01
3.750000e+01
3.750000e+01
3.750000e+01
3.750000e+01
3.750000e+01
3.750000e+01
3.750000e+01
3.750000e+01
3.750000e+01
3.750000e+01
3.750000e+01
3.750000e+01
3.750000e+01
3.750000e+01
3.750000e+01
3.750000e+01
3.750000e+01
3.750000e+01
3.750000e+01
3.750000e+01
4.375000e+01
4.375000e+01
4.375000e+01
4.375000e+01
4.375000e+01
4.375000e+01
4.375000e+01
4.375000e+01
4.375000e+01
4.375000e+01
4.375000e+01
4.375000e+01
4.375000e+01
4.375000e+01
4.375000e+01
4.375000e+01
4.375000e+01
4.375000e+01
4.375000e+01
4.375000e+01
4.375000e+01
4.375000e+01
4.375000e+01
4.375000e+01
4.375000e+01
4.375000e+01
4.375000e+01
4.375000e+01
4.375000e+01
4.375000e+01
4.375000e+01
4.375000e+01
4.375000e+01
5.000000e+01
5.000000e+01
5.000000e+01
5.000000e+01
5.000000e+01
5.000000e+01
5.000000e+01
5.000000e+01
5.000000e+01
5.000000e+01
5.000000e+01
5.000000e+01
5.000000e+01
5.000000e+01
5.000000e+01
5.000000e+01
5.000000e+01
5.000000e+01
5.000000e+01
5.000000e+01
5.000000e+01
5.000000e+01
5.000000e+01
5.000000e+01
5.000000e+01
5.000000e+01
5.000000e+01
5.000000e+01
5.000000e+01
5.000000e+01
5.000000e+01
5.000000e+01
5.000000e+01
5.625000e+01
5.625000e+01
5.625000e+01
5.625000e+01
5.625000e+01
5.625000e+01
5.625000e+01
5.625000e+01
5.625000e+01
5.625000e+01
5.625000e+01
5.625000e+01
5.625000e+01
5.625000e+01
5.625000e+01
5.625000e+01
5.625000e+01
5.625000e+01
5.625000e+01
5.625000e+01
5.625000e+01
5.625000e+01
5.625000e+01
5.625000e+01
5.625000e+01
5.625000e+01
5.625000e+01
5.625000e+01
5.625000e+01
5.625000e+01
5.625000e+01
5.625000e+01
5.625000e+01
6.250000e+01
6.250000e+01
6.250000e+01
6.250000e+01
6.250000e+01
6.250000e+01
6.250000e+01
6.250000e+01
6.250000e+01
6.250000e+01
6.250000e+01
6.250000e+01
6.250000e+01
6.250000e+01
6.250000e+01
6.250000e+01
6.250000e+01
6.250000e+01
6.250000e+01
6.250000e+01
6.250000e+01
6.250000e+01
6.250000e+01
6.250000e+01
6.250000e+01
6.250000e+01
6.250000e+01
6.250000e+01
6.250000e+01
6.250000e+01
6.250000e+01
6.250000e+01
6.250000e+01
6.875000e+01
6.875000e+01
6.875000e+01
6.875000e+01
6.875000e+01
6.875000e+01
6.875000e+01
6.875000e+01
6.875000e+01
6.875000e+01
6.875000e+01
6.875000e+01
6.875000e+01
6.875000e+01
6.875000e+01
6.875000e+01
6.875000e+01
6.875000e+01
6.875000e+01
6.875000e+01
6.875000e+01
6.875000e+01
6.875000e+01
6.875000e+01
6.875000e+01
6.875000e+01
6.875000e+01
6.875000e+01
6.875000e+01
6.875000e+01
6.875000e+01
6.875000e+01
6.875000e+01
7.500000e+01
7.500000e+01
7.500000e+01
7.500000e+01
7.500000e+01
7.500000e+01
7.500000e+01
7.500000e+01
7.500000e+01
7.500000e+01
7.500000e+01
7.500000e+01
7.500000e+01
7.500000e+01
7.500000e+01
7.500000e+01
7.500000e+01
7.500000e+01
7.500000e+01
7.500000e+01
7.500000e+01
7.500000e+01
7.500000e+01
7.500000e+01
7.500000e+01
7.500000e+01
7.500000e+01
7.500000e+01
7.500000e+01
7.500000e+01
7.500000e+01
7.500000e+01
7.500000e+01
8.125000e+01
8.125000e+01
8.125000e+01
8.125000e+01
8.125000e+01
8.125000e+01
8.125000e+01
8.125000e+01
8.125000e+01
8.125000e+01
8.125000e+01
8.125000e+01
8.125000e+01
8.125000e+01
8.125000e+01
8.125000e+01
8.125000e+01
8.125000e+01
8.125000e+01
8.125000e+01
8.125000e+01
8.125000e+01
8.125000e+01
8.125000e+01
8.125000e+01
8.125000e+01
8.125000e+01
8.125000e+01
8.125000e+01
8.125000e+01
8.125000e+01
8.125000e+01
8.125000e+01
8.750000e+01
8.750000e+01
8.750000e+01
8.750000e+01
8.750000e+01
8.750000e+01
8.750000e+01
8.750000e+01
8.750000e+01
8.750000e+01
8.750000e+01
8.750000e+01
8.750000e+01
8.750000e+01
8.750000e+01
8.750000e+01
8.750000e+01
8.750000e+01
8.750000e+01
8.750000e+01
8.750000e+01
8.750000e+01
8.750000e+01
8.750000e+01
8.750000e+01
8.750000e+01
8.750000e+01
8.750000e+01
8.750000e+01
8.750000e+01
8.750000e+01
8.750000e+01
8.750000e+01
9.375000e+01
9.375000e+01
9.375000e+01
9.375000e+01
9.375000e+01
9.375000e+01
9.375000e+01
9.375000e+01
9.375000e+01
9.375000e+01
9.375000e+01
9.375000e+01
9.375000e+01
9.375000e+01
9.375000e+01
9.375000e+01
9.375000e+01
9.375000e+01
9.375000e+01
9.375000e+01
9.375000e+01
9.375000e+01
9.375000e+01
9.375000e+01
9.375000e+01
9.375000e+01
9.375000e+01
9.375000e+01
9.375000e+01
9.375000e+01
9.375000e+01
9.375000e+01
9.375000e+01
1.000000e+02
1.000000e+02
1.000000e+02
1.000000e+02
1.000000e+02
1.000000e+02
1.000000e+02
1.000000e+02
1.000000e+02
1.000000e+02
1.000000e+02
1.000000e+02
1.000000e+02
1.000000e+02
1.000000e+02
1.000000e+02
1.000000e+02
1.000000e+02
1.000000e+02
1.000000e+02
1.000000e+02
1.000000e+02
1.000000e+02
1.000000e+02
1.000000e+02
1.000000e+02
1.000000e+02
1.000000e+02
1.000000e+02
1.000000e+02
1.000000e+02
1.000000e+02
1.000000e+02
0.000000e+00
-4.430939e-02
-8.039349e-02
-1.138203e-01
-1.459007e-01
-1.768791e-01
-2.068178e-01
-2.357142e-01
-2.635500e-01
-2.903050e-01
-3.159625e-01
-3.405108e-01
-3.639439e-01
-3.862615e-01
-4.074686e-01
-4.275766e-01
-4.466033e-01
-4.645749e-01
-4.815277e-01
-4.975103e-01
-5.125878e-01
-5.268460e-01
-5.403986e-01
-5.533963e-01
-5.660409e-01
-5.786069e-01
-5.914752e-01
-6.051893e-01
-6.205464e-01
-6.387197e-01
-6.612310e-01
-6.880582e-01
-7.044305e-01
0.000000e+00
-2.970825e-02
-6.181121e-02
-9.208006e-02
-1.208494e-01
-1.483933e-01
-1.748571e-01
-2.003046e-01
-2.247612e-01
-2.482350e-01
-2.707277e-01
-2.922392e-01
-3.127707e-01
-3.323253e-01
-3.509096e-01
-3.685340e-01
-3.852134e-01
-4.009684e-01
-4.158263e-01
-4.298227e-01
-4.430026e-01
-4.554232e-01
-4.671552e-01
-4.782851e-01
-4.889164e-01
-4.991681e-01
-5.091658e-01
-5.190129e-01
-5.287088e-01
-5.379380e-01
-5.456285e-01
-5.501247e-01
-5.563841e-01
0.000000e+00
-2.356466e-02
-4.851351e-02
-7.391541e-02
-9.859820e-02
-1.223714e-01
-1.452198e-01
-1.671650e-01
-1.882265e-01
-2.084175e-01
-2.277467e-01
-2.462199e-01
-2.638424e-01
-2.806194e-01
-2.965570e-01
-3.116630e-01
-3.259473e-01
-3.394221e-01
-3.521025e-01
-3.640067e-01
-3.751555e-01
-3.855714e-01
-3.952766e-01
-4.042884e-01
-4.126103e-01
-4.202156e-01
-4.270173e-01
-4.328152e-01
-4.372172e-01
-4.395875e-01
-4.393797e-01
-4.380487e-01
-4.453580e-01
0.000000e+00
-1.869647e-02
-3.842550e-02
-5.869462e-02
-7.891624e-02
-9.864804e-02
-1.177211e-01
-1.360747e-01
-1.536925e-01
-1.705738e-01
-1.867229e-01
-2.021452e-01
-2.168460e-01
-2.308298e-01
-2.441008e-01
-2.566627e-01
-2.685191e-01
-2.796728e-01
-2.901262e-01
-2.998799e-01
-3.089314e-01
-3.172724e-01
-3.248844e-01
-3.317321e-01
-3.377520e-01
-3.428381e-01
-3.468219e-01
-3.494601e-01
-3.504674e-01
-3.497197e-01
-3.479035e-01
-3.477951e-01
-3.547591e-01
0.000000e+00
-1.451107e-02
-2.971372e-02
-4.540201e-02
-6.121776e-02
-7.683952e-02
-9.205176e-02
-1.067453e-01
-1.208707e-01
-1.344086e-01
-1.473542e-01
-1.597082e-01
-1.714728e-01
-1.826500e-01
-1.932406e-01
-2.032436e-01
-2.126560e-01
-2.214719e-01
-2.296824e-01
-2.372736e-01
-2.442252e-01
-2.505075e-01
-2.560774e-01
-2.608739e-01
-2.648120e-01
-2.677805e-01
-2.696484e-01
-2.703037e-01
-2.697661e-01
-2.684508e-01
-2.675974e-01
-2.695681e-01
-2.755087e-01
0.000000e+00
-1.066479e-02
-2.178650e-02
-3.326552e-02
-4.490350e-02
-5.648320e-02
-6.783215e-02
-7.883825e-02
-8.943997e-02
-9.960739e-02
-1.093279e-01
-1.185970e-01
-1.274131e-01
-1.357748e-01
-1.436787e-01
-1.511193e-01
-1.580878e-01
-1.645713e-01
-1.705525e-01
-1.760078e-01
-1.809066e-01
-1.852090e-01
-1.888650e-01
-1.918131e-01
-1.939833e-01
-1.953075e-01
-1.957468e-01
-1.953526e-01
-1.943808e-01
-1.934563e-01
-1.936814e-01
-1.961936e-01
-2.011090e-01
0.000000e+00
-7.018714e-03
-1.431505e-02
-2.184285e-02
-2.949476e-02
-3.714198e-02
-4.466920e-02
-5.199233e-02
-5.905878e-02
-6.583952e-02
-7.231987e-02
-7.849247e-02
-8.435259e-02
-8.989534e-02
-9.511404e-02
-9.999914e-02
-1.045375e-01
-1.087116e-01
-1.124991e-01
-1.158721e-01
-1.187967e-01
-1.212332e-01
-1.231374e-01
-1.244643e-01
-1.251773e-01
-1.252658e-01
-1.247783e-01
-1.238762e-01
-1.229028e-01
-1.224310e-01
-1.231672e-01
-1.256130e-01
-1.295809e-01
0.000000e+00
-3.486193e-03
-7.104185e-03
-1.083538e-02
-1.463265e-02
-1.843602e-02
-2.218851e-02
-2.584555e-02
-2.937703e-02
-3.276453e-02
-3.599717e-02
-3.906772e-02
-4.196992e-02
-4.469655e-02
-4.723834e-02
-4.958306e-02
-5.171500e-02
-5.361447e-02
-5.525759e-02
-5.661638e-02
-5.765943e-02
-5.835372e-02
-5.866823e-02
-5.858075e-02
-5.808957e-02
-5.723216e-02
-5.611229e-02
-5.493231e-02
-5.401631e-02
-5.378684e-02
-5.465056e-02
-5.678425e-02
-5.993263e-02
0.000000e+00
-5.624638e-06
-1.219582e-05
-1.934951e-05
-2.670942e-05
-3.376820e-05
-3.976123e-05
-4.352657e-05
-4.334127e-05
-3.672436e-05
-2.019897e-05
1.099052e-05
6.320599e-05
1.447803e-04
2.664023e-04
4.414875e-04
6.864790e-04
1.020984e-03
1.467597e-03
2.051195e-03
2.797352e-03
3.729412e-03
4.863543e-03
6.200975e-03
7.716655e-03
9.344188e-03
1.095897e-02
1.236581e-02
1.330495e-02
1.349540e-02
1.272855e-02
1.099190e-02
8.559623e-03
0.000000e+00
3.475599e-03
7.081167e-03
1.079879e-02
1.458202e-02
1.837183e-02
2.211264e-02
2.576206e-02
2.929318e-02
3.269224e-02
3.595486e-02
3.908275e-02
4.208159e-02
4.495987e-02
4.772848e-02
5.040055e-02
5.299154e-02
5.551903e-02
5.800229e-02
6.046116e-02
6.291403e-02
6.537439e-02
6.784576e-02
7.031441e-02
7.274021e-02
7.504662e-02
7.711291e-02
7.877482e-02
7.984265e-02
8.014496e-02
7.959744e-02
7.827819e-02
7.647297e-02
0.000000e+00
7.010060e-03
1.429611e-02
2.181253e-02
2.945248e-02
3.708789e-02
4.460451e-02
5.192002e-02
5.898434e-02
6.577218e-02
7.227413e-02
7.849005e-02
8.442496e-02
9.008687e-02
9.548570e-02
1.006330e-01
1.055415e-01
1.102254e-01
1.146992e-01
1.189766e-01
1.230689e-01
1.269811e-01
1.307080e-01
1.342280e-01
1.374969e-01
1.404423e-01
1.429617e-01
1.449294e-01
1.462173e-01
1.467322e-01
1.464675e-01
1.455546e-01
1.442947e-01
0.000000e+00
1.065927e-02
2.177420e-02
3.324549e-02
4.487506e-02
5.644607e-02
6.778673e-02
7.878597e-02
8.938386e-02
9.955281e-02
1.092835e-01
1.185763e-01
1.274357e-01
1.358689e-01
1.438836e-01
1.514884e-01
1.586922e-01
1.655042e-01
1.719332e-01
1.779865e-01
1.836684e-01
1.889776e-01
1.939037e-01
1.984236e-01
2.024973e-01
2.060655e-01
2.090515e-01
2.113690e-01
2.129406e-01
2.137280e-01
2.137724e-01
2.132368e-01
2.124406e-01
0.000000e+00
1.450969e-02
2.971029e-02
4.539587e-02
6.120827e-02
7.682614e-02
9.203415e-02
1.067235e-01
1.208450e-01
1.343802e-01
1.473254e-01
1.596825e-01
1.714562e-01
1.826514e-01
1.932727e-01
2.033245e-01
2.128105e-01
2.217340e-01
2.300969e-01
2.378999e-01
2.451403e-01
2.518118e-01
2.579013e-01
2.633878e-01
2.682406e-01
2.724188e-01
2.758747e-01
2.785606e-01
2.804430e-01
2.815244e-01
2.818752e-01
2.816741e-01
2.812546e-01
0.000000e+00
1.869994e-02
3.843256e-02
5.870512e-02
7.892989e-02
9.866445e-02
1.177397e-01
1.360945e-01
1.537121e-01
1.705907e-01
1.867335e-01
2.021442e-01
2.168256e-01
2.307793e-01
2.440057e-01
2.565037e-01
2.682709e-01
2.793034e-01
2.895958e-01
2.991409e-01
3.079289e-01
3.159476e-01
3.231819e-01
3.296134e-01
3.352216e-01
3.399855e-01
3.438873e-01
3.469181e-01
3.490873e-01
3.504353e-01
3.510554e-01
3.511293e-01
3.509901e-01
0.000000e+00
2.357314e-02
4.853161e-02
7.394376e-02
9.863733e-02
1.224218e-01
1.452815e-01
1.672373e-01
1.883074e-01
2.085028e-01
2.278291e-01
2.462876e-01
2.638772e-01
2.805946e-01
2.964345e-01
3.113897e-01
3.254511e-01
3.386071e-01
3.508439e-01
3.621451e-01
3.724922e-01
3.818652e-01
3.902434e-01
3.976083e-01
4.039459e-01
4.092513e-01
4.135341e-01
4.168246e-01
4.191795e-01
4.206878e-01
4.214773e-01
4.217344e-01
4.217651e-01
0.000000e+00
2.972098e-02
6.183902e-02
9.212479e-02
1.209133e-01
1.484784e-01
1.749654e-01
2.004371e-01
2.249173e-01
2.484117e-01
2.709177e-01
2.924289e-01
3.129374e-01
3.324337e-01
3.509067e-01
3.683434e-01
3.847278e-01
4.000406e-01
4.142588e-01
4.273557e-01
4.393009e-01
4.500624e-01
4.596083e-01
4.679113e-01
4.749542e-01
4.807373e-01
4.852880e-01
4.886703e-01
4.909937e-01
4.924174e-01
4.931448e-01
4.934085e-01
4.934731e-01
0.000000e+00
4.432332e-02
8.042600e-02
1.138760e-01
1.459840e-01
1.769947e-01
2.069703e-01
2.359081e-01
2.637889e-01
2.905903e-01
3.162917e-01
3.408752e-01
3.643251e-01
3.866263e-01
4.077634e-01
4.277186e-01
4.464707e-01
4.639936e-01
4.802553e-01
4.952172e-01
5.088344e-01
5.210566e-01
5.318315e-01
5.411096e-01
5.488527e-01
5.550450e-01
5.597086e-01
5.629215e-01
5.648364e-01
5.656993e-01
5.658561e-01
5.657262e-01
5.656531e-01
0.000000e+00
-2.738236e-02
-4.778812e-02
-7.005573e-02
-9.485203e-02
-1.228619e-01
-1.542801e-01
-1.891611e-01
-2.274702e-01
-2.691253e-01
-3.140161e-01
-3.620154e-01
-4.129863e-01
-4.667862e-01
-5.232695e-01
-5.822899e-01
-6.437016e-01
-7.073615e-01
-7.731313e-01
-8.408809e-01
-9.104922e-01
-9.818662e-01
-1.054932e+00
-1.129661e+00
-1.206091e+00
-1.284364e+00
-1.364790e+00
-1.447976e+00
-1.535085e+00
-1.628415e+00
-1.732927e+00
-1.860327e+00
-2.036334e+00
0.000000e+00
-1.701709e-02
-3.837655e-02
-6.079437e-02
-8.593629e-02
-1.142505e-01
-1.459739e-01
-1.811602e-01
-2.197777e-01
-2.617442e-01
-3.069486e-01
-3.552631e-01
-4.065493e-01
-4.606636e-01
-5.174589e-01
-5.767875e-01
-6.385018e-01
-7.024565e-01
-7.685108e-01
-8.365312e-01
-9.063955e-01
-9.779996e-01
-1.051266e+00
-1.126159e+00
-1.202704e+00
-1.281031e+00
-1.361436e+00
-1.444505e+00
-1.531376e+00
-1.624309e+00
-1.728014e+00
-1.852579e+00
-2.017015e+00
0.000000e+00
-1.250003e-02
-3.093899e-02
-5.305100e-02
-7.823684e-02
-1.067597e-01
-1.387335e-01
-1.741880e-01
-2.130805e-01
-2.553250e-01
-3.008086e-01
-3.494022e-01
-4.009671e-01
-4.553590e-01
-5.124305e-01
-5.720330e-01
-6.340183e-01
-6.982404e-01
-7.645574e-01
-8.328347e-01
-9.029493e-01
-9.747960e-01
-1.048297e+00
-1.123418e+00
-1.200188e+00
-1.278743e+00
-1.359392e+00
-1.442738e+00
-1.529903e+00
-1.622925e+00
-1.725280e+00
-1.841081e+00
-1.969539e+00
0.000000e+00
-1.000950e-02
-2.619908e-02
-4.713197e-02
-7.199414e-02
-1.005081e-01
-1.326187e-01
-1.682718e-01
-2.073907e-01
-2.498734e-01
-2.956000e-01
-3.444382e-01
-3.962480e-01
-4.508849e-01
-5.082016e-01
-5.680499e-01
-6.302822e-01
-6.947529e-01
-7.613210e-01
-8.298529e-01
-9.002271e-01
-9.723412e-01
-1.046121e+00
-1.121538e+00
-1.198629e+00
-1.277536e+00
-1.358565e+00
-1.442272e+00
-1.529575e+00
-1.621816e+00
-1.720279e+00
-1.824127e+00
-1.920799e+00
0.000000e+00
-8.469682e-03
-2.309935e-02
-4.292875e-02
-6.722417e-02
-9.555121e-02
-1.276739e-01
-1.634428e-01
-2.027288e-01
-2.454034e-01
-2.913332e-01
-3.403798e-01
-3.924008e-01
-4.472511e-01
-5.047840e-01
-5.648525e-01
-6.273102e-01
-6.920133e-01
-7.588227e-01
-8.276071e-01
-8.982478e-01
-9.706452e-01
-1.044729e+00
-1.120471e+00
-1.197907e+00
-1.277161e+00
-1.358482e+00
-1.442270e+00
-1.529054e+00
-1.619260e+00
-1.712456e+00
-1.805223e+00
-1.889414e+00
0.000000e+00
-7.489883e-03
-2.106554e-02
-4.003629e-02
-6.378481e-02
-9.184650e-02
-1.238993e-01
-1.597141e-01
-1.991101e-01
-2.419285e-01
-2.880193e-01
-3.372360e-01
-3.894327e-01
-4.444635e-01
-5.021827e-01
-5.624445e-01
-6.251045e-01
-6.900212e-01
-7.570574e-01
-8.260842e-01
-8.969844e-01
-9.696591e-01
-1.044036e+00
-1.120078e+00
-1.197800e+00
-1.277276e+00
-1.358646e+00
-1.442086e+00
-1.527692e+00
-1.615177e+00
-1.703207e+00
-1.788636e+00
-1.866718e+00
0.000000e+00
-6.880949e-03
-1.977967e-02
-3.815612e-02
-6.148068e-02
-8.930056e-02
-1.212582e-01
-1.570774e-01
-1.965385e-01
-2.394564e-01
-2.856659e-01
-3.350125e-01
-3.873471e-01
-4.425230e-01
-5.003954e-01
-5.608201e-01
-6.236548e-01
-6.887598e-01
-7.559996e-01
-8.252459e-01
-8.963808e-01
-9.693012e-01
-1.043925e+00
-1.120195e+00
-1.198086e+00
-1.277599e+00
-1.358741e+00
-1.441466e+00
-1.525534e+00
-1.610262e+00
-1.694184e+00
-1.774880e+00
-1.849385e+00
0.000000e+00
-6.546331e-03
-1.906617e-02
-3.709661e-02
-6.015947e-02
-8.781757e-02
-1.197019e-01
-1.555132e-01
-1.950094e-01
-2.379889e-01
-2.842762e-01
-3.337114e-01
-3.861433e-01
-4.414255e-01
-4.994138e-01
-5.599660e-01
-6.229412e-01
-6.882011e-01
-7.556107e-01
-8.250402e-01
-8.963675e-01
-9.694807e-01
-1.044280e+00
-1.120680e+00
-1.198602e+00
-1.277969e+00
-1.358661e+00
-1.440460e+00
-1.522929e+00
-1.605256e+00
-1.686120e+00
-1.763701e+00
-1.835975e+00
0.000000e+00
-6.438519e-03
-1.883597e-02
-3.675321e-02
-5.972887e-02
-8.733221e-02
-1.191921e-01
-1.550029e-01
-1.945157e-01
-2.375239e-01
-2.838491e-01
-3.333304e-01
-3.858166e-01
-4.411623e-01
-4.992248e-01
-5.598633e-01
-6.229381e-01
-6.883112e-01
-7.558467e-01
-8.254113e-01
-8.968757e-01
-9.701147e-01
-1.045007e+00
-1.121431e+00
-1.199258e+00
-1.278334e+00
-1.358443e+00
-1.439255e+00
-1.520249e+00
-1.600625e+00
-1.679267e+00
-1.754785e+00
-1.825697e+00
0.000000e+00
-6.543213e-03
-1.906184e-02
-3.709288e-02
-6.015834e-02
-8.782153e-02
-1.197142e-01
-1.555382e-01
-1.950528e-01
-2.380582e-01
-2.843811e-01
-3.338641e-01
-3.863589e-01
-4.417220e-01
-4.998125e-01
-5.604908e-01
-6.236178e-01
-6.890551e-01
-7.566645e-01
-8.263075e-01
-8.978455e-01
-9.711379e-01
-1.046039e+00
-1.122394e+00
-1.200025e+00
-1.278718e+00
-1.358189e+00
-1.438053e+00
-1.517771e+00
-1.596617e+00
-1.673669e+00
-1.747853e+00
-1.818036e+00
0.000000e+00
-6.874965e-03
-1.977137e-02
-3.814894e-02
-6.147843e-02
-8.930799e-02
-1.212816e-01
-1.571250e-01
-1.966214e-01
-2.395890e-01
-2.858668e-01
-3.353051e-01
-3.877602e-01
-4.430916e-01
-5.011602e-01
-5.618273e-01
-6.249541e-01
-6.904007e-01
-7.580260e-01
-8.276855e-01
-8.992305e-01
-9.725045e-01
-1.047339e+00
-1.123548e+00
-1.200915e+00
-1.279179e+00
-1.358018e+00
-1.437023e+00
-1.515676e+00
-1.593344e+00
-1.669279e+00
-1.742654e+00
-1.812599e+00
0.000000e+00
-7.481565e-03
-2.105400e-02
-4.002625e-02
-6.378156e-02
-9.185667e-02
-1.239317e-01
-1.597802e-01
-1.992255e-01
-2.421134e-01
-2.882997e-01
-3.376447e-01
-3.900101e-01
-4.452587e-01
-5.032529e-01
-5.638546e-01
-6.269247e-01
-6.923219e-01
-7.599014e-01
-8.295129e-01
-9.009981e-01
-9.741862e-01
-1.048889e+00
-1.124894e+00
-1.201956e+00
-1.279782e+00
-1.358029e+00
-1.436284e+00
-1.514068e+00
-1.590837e+00
-1.666002e+00
-1.738945e+00
-1.809034e+00
0.000000e+00
-8.459883e-03
-2.308576e-02
-4.291693e-02
-6.722041e-02
-9.556352e-02
-1.277129e-01
-1.635226e-01
-2.028682e-01
-2.456268e-01
-2.916721e-01
-3.408739e-01
-3.930992e-01
-4.482131e-01
-5.060791e-01
-5.665594e-01
-6.295143e-01
-6.948007e-01
-7.622708e-01
-8.317691e-01
-9.031290e-01
-9.761684e-01
-1.050684e+00
-1.126443e+00
-1.203179e+00
-1.280581e+00
-1.358294e+00
-1.435912e+00
-1.512994e+00
-1.589078e+00
-1.663714e+00
-1.736483e+00
-1.806994e+00
0.000000e+00
-9.999427e-03
-2.618513e-02
-4.711994e-02
-7.199091e-02
-1.005226e-01
-1.326627e-01
-1.683609e-01
-2.075457e-01
-2.501213e-01
-2.959756e-01
-3.449853e-01
-3.970209e-01
-4.519487e-01
-5.096329e-01
-5.699355e-01
-6.327158e-01
-6.978294e-01
-7.651258e-01
-8.344455e-01
-9.056161e-01
-9.784472e-01
-1.052725e+00
-1.128204e+00
-1.204605e+00
-1.281606e+00
-1.358847e+00
-1.435932e+00
-1.512452e+00
-1.588011e+00
-1.662276e+00
-1.735013e+00
-1.806105e+00
0.000000e+00
-1.249126e-02
-3.092677e-02
-5.304085e-02
-7.823588e-02
-1.067773e-01
-1.387820e-01
-1.742838e-01
-2.132452e-01
-2.555866e-01
-3.012030e-01
-3.499746e-01
-4.017731e-01
-4.564656e-01
-5.139158e-01
-5.739853e-01
-6.365327e-01
-7.014120e-01
-7.684709e-01
-8.375472e-01
-9.084649e-01
-9.810287e-01
-1.055019e+00
-1.130184e+00
-1.206238e+00
-1.282857e+00
-1.359679e+00
-1.436319e+00
-1.512391e+00
-1.587544e+00
-1.661530e+00
-1.734274e+00
-1.805950e+00
0.000000e+00
-1.701145e-02
-3.836824e-02
-6.078840e-02
-8.593998e-02
-1.142734e-01
-1.460286e-01
-1.812631e-01
-2.199502e-01
-2.620141e-01
-3.073515e-01
-3.558431e-01
-4.073607e-01
-4.617711e-01
-5.189378e-01
-5.787215e-01
-6.409798e-01
-7.055657e-01
-7.723253e-01
-8.410947e-01
-9.116956e-01
-9.839309e-01
-1.057579e+00
-1.132386e+00
-1.208068e+00
-1.284301e+00
-1.360731e+00
-1.436983e+00
-1.512687e+00
-1.587522e+00
-1.661287e+00
-1.734007e+00
-1.806082e+00
0.000000e+00
-2.738155e-02
-4.778535e-02
-7.005626e-02
-9.486322e-02
-1.228934e-01
-1.543444e-01
-1.892744e-01
-2.276537e-01
-2.694059e-01
-3.144279e-01
-3.626006e-01
-4.137960e-01
-4.678807e-01
-5.247177e-01
-5.841670e-01
-6.460849e-01
-7.103231e-01
-7.767260e-01
-8.451279e-01
-9.153492e-01
-9.871912e-01
-1.060432e+00