TITLE = "Solution"
VARIABLES = x, y, u, v, psiu, psiv, t, stress
ZONE T="structure" N=561 E=512 F=FEBLOCK ET=QUADRILATERAL VARLOCATION=([7,8]=cellcentered)
0.000000e+00
6.250000e+00
1.250000e+01
1.875000e+01
2.500000e+01
3.125000e+01
3.750000e+01
4.375000e+01
5.000000e+01
5.625000e+01
6.250000e+01
6.875000e+01
7.500000e+01
8.125000e+01
8.750000e+01
9.375000e+01
1.000000e+02
1.062500e+02
1.125000e+02
1.187500e+02
1.250000e+02
1.312500e+02
1.375000e+02
1.437500e+02
1.500000e+02
1.562500e+02
1.625000e+02
1.687500e+02
1.750000e+02
1.812500e+02
1.875000e+02
1.937500e+02
2.000000e+02
0.000000e+00
6.250000e+00
1.250000e+01
1.875000e+01
2.500000e+01
3.125000e+01
3.750000e+01
4.375000e+01
5.000000e+01
5.625000e+01
6.250000e+01
6.875000e+01
7.500000e+01
8.125000e+01
8.750000e+01
9.375000e+01
1.000000e+02
1.062500e+02
1.125000e+02
1.187500e+02
1.250000e+02
1.312500e+02
1.375000e+02
1.437500e+02
1.500000e+02
1.562500e+02
1.625000e+02
1.687500e+02
1.750000e+02
1.812500e+02
1.875000e+02
1.937500e+02
2.000000e+02
0.000000e+00
6.250000e+00
1.250000e+01
1.875000e+01
2.500000e+01
3.125000e+01
3.750000e+01
4.375000e+01
5.000000e+01
5.625000e+01
6.250000e+01
6.875000e+01
7.500000e+01
8.125000e+01
8.750000e+01
9.375000e+01
1.000000e+02
1.062500e+02
1.125000e+02
1.187500e+02
1.250000e+02
1.312500e+02
1.375000e+02
1.437500e+02
1.500000e+02
1.562500e+02
1.625000e+02
1.687500e+02
1.750000e+02
1.812500e+02
1.875000e+02
1.937500e+02
2.000000e+02
0.000000e+00
6.250000e+00
1.250000e+01
1.875000e+01
2.500000e+01
3.125000e+01
3.750000e+01
4.375000e+01
5.000000e+01
5.625000e+01
6.250000e+01
6.875000e+01
7.500000e+01
8.125000e+01
8.750000e+01
9.375000e+01
1.000000e+02
1.062500e+02
1.125000e+02
1.187500e+02
1.250000e+02
1.312500e+02
1.375000e+02
1.437500e+02
1.500000e+02
1.562500e+02
1.625000e+02
1.687500e+02
1.750000e+02
1.812500e+02
1.875000e+02
1.937500e+02
2.000000e+02
0.000000e+00
6.250000e+00
1.250000e+01
1.875000e+01
2.500000e+01
3.125000e+01
3.750000e+01
4.375000e+01
5.000000e+01
5.625000e+01
6.250000e+01
6.875000e+01
7.500000e+01
8.125000e+01
8.750000e+01
9.375000e+01
1.000000e+02
1.062500e+02
1.125000e+02
1.187500e+02
1.250000e+02
1.312500e+02
1.375000e+02
1.437500e+02
1.500000e+02
1.562500e+02
1.625000e+02
1.687500e+02
1.750000e+02
1.812500e+02
1.875000e+02
1.937500e+02
2.000000e+02
0.000000e+00
6.250000e+00
1.250000e+01
1.875000e+01
2.500000e+01
3.125000e+01
3.750000e+01
4.375000e+01
5.000000e+01
5.625000e+01
6.250000e+01
6.875000e+01
7.500000e+01
8.125000e+01
8.750000e+01
9.375000e+01
1.000000e+02
1.062500e+02
1.125000e+02
1.187500e+02
1.250000e+02
1.312500e+02
1.375000e+02
1.437500e+02
1.500000e+02
1.562500e+02
1.625000e+02
1.687500e+02
1.750000e+02
1.812500e+02
1.875000e+02
1.937500e+02
2.000000e+02
0.000000e+00
6.250000e+00
1.250000e+01
1.875000e+01
2.500000e+01
3.125000e+01
3.750000e+01
4.375000e+01
5.000000e+01
5.625000e+01
6.250000e+01
6.875000e+01
7.500000e+01
8.125000e+01
8.750000e+01
9.375000e+01
1.000000e+02
1.062500e+02
1.125000e+02
1.187500e+02
1.250000e+02
1.312500e+02
1.375000e+02
1.437500e+02
1.500000e+02
1.562500e+02
1.625000e+02
1.687500e+02
1.750000e+02
1.812500e+02
1.875000e+02
1.937500e+02
2.000000e+02
0.000000e+00
6.250000e+00
1.250000e+01
1.875000e+01
2.500000e+01
3.125000e+01
3.750000e+01
4.375000e+01
5.000000e+01
5.625000e+01
6.250000e+01
6.875000e+01
7.500000e+01
8.125000e+01
8.750000e+01
9.375000e+01
1.000000e+02
1.062500e+02
1.125000e+02
1.187500e+02
1.250000e+02
1.312500e+02
1.375000e+02
1.437500e+02
1.500000e+02
1.562500e+02
1.625000e+02
1.687500e+02
1.750000e+02
1.812500e+02
1.875000e+02
1.937500e+02
2.000000e+02
0.000000e+00
6.250000e+00
1.250000e+01
1.875000e+01
2.500000e+01
3.125000e+01
3.750000e+01
4.375000e+01
5.000000e+01
5.625000e+01
6.250000e+01
6.875000e+01
7.500000e+01
8.125000e+01
8.750000e+01
9.375000e+01
1.000000e+02
1.062500e+02
1.125000e+02
1.187500e+02
1.250000e+02
1.312500e+02
1.375000e+02
1.437500e+02
1.500000e+02
1.562500e+02
1.625000e+02
1.687500e+02
1.750000e+02
1.812500e+02
1.875000e+02
1.937500e+02
2.000000e+02
0.000000e+00
6.250000e+00
1.250000e+01
1.875000e+01
2.500000e+01
3.125000e+01
3.750000e+01
4.375000e+01
5.000000e+01
5.625000e+01
6.250000e+01
6.875000e+01
7.500000e+01
8.125000e+01
8.750000e+01
9.375000e+01
1.000000e+02
1.062500e+02
1.125000e+02
1.187500e+02
1.250000e+02
1.312500e+02
1.375000e+02
1.437500e+02
1.500000e+02
1.562500e+02
1.625000e+02
1.687500e+02
1.750000e+02
1.812500e+02
1.875000e+02
1.937500e+02
2.000000e+02
0.000000e+00
6.250000e+00
1.250000e+01
1.875000e+01
2.500000e+01
3.125000e+01
3.750000e+01
4.375000e+01
5.000000e+01
5.625000e+01
6.250000e+01
6.875000e+01
7.500000e+01
8.125000e+01
8.750000e+01
9.375000e+01
1.000000e+02
1.062500e+02
1.125000e+02
1.187500e+02
1.250000e+02
1.312500e+02
1.375000e+02
1.437500e+02
1.500000e+02
1.562500e+02
1.625000e+02
1.687500e+02
1.750000e+02
1.812500e+02
1.875000e+02
1.937500e+02
2.000000e+02
0.000000e+00
6.250000e+00
1.250000e+01
1.875000e+01
2.500000e+01
3.125000e+01
3.750000e+01
4.375000e+01
5.000000e+01
5.625000e+01
6.250000e+01
6.875000e+01
7.500000e+01
8.125000e+01
8.750000e+01
9.375000e+01
1.000000e+02
1.062500e+02
1.125000e+02
1.187500e+02
1.250000e+02
1.312500e+02
1.375000e+02
1.437500e+02
1.500000e+02
1.562500e+02
1.625000e+02
1.687500e+02
1.750000e+02
1.812500e+02
1.875000e+02
1.937500e+02
2.000000e+02
0.000000e+00
6.250000e+00
1.250000e+01
1.875000e+01
2.500000e+01
3.125000e+01
3.750000e+01
4.375000e+01
5.000000e+01
5.625000e+01
6.250000e+01
6.875000e+01
7.500000e+01
8.125000e+01
8.750000e+01
9.375000e+01
1.000000e+02
1.062500e+02
1.125000e+02
1.187500e+02
1.250000e+02
1.312500e+02
1.375000e+02
1.437500e+02
1.500000e+02
1.562500e+02
1.625000e+02
1.687500e+02
1.750000e+02
1.812500e+02
1.875000e+02
1.937500e+02
2.000000e+02
0.000000e+00
6.250000e+00
1.250000e+01
1.875000e+01
2.500000e+01
3.125000e+01
3.750000e+01
4.375000e+01
5.000000e+01
5.625000e+01
6.250000e+01
6.875000e+01
7.500000e+01
8.125000e+01
8.750000e+01
9.375000e+01
1.000000e+02
1.062500e+02
1.125000e+02
1.187500e+02
1.250000e+02
1.312500e+02
1.375000e+02
1.437500e+02
1.500000e+02
1.562500e+02
1.625000e+02
1.687500e+02
1.750000e+02
1.812500e+02
1.875000e+02
1.937500e+02
2.000000e+02
0.000000e+00
6.250000e+00
1.250000e+01
1.875000e+01
2.500000e+01
3.125000e+01
3.750000e+01
4.375000e+01
5.000000e+01
5.625000e+01
6.250000e+01
6.875000e+01
7.500000e+01
8.125000e+01
8.750000e+01
9.375000e+01
1.000000e+02
1.062500e+02
1.125000e+02
1.187500e+02
1.250000e+02
1.312500e+02
1.375000e+02
1.437500e+02
1.500000e+02
1.562500e+02
1.625000e+02
1.687500e+02
1.750000e+02
1.812500e+02
1.875000e+02
1.937500e+02
2.000000e+02
0.000000e+00
6.250000e+00
1.250000e+01
1.875000e+01
2.500000e+01
3.125000e+01
3.750000e+01
4.375000e+01
5.000000e+01
5.625000e+01
6.250000e+01
6.875000e+01
7.500000e+01
8.125000e+01
8.750000e+01
9.375000e+01
1.000000e+02
1.062500e+02
1.125000e+02
1.187500e+02
1.250000e+02
1.312500e+02
1.375000e+02
1.437500e+02
1.500000e+02
1.562500e+02
1.625000e+02
1.687500e+02
1.750000e+02
1.812500e+02
1.875000e+02
1.937500e+02
2.000000e+02
0.000000e+00
6.250000e+00
1.250000e+01
1.875000e+01
2.500000e+01
3.125000e+01
3.750000e+01
4.375000e+01
5.000000e+01
5.625000e+01
6.250000e+01
6.875000e+01
7.500000e+01
8.125000e+01
8.750000e+01
9.375000e+01
1.000000e+02
1.062500e+02
1.125000e+02
1.187500e+02
1.250000e+02
1.312500e+02
1.375000e+02
1.437500e+02
1.500000e+02
1.562500e+02
1.625000e+02
1.687500e+02
1.750000e+02
1.812500e+02
1.875000e+02
1.937500e+02
2.000000e+02
0.000000e+00
0.000000e+00
0.000000e+00
0.000000e+00
0.000000e+00
0.000000e+00
0.000000e+00
0.000000e+00
0.000000e+00
0.000000e+00
0.000000e+00
0.000000e+00
0.000000e+00
0.000000e+00
0.000000e+00
0.000000e+00
0.000000e+00
0.000000e+00
0.000000e+00
0.000000e+00
0.000000e+00
0.000000e+00
0.000000e+00
0.000000e+00
0.000000e+00
0.000000e+00
0.000000e+00
0.000000e+00
0.000000e+00
0.000000e+00
0.000000e+00
0.000000e+00
0.000000e+00
6.250000e+00
6.250000e+00
6.250000e+00
6.250000e+00
6.250000e+00
6.250000e+00
6.250000e+00
6.250000e+00
6.250000e+00
6.250000e+00
6.250000e+00
6.250000e+00
6.250000e+00
6.250000e+00
6.250000e+00
6.250000e+00
6.250000e+00
6.250000e+00
6.250000e+00
6.250000e+00
6.250000e+00
6.250000e+00
6.250000e+00
6.250000e+00
6.250000e+00
6.250000e+00
6.250000e+00
6.250000e+00
6.250000e+00
6.250000e+00
6.250000e+00
6.250000e+00
6.250000e+00
1.250000e+01
1.250000e+01
1.250000e+01
1.250000e+01
1.250000e+01
1.250000e+01
1.250000e+01
1.250000e+01
1.250000e+01
1.250000e+01
1.250000e+01
1.250000e+01
1.250000e+01
1.250000e+01
1.250000e+01
1.250000e+01
1.250000e+01
1.250000e+01
1.250000e+01
1.250000e+01
1.250000e+01
1.250000e+01
1.250000e+01
1.250000e+01
1.250000e+01
1.250000e+01
1.250000e+01
1.250000e+01
1.250000e+01
1.250000e+01
1.250000e+01
1.250000e+01
1.250000e+01
1.875000e+01
1.875000e+01
1.875000e+01
1.875000e+01
1.875000e+01
1.875000e+01
1.875000e+01
1.875000e+01
1.875000e+01
1.875000e+01
1.875000e+01
1.875000e+01
1.875000e+01
1.875000e+01
1.875000e+01
1.875000e+01
1.875000e+01
1.875000e+01
1.875000e+01
1.875000e+01
1.875000e+01
1.875000e+01
1.875000e+01
1.875000e+01
1.875000e+01
1.875000e+01
1.875000e+01
1.875000e+01
1.875000e+01
1.875000e+01
1.875000e+01
1.875000e+01
1.875000e+01
2.500000e+01
2.500000e+01
2.500000e+01
2.500000e+01
2.500000e+01
2.500000e+01
2.500000e+01
2.500000e+01
2.500000e+01
2.500000e+01
2.500000e+01
2.500000e+01
2.500000e+01
2.500000e+01
2.500000e+01
2.500000e+01
2.500000e+01
2.500000e+01
2.500000e+01
2.500000e+01
2.500000e+01
2.500000e+01
2.500000e+01
2.500000e+01
2.500000e+01
2.500000e+01
2.500000e+01
2.500000e+01
2.500000e+01
2.500000e+01
2.500000e+01
2.500000e+01
2.500000e+01
3.125000e+01
3.125000e+01
3.125000e+01
3.125000e+01
3.125000e+01
3.125000e+01
3.125000e+01
3.125000e+01
3.125000e+01
3.125000e+01
3.125000e+01
3.125000e+01
3.125000e+01
3.125000e+01
3.125000e+01
3.125000e+01
3.125000e+01
3.125000e+01
3.125000e+01
3.125000e+01
3.125000e+01
3.125000e+01
3.125000e+01
3.125000e+01
3.125000e+01
3.125000e+01
3.125000e+01
3.125000e+01
3.125000e+01
3.125000e+01
3.125000e+01
3.125000e+01
3.125000e+01
3.750000e+01
3.750000e+01
3.750000e+01
3.750000e+01
3.750000e+01
3.750000e+01
3.750000e+01
3.750000e+01
3.750000e+01
3.750000e+01
3.750000e+01
3.750000e+01
3.750000e+01
3.750000e+01
3.750000e+01
3.750000e+01
3.750000e+01
3.750000e+01
3.750000e+01
3.750000e+01
3.750000e+01
3.750000e+01
3.750000e+01
3.750000e+01
3.750000e+01
3.750000e+01
3.750000e+01
3.750000e+01
3.750000e+01
3.750000e+01
3.750000e+01
3.750000e+01
3.750000e+01
4.375000e+01
4.375000e+01
4.375000e+01
4.375000e+01
4.375000e+01
4.375000e+01
4.375000e+01
4.375000e+01
4.375000e+01
4.375000e+01
4.375000e+01
4.375000e+01
4.375000e+01
4.375000e+01
4.375000e+01
4.375000e+01
4.375000e+01
4.375000e+01
4.375000e+01
4.375000e+01
4.375000e+01
4.375000e+01
4.375000e+01
4.375000e+01
4.375000e+01
4.375000e+01
4.375000e+01
4.375000e+01
4.375000e+01
4.375000e+01
4.375000e+01
4.375000e+01
4.375000e+01
5.000000e+01
5.000000e+01
5.000000e+01
5.000000e+01
5.000000e+01
5.000000e+01
5.000000e+01
5.000000e+01
5.000000e+01
5.000000e+01
5.000000e+01
5.000000e+01
5.000000e+01
5.000000e+01
5.000000e+01
5.000000e+01
5.000000e+01
5.000000e+01
5.000000e+01
5.000000e+01
5.000000e+01
5.000000e+01
5.000000e+01
5.000000e+01
5.000000e+01
5.000000e+01
5.000000e+01
5.000000e+01
5.000000e+01
5.000000e+01
5.000000e+01
5.000000e+01
5.000000e+01
5.625000e+01
5.625000e+01
5.625000e+01
5.625000e+01
5.625000e+01
5.625000e+01
5.625000e+01
5.625000e+01
5.625000e+01
5.625000e+01
5.625000e+01
5.625000e+01
5.625000e+01
5.625000e+01
5.625000e+01
5.625000e+01
5.625000e+01
5.625000e+01
5.625000e+01
5.625000e+01
5.625000e+01
5.625000e+01
5.625000e+01
5.625000e+01
5.625000e+01
5.625000e+01
5.625000e+01
5.625000e+01
5.625000e+01
5.625000e+01
5.625000e+01
5.625000e+01
5.625000e+01
6.250000e+01
6.250000e+01
6.250000e+01
6.250000e+01
6.250000e+01
6.250000e+01
6.250000e+01
6.250000e+01
6.250000e+01
6.250000e+01
6.250000e+01
6.250000e+01
6.250000e+01
6.250000e+01
6.250000e+01
6.250000e+01
6.250000e+01
6.250000e+01
6.250000e+01
6.250000e+01
6.250000e+01
6.250000e+01
6.250000e+01
6.250000e+01
6.250000e+01
6.250000e+01
6.250000e+01
6.250000e+01
6.250000e+01
6.250000e+01
6.250000e+01
6.250000e+01
6.250000e+01
6.875000e+01
6.875000e+01
6.875000e+01
6.875000e+01
6.875000e+01
6.875000e+01
6.875000e+01
6.875000e+01
6.875000e+01
6.875000e+01
6.875000e+01
6.875000e+01
6.875000e+01
6.875000e+01
6.875000e+01
6.875000e+01
6.875000e+01
6.875000e+01
6.875000e+01
6.875000e+01
6.875000e+01
6.875000e+01
6.875000e+01
6.875000e+01
6.875000e+01
6.875000e+01
6.875000e+01
6.875000e+01
6.875000e+01
6.875000e+01
6.875000e+01
6.875000e+01
6.875000e+01
7.500000e+01
7.500000e+01
7.500000e+01
7.500000e+01
7.500000e+01
7.500000e+01
7.500000e+01
7.500000e+01
7.500000e+01
7.500000e+01
7.500000e+01
7.500000e+01
7.500000e+01
7.500000e+01
7.500000e+01
7.500000e+01
7.500000e+01
7.500000e+01
7.500000e+01
7.500000e+01
7.500000e+01
7.500000e+01
7.500000e+01
7.500000e+01
7.500000e+01
7.500000e+01
7.500000e+01
7.500000e+01
7.500000e+01
7.500000e+01
7.500000e+01
7.500000e+01
7.500000e+01
8.125000e+01
8.125000e+01
8.125000e+01
8.125000e+01
8.125000e+01
8.125000e+01
8.125000e+01
8.125000e+01
8.125000e+01
8.125000e+01
8.125000e+01
8.125000e+01
8.125000e+01
8.125000e+01
8.125000e+01
8.125000e+01
8.125000e+01
8.125000e+01
8.125000e+01
8.125000e+01
8.125000e+01
8.125000e+01
8.125000e+01
8.125000e+01
8.125000e+01
8.125000e+01
8.125000e+01
8.125000e+01
8.125000e+01
8.125000e+01
8.125000e+01
8.125000e+01
8.125000e+01
8.750000e+01
8.750000e+01
8.750000e+01
8.750000e+01
8.750000e+01
8.750000e+01
8.750000e+01
8.750000e+01
8.750000e+01
8.750000e+01
8.750000e+01
8.750000e+01
8.750000e+01
8.750000e+01
8.750000e+01
8.750000e+01
8.750000e+01
8.750000e+01
8.750000e+01
8.750000e+01
8.750000e+01
8.750000e+01
8.750000e+01
8.750000e+01
8.750000e+01
8.750000e+01
8.750000e+01
8.750000e+01
8.750000e+01
8.750000e+01
8.750000e+01
8.750000e+01
8.750000e+01
9.375000e+01
9.375000e+01
9.375000e+01
9.375000e+01
9.375000e+01
9.375000e+01
9.375000e+01
9.375000e+01
9.375000e+01
9.375000e+01
9.375000e+01
9.375000e+01
9.375000e+01
9.375000e+01
9.375000e+01
9.375000e+01
9.375000e+01
9.375000e+01
9.375000e+01
9.375000e+01
9.375000e+01
9.375000e+01
9.375000e+01
9.375000e+01
9.375000e+01
9.375000e+01
9.375000e+01
9.375000e+01
9.375000e+01
9.375000e+01
9.375000e+01
9.375000e+01
9.375000e+01
1.000000e+02
1.000000e+02
1.000000e+02
1.000000e+02
1.000000e+02
1.000000e+02
1.000000e+02
1.000000e+02
1.000000e+02
1.000000e+02
1.000000e+02
1.000000e+02
1.000000e+02
1.000000e+02
1.000000e+02
1.000000e+02
1.000000e+02
1.000000e+02
1.000000e+02
1.000000e+02
1.000000e+02
1.000000e+02
1.000000e+02
1.000000e+02
1.000000e+02
1.000000e+02
1.000000e+02
1.000000e+02
1.000000e+02
1.000000e+02
1.000000e+02
1.000000e+02
1.000000e+02
0.000000e+00
-4.038391e-01
-7.135703e-01
-1.024367e+00
-1.334671e+00
-1.630686e+00
-1.933635e+00
-2.233894e+00
-2.530263e+00
-2.829100e+00
-3.126945e+00
-3.423550e+00
-3.720708e+00
-4.017453e+00
-4.313650e+00
-4.609787e+00
-4.905654e+00
-5.201220e+00
-5.496623e+00
-5.791863e+00
-6.087088e+00
-6.382588e+00
-6.678598e+00
-6.975592e+00
-7.274408e+00
-7.575824e+00
-7.880630e+00
-8.190830e+00
-8.511609e+00
-8.854040e+00
-9.227183e+00
-9.597248e+00
-9.799465e+00
0.000000e+00
-2.383951e-01
-4.902652e-01
-7.513025e-01
-1.018336e+00
-1.273747e+00
-1.536959e+00
-1.799139e+00
-2.058161e+00
-2.319525e+00
-2.580203e+00
-2.839766e+00
-3.099768e+00
-3.359389e+00
-3.618435e+00
-3.877298e+00
-4.135783e+00
-4.393812e+00
-4.651448e+00
-4.908618e+00
-5.165318e+00
-5.421570e+00
-5.677174e+00
-5.931855e+00
-6.185304e+00
-6.436701e+00
-6.684588e+00
-6.927507e+00
-7.163854e+00
-7.385281e+00
-7.555684e+00
-7.633495e+00
-7.731062e+00
0.000000e+00
-1.579555e-01
-3.313803e-01
-5.350495e-01
-7.504976e-01
-9.624008e-01
-1.184011e+00
-1.406640e+00
-1.628313e+00
-1.852477e+00
-2.076562e+00
-2.300191e+00
-2.524303e+00
-2.748183e+00
-2.971627e+00
-3.194800e+00
-3.417449e+00
-3.639392e+00
-3.860497e+00
-4.080478e+00
-4.298992e+00
-4.515548e+00
-4.729275e+00
-4.938943e+00
-5.142920e+00
-5.338846e+00
-5.523394e+00
-5.692026e+00
-5.837432e+00
-5.944151e+00
-5.984743e+00
-5.983767e+00
-6.072772e+00
0.000000e+00
-1.132556e-01
-2.347031e-01
-3.839572e-01
-5.453178e-01
-7.143337e-01
-8.937463e-01
-1.076135e+00
-1.260310e+00
-1.447237e+00
-1.634779e+00
-1.822645e+00
-2.011034e+00
-2.199279e+00
-2.387157e+00
-2.574554e+00
-2.761107e+00
-2.946489e+00
-3.130315e+00
-3.312020e+00
-3.490863e+00
-3.665826e+00
-3.835457e+00
-3.997814e+00
-4.150413e+00
-4.290049e+00
-4.412570e+00
-4.512523e+00
-4.582388e+00
-4.612611e+00
-4.605644e+00
-4.611544e+00
-4.689910e+00
0.000000e+00
-9.536402e-02
-1.916057e-01
-3.011814e-01
-4.204617e-01
-5.503203e-01
-6.876178e-01
-8.291535e-01
-9.744213e-01
-1.121923e+00
-1.270627e+00
-1.420205e+00
-1.570105e+00
-1.719910e+00
-1.869340e+00
-2.018026e+00
-2.165568e+00
-2.311505e+00
-2.455236e+00
-2.595973e+00
-2.732678e+00
-2.863991e+00
-2.988143e+00
-3.102911e+00
-3.205585e+00
-3.292949e+00
-3.361273e+00
-3.406527e+00
-3.425286e+00
-3.418337e+00
-3.404362e+00
-3.429427e+00
-3.507072e+00
0.000000e+00
-7.399872e-02
-1.489092e-01
-2.279442e-01
-3.147794e-01
-4.082654e-01
-5.074109e-01
-6.110505e-01
-7.177400e-01
-8.265432e-01
-9.367072e-01
-1.047594e+00
-1.158741e+00
-1.269750e+00
-1.380238e+00
-1.489808e+00
-1.598003e+00
-1.704256e+00
-1.807849e+00
-1.907851e+00
-2.003074e+00
-2.092026e+00
-2.172887e+00
-2.243508e+00
-2.301474e+00
-2.344226e+00
-2.369359e+00
-2.375416e+00
-2.363727e+00
-2.342402e+00
-2.335836e+00
-2.369545e+00
-2.446296e+00
0.000000e+00
-5.019384e-02
-1.007616e-01
-1.535829e-01
-2.101078e-01
-2.708559e-01
-3.353337e-01
-4.028568e-01
-4.726421e-01
-5.439433e-01
-6.161784e-01
-6.888595e-01
-7.615716e-01
-8.339560e-01
-9.056560e-01
-9.762805e-01
-1.045368e+00
-1.112339e+00
-1.176456e+00
-1.236777e+00
-1.292126e+00
-1.341081e+00
-1.381997e+00
-1.413077e+00
-1.432520e+00
-1.438797e+00
-1.431153e+00
-1.410610e+00
-1.381733e+00
-1.355969e+00
-1.354100e+00
-1.392213e+00
-1.466877e+00
0.000000e+00
-2.534213e-02
-5.089282e-02
-7.730753e-02
-1.052792e-01
-1.350846e-01
-1.666385e-01
-1.996128e-01
-2.336070e-01
-2.682267e-01
-3.031166e-01
-3.379666e-01
-3.724960e-01
-4.064345e-01
-4.394979e-01
-4.713602e-01
-5.016231e-01
-5.297822e-01
-5.551903e-01
-5.770271e-01
-5.942827e-01
-6.057717e-01
-6.101967e-01
-6.062843e-01
-5.930186e-01
-5.700123e-01
-5.380974e-01
-5.002373e-01
-4.628129e-01
-4.371538e-01
-4.390813e-01
-4.781552e-01
-5.487672e-01
0.000000e+00
-2.131463e-04
-3.309087e-04
-3.361813e-04
-1.995022e-04
1.185292e-04
6.655026e-04
1.496773e-03
2.676387e-03
4.278811e-03
6.391141e-03
9.115873e-03
1.257461e-02
1.691327e-02
2.230972e-02
2.898460e-02
3.721639e-02
4.736139e-02
5.987727e-02
7.534499e-02
9.447700e-02
1.180893e-01
1.470069e-01
1.818740e-01
2.228567e-01
2.692299e-01
3.188340e-01
3.674282e-01
4.081210e-01
4.311780e-01
4.262518e-01
3.890896e-01
3.267856e-01
0.000000e+00
2.490798e-02
5.020748e-02
7.658916e-02
1.048057e-01
1.352121e-01
1.678163e-01
2.023986e-01
2.386837e-01
2.764238e-01
3.154350e-01
3.556089e-01
3.969035e-01
4.393328e-01
4.829561e-01
5.278687e-01
5.741979e-01
6.221037e-01
6.717840e-01
7.234861e-01
7.775158e-01
8.342144e-01
8.938493e-01
9.563840e-01
1.021146e+00
1.086451e+00
1.149237e+00
1.204788e+00
1.246776e+00
1.267990e+00
1.262737e+00
1.230944e+00
1.181110e+00
0.000000e+00
4.973356e-02
1.000006e-01
1.527191e-01
2.094025e-01
2.706452e-01
3.360402e-01
4.050038e-01
4.768698e-01
5.510309e-01
6.270686e-01
7.046863e-01
7.836937e-01
8.639943e-01
9.455386e-01
1.028299e+00
1.112249e+00
1.197340e+00
1.283482e+00
1.370531e+00
1.458314e+00
1.546626e+00
1.635135e+00
1.723114e+00
1.809132e+00
1.890798e+00
1.964660e+00
2.026260e+00
2.070542e+00
2.092848e+00
2.090863e+00
2.067227e+00
2.031170e+00
0.000000e+00
7.348865e-02
1.480044e-01
2.268173e-01
3.136658e-01
4.074648e-01
5.072968e-01
6.120824e-01
7.204798e-01
8.316793e-01
9.450776e-01
1.060211e+00
1.176819e+00
1.294729e+00
1.413810e+00
1.533941e+00
1.654968e+00
1.776662e+00
1.898671e+00
2.020476e+00
2.141411e+00
2.260717e+00
2.377421e+00
2.490073e+00
2.596531e+00
2.693948e+00
2.778913e+00
2.847695e+00
2.896693e+00
2.923297e+00
2.927361e+00
2.912993e+00
2.889791e+00
0.000000e+00
9.475921e-02
1.904865e-01
2.996679e-01
4.187696e-01
5.486927e-01
6.863388e-01
8.285809e-01
9.749916e-01
1.124176e+00
1.275237e+00
1.427995e+00
1.582066e+00
1.737220e+00
1.893361e+00
2.050301e+00
2.207802e+00
2.365540e+00
2.522987e+00
2.679353e+00
2.833619e+00
2.984495e+00
3.130221e+00
3.268385e+00
3.396015e+00
3.509931e+00
3.607058e+00
3.684629e+00
3.740454e+00
3.773499e+00
3.784932e+00
3.779546e+00
3.767174e+00
0.000000e+00
1.125497e-01
2.333666e-01
3.821151e-01
5.431066e-01
7.119229e-01
8.913006e-01
1.073852e+00
1.258444e+00
1.446116e+00
1.634826e+00
1.824401e+00
2.015165e+00
2.206587e+00
2.398573e+00
2.591107e+00
2.783891e+00
2.976577e+00
3.168612e+00
3.359167e+00
3.547200e+00
3.731007e+00
3.907637e+00
4.073091e+00
4.223208e+00
4.354483e+00
4.464376e+00
4.551263e+00
4.614404e+00
4.654180e+00
4.672720e+00
4.675035e+00
4.670845e+00
0.000000e+00
1.574012e-01
3.303486e-01
5.336224e-01
7.487581e-01
9.603914e-01
1.181778e+00
1.404239e+00
1.625795e+00
1.849923e+00
2.074098e+00
2.297981e+00
2.522559e+00
2.747173e+00
2.971652e+00
3.196181e+00
3.420508e+00
3.644346e+00
3.867245e+00
4.088630e+00
4.307961e+00
4.523544e+00
4.731034e+00
4.924085e+00
5.096678e+00
5.244710e+00
5.366146e+00
5.460565e+00
5.528802e+00
5.572861e+00
5.596063e+00
5.603629e+00
5.604455e+00
0.000000e+00
2.382681e-01
4.900555e-01
7.510239e-01
1.017975e+00
1.273274e+00
1.536361e+00
1.798385e+00
2.057187e+00
2.318256e+00
2.578555e+00
2.837616e+00
3.096952e+00
3.355696e+00
3.613569e+00
3.870865e+00
4.127309e+00
4.382630e+00
4.636462e+00
4.888458e+00
5.138596e+00
5.385291e+00
5.622839e+00
5.842394e+00
6.035843e+00
6.198241e+00
6.327791e+00
6.425047e+00
6.492427e+00
6.534036e+00
6.555450e+00
6.563265e+00
6.565162e+00
0.000000e+00
4.043497e-01
7.144412e-01
1.025595e+00
1.336149e+00
1.632365e+00
1.935514e+00
2.235921e+00
2.532369e+00
2.831191e+00
3.128878e+00
3.425114e+00
3.721608e+00
4.017280e+00
4.311852e+00
4.605650e+00
4.898323e+00
5.189610e+00
5.479220e+00
5.766875e+00
6.052409e+00
6.333325e+00
6.601985e+00
6.847347e+00
7.059720e+00
7.233317e+00
7.366029e+00
7.458633e+00
7.514590e+00
7.540312e+00
7.545387e+00
7.541834e+00
7.539743e+00
0.000000e+00
-2.449461e-01
-4.774595e-01
-7.652213e-01
-1.089240e+00
-1.450862e+00
-1.853164e+00
-2.290900e+00
-2.765960e+00
-3.278937e+00
-3.828682e+00
-4.416027e+00
-5.041251e+00
-5.704123e+00
-6.404941e+00
-7.143888e+00
-7.920994e+00
-8.736412e+00
-9.590275e+00
-1.048268e+01
-1.141380e+01
-1.238381e+01
-1.339303e+01
-1.444220e+01
-1.553269e+01
-1.666689e+01
-1.784896e+01
-1.908589e+01
-2.038790e+01
-2.176990e+01
-2.327126e+01
-2.504058e+01
-2.749036e+01
0.000000e+00
-1.524997e-01
-3.969750e-01
-6.797982e-01
-1.005822e+00
-1.367729e+00
-1.768889e+00
-2.207496e+00
-2.682538e+00
-3.195189e+00
-3.745259e+00
-4.332657e+00
-4.957848e+00
-5.620880e+00
-6.321802e+00
-7.060831e+00
-7.838071e+00
-8.653621e+00
-9.507618e+00
-1.040017e+01
-1.133141e+01
-1.230154e+01
-1.331090e+01
-1.436017e+01
-1.545074e+01
-1.658510e+01
-1.776739e+01
-1.900443e+01
-2.030696e+01
-2.169314e+01
-2.320604e+01
-2.494848e+01
-2.715873e+01
0.000000e+00
-1.186278e-01
-3.373911e-01
-6.156936e-01
-9.388055e-01
-1.298792e+00
-1.698506e+00
-2.136541e+00
-2.611048e+00
-3.123348e+00
-3.673334e+00
-4.260670e+00
-4.885864e+00
-5.549001e+00
-6.250077e+00
-6.989312e+00
-7.766829e+00
-8.582727e+00
-9.437160e+00
-1.033025e+01
-1.126217e+01
-1.223318e+01
-1.324370e+01
-1.429446e+01
-1.538695e+01
-1.652378e+01
-1.770932e+01
-1.895098e+01
-2.026213e+01
-2.166733e+01
-2.319430e+01
-2.483489e+01
-2.656615e+01
0.000000e+00
-1.176420e-01
-3.134597e-01
-5.786308e-01
-8.929378e-01
-1.247628e+00
-1.644051e+00
-2.079604e+00
-2.552641e+00
-3.064038e+00
-3.613416e+00
-4.200480e+00
-4.825609e+00
-5.488839e+00
-6.190186e+00
-6.929843e+00
-7.707942e+00
-8.524611e+00
-9.380033e+00
-1.027439e+01
-1.120790e+01
-1.218095e+01
-1.319401e+01
-1.424792e+01
-1.534421e+01
-1.648551e+01
-1.767631e+01
-1.892453e+01
-2.024459e+01
-2.165921e+01
-2.316460e+01
-2.467674e+01
-2.607102e+01
0.000000e+00
-1.300387e-01
-3.166426e-01
-5.677044e-01
-8.694384e-01
-1.216375e+00
-1.606891e+00
-2.038031e+00
-2.508536e+00
-3.018171e+00
-3.566402e+00
-4.152975e+00
-4.777950e+00
-5.441318e+00
-6.143114e+00
-6.883475e+00
-7.662546e+00
-8.480499e+00
-9.337555e+00
-1.023396e+01
-1.117002e+01
-1.214615e+01
-1.316289e+01
-1.422106e+01
-1.532205e+01
-1.646823e+01
-1.766361e+01
-1.891513e+01
-2.023461e+01
-2.163400e+01
-2.308429e+01
-2.447305e+01
-2.570425e+01
0.000000e+00
-1.358110e-01
-3.228063e-01
-5.645567e-01
-8.576893e-01
-1.197608e+00
-1.582252e+00
-2.009200e+00
-2.476904e+00
-2.984647e+00
-3.531737e+00
-4.117793e+00
-4.742686e+00
-5.406333e+00
-6.108759e+00
-6.850078e+00
-7.630453e+00
-8.450104e+00
-9.309302e+00
-1.020836e+01
-1.114762e+01
-1.212749e+01
-1.314845e+01
-1.421114e+01
-1.531654e+01
-1.646632e+01
-1.766311e+01
-1.891111e+01
-2.021638e+01
-2.157984e+01
-2.295410e+01
-2.424501e+01
-2.537195e+01
0.000000e+00
-1.383636e-01
-3.258295e-01
-5.638675e-01
-8.515599e-01
-1.186672e+00
-1.566990e+00
-1.990639e+00
-2.456108e+00
-2.962331e+00
-3.508558e+00
-4.094295e+00
-4.719267e+00
-5.383354e+00
-6.086561e+00
-6.828999e+00
-7.610865e+00
-8.432427e+00
-9.294007e+00
-1.019596e+01
-1.113863e+01
-1.212237e+01
-1.314744e+01
-1.421409e+01
-1.532263e+01
-1.647354e+01
-1.766739e+01
-1.890464e+01
-2.018492e+01
-2.149961e+01
-2.280066e+01
-2.401152e+01
-2.506266e+01
0.000000e+00
-1.395410e-01
-3.271942e-01
-5.637488e-01
-8.488594e-01
-1.181201e+00
-1.559073e+00
-1.980795e+00
-2.444928e+00
-2.950335e+00
-3.496187e+00
-4.081926e+00
-4.707215e+00
-5.371904e+00
-6.075992e+00
-6.819607e+00
-7.602978e+00
-8.426421e+00
-9.290304e+00
-1.019500e+01
-1.114084e+01
-1.212801e+01
-1.315649e+01
-1.422596e+01
-1.533579e+01
-1.648494e+01
-1.767165e+01
-1.889266e+01
-2.014184e+01
-2.140440e+01
-2.263799e+01
-2.378136e+01
-2.477371e+01
0.000000e+00
-1.399627e-01
-3.277606e-01
-5.640124e-01
-8.484809e-01
-1.180103e+00
-1.557360e+00
-1.978669e+00
-2.442613e+00
-2.948050e+00
-3.494133e+00
-4.080283e+00
-4.706154e+00
-5.371591e+00
-6.076605e+00
-6.821341e+00
-7.606063e+00
-8.431124e+00
-9.296926e+00
-1.020386e+01
-1.115219e+01
-1.214195e+01
-1.317273e+01
-1.424356e+01
-1.535270e+01
-1.649746e+01
-1.767377e+01
-1.887523e+01
-2.009157e+01
-2.130453e+01
-2.247845e+01
-2.356504e+01
-2.451421e+01
0.000000e+00
-1.398069e-01
-3.277424e-01
-5.646290e-01
-8.501465e-01
-1.182985e+00
-1.561454e+00
-1.983882e+00
-2.448836e+00
-2.955191e+00
-3.502130e+00
-4.089108e+00
-4.715808e+00
-5.382101e+00
-6.088020e+00
-6.833729e+00
-7.619509e+00
-8.445736e+00
-9.312830e+00
-1.022118e+01
-1.117103e+01
-1.216224e+01
-1.319406e+01
-1.426479e+01
-1.537151e+01
-1.650989e+01
-1.767379e+01
-1.885447e+01
-2.003932e+01
-2.120922e+01
-2.233473e+01
-2.337857e+01
-2.430205e+01
0.000000e+00
-1.388690e-01
-3.268731e-01
-5.655543e-01
-8.540413e-01
-1.190126e+00
-1.571612e+00
-1.996639e+00
-2.463713e+00
-2.971786e+00
-3.520132e+00
-4.108283e+00
-4.735998e+00
-5.403197e+00
-6.109937e+00
-6.856396e+00
-7.642857e+00
-8.469689e+00
-9.337306e+00
-1.024610e+01
-1.119630e+01
-1.218774e+01
-1.321937e+01
-1.428877e+01
-1.539184e+01
-1.652267e+01
-1.767345e+01
-1.883394e+01
-1.999071e+01
-2.112579e+01
-2.221537e+01
-2.323141e+01
-2.414500e+01
0.000000e+00
-1.364983e-01
-3.242333e-01
-5.669013e-01
-8.611788e-01
-1.202501e+00
-1.588832e+00
-2.017764e+00
-2.487775e+00
-2.998178e+00
-3.548310e+00
-4.137828e+00
-4.766644e+00
-5.434722e+00
-6.142144e+00
-6.889098e+00
-7.675845e+00
-8.502718e+00
-9.370091e+00
-1.027833e+01
-1.122775e+01
-1.221827e+01
-1.324870e+01
-1.431591e+01
-1.541462e+01
-1.653752e+01
-1.767552e+01
-1.881768e+01
-1.995079e+01
-2.105896e+01
-2.212351e+01
-2.312409e+01
-2.404008e+01
0.000000e+00
-1.308129e-01
-3.182705e-01
-5.704832e-01
-8.736619e-01
-1.222358e+00
-1.614997e+00
-2.048624e+00
-2.522012e+00
-3.034976e+00
-3.587010e+00
-4.177902e+00
-4.807762e+00
-5.476617e+00
-6.184549e+00
-6.931754e+00
-7.718456e+00
-8.544934e+00
-9.411472e+00
-1.031837e+01
-1.126608e+01
-1.225481e+01
-1.328331e+01
-1.434777e+01
-1.544173e+01
-1.655675e+01
-1.768296e+01
-1.880919e+01
-1.992300e+01
-2.101079e+01
-2.205839e+01
-2.305213e+01
-2.397933e+01
0.000000e+00
-1.183461e-01
-3.150611e-01
-5.815584e-01
-8.975358e-01
-1.254240e+00
-1.653093e+00
-2.091483e+00
-2.567801e+00
-3.082997e+00
-3.636716e+00
-4.228706e+00
-4.859403e+00
-5.528862e+00
-6.237122e+00
-6.984406e+00
-7.770886e+00
-8.596769e+00
-9.462232e+00
-1.036747e+01
-1.131306e+01
-1.229951e+01
-1.332550e+01
-1.438656e+01
-1.547528e+01
-1.658247e+01
-1.769790e+01
-1.881056e+01
-1.990886e+01
-2.098118e+01
-2.201712e+01
-2.300896e+01
-2.395242e+01
0.000000e+00
-1.191313e-01
-3.388431e-01
-6.185446e-01
-9.434471e-01
-1.305561e+00
-1.707833e+00
-2.148864e+00
-2.626832e+00
-3.143152e+00
-3.697744e+00
-4.290313e+00
-4.921429e+00
-5.591186e+00
-6.299582e+00
-7.046837e+00
-7.833073e+00
-8.658410e+00
-9.522948e+00
-1.042681e+01
-1.137056e+01
-1.235467e+01
-1.337755e+01
-1.443418e+01
-1.551667e+01
-1.661563e+01
-1.772095e+01
-1.882196e+01
-1.990778e+01
-2.096824e+01
-2.199564e+01
-2.298717e+01
-2.394729e+01
0.000000e+00
-1.528862e-01
-3.983475e-01
-6.825874e-01
-1.010432e+00
-1.374504e+00
-1.778249e+00
-2.219888e+00
-2.698436e+00
-3.215157e+00
-3.769897e+00
-4.362603e+00
-4.993796e+00
-5.663530e+00
-6.371845e+00
-7.118942e+00
-7.904894e+00
-8.729756e+00
-9.593603e+00
-1.049660e+01
-1.143915e+01
-1.242117e+01
-1.344031e+01
-1.449111e+01
-1.556582e+01
-1.665555e+01
-1.775072e+01
-1.884118e+01
-1.991666e+01
-2.096788e+01
-2.198867e+01
-2.297926e+01
-2.395091e+01
0.000000e+00
-2.453983e-01
-4.788675e-01
-7.680484e-01
-1.093870e+00
-1.457661e+00
-1.862547e+00
-2.303304e+00
-2.781858e+00
-3.298885e+00
-3.853270e+00
-4.445879e+00
-5.077040e+00
-5.746521e+00
-6.454601e+00
-7.201448e+00
-7.987045e+00
-8.811443e+00
-9.674707e+00
-1.057709e+01
-1.151879e+01
-1.249870e+01
-1.351317e+01