TITLE = "Solution"
VARIABLES = x, y, u, v, psiu, psiv, t, stress
ZONE T="structure" N=561 E=512 F=FEBLOCK ET=QUADRILATERAL VARLOCATION=([7,8]=cellcentered)
0.000000e+00
6.250000e+00
1.250000e+01
1.875000e+01
2.500000e+01
3.125000e+01
3.750000e+01
4.375000e+01
5.000000e+01
5.625000e+01
6.250000e+01
6.875000e+01
7.500000e+01
8.125000e+01
8.750000e+01
9.375000e+01
1.000000e+02
1.062500e+02
1.125000e+02
1.187500e+02
1.250000e+02
1.312500e+02
1.375000e+02
1.437500e+02
1.500000e+02
1.562500e+02
1.625000e+02
1.687500e+02
1.750000e+02
1.812500e+02
1.875000e+02
1.937500e+02
2.000000e+02
0.000000e+00
6.250000e+00
1.250000e+01
1.875000e+01
2.500000e+01
3.125000e+01
3.750000e+01
4.375000e+01
5.000000e+01
5.625000e+01
6.250000e+01
6.875000e+01
7.500000e+01
8.125000e+01
8.750000e+01
9.375000e+01
1.000000e+02
1.062500e+02
1.125000e+02
1.187500e+02
1.250000e+02
1.312500e+02
1.375000e+02
1.437500e+02
1.500000e+02
1.562500e+02
1.625000e+02
1.687500e+02
1.750000e+02
1.812500e+02
1.875000e+02
1.937500e+02
2.000000e+02
0.000000e+00
6.250000e+00
1.250000e+01
1.875000e+01
2.500000e+01
3.125000e+01
3.750000e+01
4.375000e+01
5.000000e+01
5.625000e+01
6.250000e+01
6.875000e+01
7.500000e+01
8.125000e+01
8.750000e+01
9.375000e+01
1.000000e+02
1.062500e+02
1.125000e+02
1.187500e+02
1.250000e+02
1.312500e+02
1.375000e+02
1.437500e+02
1.500000e+02
1.562500e+02
1.625000e+02
1.687500e+02
1.750000e+02
1.812500e+02
1.875000e+02
1.937500e+02
2.000000e+02
0.000000e+00
6.250000e+00
1.250000e+01
1.875000e+01
2.500000e+01
3.125000e+01
3.750000e+01
4.375000e+01
5.000000e+01
5.625000e+01
6.250000e+01
6.875000e+01
7.500000e+01
8.125000e+01
8.750000e+01
9.375000e+01
1.000000e+02
1.062500e+02
1.125000e+02
1.187500e+02
1.250000e+02
1.312500e+02
1.375000e+02
1.437500e+02
1.500000e+02
1.562500e+02
1.625000e+02
1.687500e+02
1.750000e+02
1.812500e+02
1.875000e+02
1.937500e+02
2.000000e+02
0.000000e+00
6.250000e+00
1.250000e+01
1.875000e+01
2.500000e+01
3.125000e+01
3.750000e+01
4.375000e+01
5.000000e+01
5.625000e+01
6.250000e+01
6.875000e+01
7.500000e+01
8.125000e+01
8.750000e+01
9.375000e+01
1.000000e+02
1.062500e+02
1.125000e+02
1.187500e+02
1.250000e+02
1.312500e+02
1.375000e+02
1.437500e+02
1.500000e+02
1.562500e+02
1.625000e+02
1.687500e+02
1.750000e+02
1.812500e+02
1.875000e+02
1.937500e+02
2.000000e+02
0.000000e+00
6.250000e+00
1.250000e+01
1.875000e+01
2.500000e+01
3.125000e+01
3.750000e+01
4.375000e+01
5.000000e+01
5.625000e+01
6.250000e+01
6.875000e+01
7.500000e+01
8.125000e+01
8.750000e+01
9.375000e+01
1.000000e+02
1.062500e+02
1.125000e+02
1.187500e+02
1.250000e+02
1.312500e+02
1.375000e+02
1.437500e+02
1.500000e+02
1.562500e+02
1.625000e+02
1.687500e+02
1.750000e+02
1.812500e+02
1.875000e+02
1.937500e+02
2.000000e+02
0.000000e+00
6.250000e+00
1.250000e+01
1.875000e+01
2.500000e+01
3.125000e+01
3.750000e+01
4.375000e+01
5.000000e+01
5.625000e+01
6.250000e+01
6.875000e+01
7.500000e+01
8.125000e+01
8.750000e+01
9.375000e+01
1.000000e+02
1.062500e+02
1.125000e+02
1.187500e+02
1.250000e+02
1.312500e+02
1.375000e+02
1.437500e+02
1.500000e+02
1.562500e+02
1.625000e+02
1.687500e+02
1.750000e+02
1.812500e+02
1.875000e+02
1.937500e+02
2.000000e+02
0.000000e+00
6.250000e+00
1.250000e+01
1.875000e+01
2.500000e+01
3.125000e+01
3.750000e+01
4.375000e+01
5.000000e+01
5.625000e+01
6.250000e+01
6.875000e+01
7.500000e+01
8.125000e+01
8.750000e+01
9.375000e+01
1.000000e+02
1.062500e+02
1.125000e+02
1.187500e+02
1.250000e+02
1.312500e+02
1.375000e+02
1.437500e+02
1.500000e+02
1.562500e+02
1.625000e+02
1.687500e+02
1.750000e+02
1.812500e+02
1.875000e+02
1.937500e+02
2.000000e+02
0.000000e+00
6.250000e+00
1.250000e+01
1.875000e+01
2.500000e+01
3.125000e+01
3.750000e+01
4.375000e+01
5.000000e+01
5.625000e+01
6.250000e+01
6.875000e+01
7.500000e+01
8.125000e+01
8.750000e+01
9.375000e+01
1.000000e+02
1.062500e+02
1.125000e+02
1.187500e+02
1.250000e+02
1.312500e+02
1.375000e+02
1.437500e+02
1.500000e+02
1.562500e+02
1.625000e+02
1.687500e+02
1.750000e+02
1.812500e+02
1.875000e+02
1.937500e+02
2.000000e+02
0.000000e+00
6.250000e+00
1.250000e+01
1.875000e+01
2.500000e+01
3.125000e+01
3.750000e+01
4.375000e+01
5.000000e+01
5.625000e+01
6.250000e+01
6.875000e+01
7.500000e+01
8.125000e+01
8.750000e+01
9.375000e+01
1.000000e+02
1.062500e+02
1.125000e+02
1.187500e+02
1.250000e+02
1.312500e+02
1.375000e+02
1.437500e+02
1.500000e+02
1.562500e+02
1.625000e+02
1.687500e+02
1.750000e+02
1.812500e+02
1.875000e+02
1.937500e+02
2.000000e+02
0.000000e+00
6.250000e+00
1.250000e+01
1.875000e+01
2.500000e+01
3.125000e+01
3.750000e+01
4.375000e+01
5.000000e+01
5.625000e+01
6.250000e+01
6.875000e+01
7.500000e+01
8.125000e+01
8.750000e+01
9.375000e+01
1.000000e+02
1.062500e+02
1.125000e+02
1.187500e+02
1.250000e+02
1.312500e+02
1.375000e+02
1.437500e+02
1.500000e+02
1.562500e+02
1.625000e+02
1.687500e+02
1.750000e+02
1.812500e+02
1.875000e+02
1.937500e+02
2.000000e+02
0.000000e+00
6.250000e+00
1.250000e+01
1.875000e+01
2.500000e+01
3.125000e+01
3.750000e+01
4.375000e+01
5.000000e+01
5.625000e+01
6.250000e+01
6.875000e+01
7.500000e+01
8.125000e+01
8.750000e+01
9.375000e+01
1.000000e+02
1.062500e+02
1.125000e+02
1.187500e+02
1.250000e+02
1.312500e+02
1.375000e+02
1.437500e+02
1.500000e+02
1.562500e+02
1.625000e+02
1.687500e+02
1.750000e+02
1.812500e+02
1.875000e+02
1.937500e+02
2.000000e+02
0.000000e+00
6.250000e+00
1.250000e+01
1.875000e+01
2.500000e+01
3.125000e+01
3.750000e+01
4.375000e+01
5.000000e+01
5.625000e+01
6.250000e+01
6.875000e+01
7.500000e+01
8.125000e+01
8.750000e+01
9.375000e+01
1.000000e+02
1.062500e+02
1.125000e+02
1.187500e+02
1.250000e+02
1.312500e+02
1.375000e+02
1.437500e+02
1.500000e+02
1.562500e+02
1.625000e+02
1.687500e+02
1.750000e+02
1.812500e+02
1.875000e+02
1.937500e+02
2.000000e+02
0.000000e+00
6.250000e+00
1.250000e+01
1.875000e+01
2.500000e+01
3.125000e+01
3.750000e+01
4.375000e+01
5.000000e+01
5.625000e+01
6.250000e+01
6.875000e+01
7.500000e+01
8.125000e+01
8.750000e+01
9.375000e+01
1.000000e+02
1.062500e+02
1.125000e+02
1.187500e+02
1.250000e+02
1.312500e+02
1.375000e+02
1.437500e+02
1.500000e+02
1.562500e+02
1.625000e+02
1.687500e+02
1.750000e+02
1.812500e+02
1.875000e+02
1.937500e+02
2.000000e+02
0.000000e+00
6.250000e+00
1.250000e+01
1.875000e+01
2.500000e+01
3.125000e+01
3.750000e+01
4.375000e+01
5.000000e+01
5.625000e+01
6.250000e+01
6.875000e+01
7.500000e+01
8.125000e+01
8.750000e+01
9.375000e+01
1.000000e+02
1.062500e+02
1.125000e+02
1.187500e+02
1.250000e+02
1.312500e+02
1.375000e+02
1.437500e+02
1.500000e+02
1.562500e+02
1.625000e+02
1.687500e+02
1.750000e+02
1.812500e+02
1.875000e+02
1.937500e+02
2.000000e+02
0.000000e+00
6.250000e+00
1.250000e+01
1.875000e+01
2.500000e+01
3.125000e+01
3.750000e+01
4.375000e+01
5.000000e+01
5.625000e+01
6.250000e+01
6.875000e+01
7.500000e+01
8.125000e+01
8.750000e+01
9.375000e+01
1.000000e+02
1.062500e+02
1.125000e+02
1.187500e+02
1.250000e+02
1.312500e+02
1.375000e+02
1.437500e+02
1.500000e+02
1.562500e+02
1.625000e+02
1.687500e+02
1.750000e+02
1.812500e+02
1.875000e+02
1.937500e+02
2.000000e+02
0.000000e+00
6.250000e+00
1.250000e+01
1.875000e+01
2.500000e+01
3.125000e+01
3.750000e+01
4.375000e+01
5.000000e+01
5.625000e+01
6.250000e+01
6.875000e+01
7.500000e+01
8.125000e+01
8.750000e+01
9.375000e+01
1.000000e+02
1.062500e+02
1.125000e+02
1.187500e+02
1.250000e+02
1.312500e+02
1.375000e+02
1.437500e+02
1.500000e+02
1.562500e+02
1.625000e+02
1.687500e+02
1.750000e+02
1.812500e+02
1.875000e+02
1.937500e+02
2.000000e+02
0.000000e+00
0.000000e+00
0.000000e+00
0.000000e+00
0.000000e+00
0.000000e+00
0.000000e+00
0.000000e+00
0.000000e+00
0.000000e+00
0.000000e+00
0.000000e+00
0.000000e+00
0.000000e+00
0.000000e+00
0.000000e+00
0.000000e+00
0.000000e+00
0.000000e+00
0.000000e+00
0.000000e+00
0.000000e+00
0.000000e+00
0.000000e+00
0.000000e+00
0.000000e+00
0.000000e+00
0.000000e+00
0.000000e+00
0.000000e+00
0.000000e+00
0.000000e+00
0.000000e+00
6.250000e+00
6.250000e+00
6.250000e+00
6.250000e+00
6.250000e+00
6.250000e+00
6.250000e+00
6.250000e+00
6.250000e+00
6.250000e+00
6.250000e+00
6.250000e+00
6.250000e+00
6.250000e+00
6.250000e+00
6.250000e+00
6.250000e+00
6.250000e+00
6.250000e+00
6.250000e+00
6.250000e+00
6.250000e+00
6.250000e+00
6.250000e+00
6.250000e+00
6.250000e+00
6.250000e+00
6.250000e+00
6.250000e+00
6.250000e+00
6.250000e+00
6.250000e+00
6.250000e+00
1.250000e+01
1.250000e+01
1.250000e+01
1.250000e+01
1.250000e+01
1.250000e+01
1.250000e+01
1.250000e+01
1.250000e+01
1.250000e+01
1.250000e+01
1.250000e+01
1.250000e+01
1.250000e+01
1.250000e+01
1.250000e+01
1.250000e+01
1.250000e+01
1.250000e+01
1.250000e+01
1.250000e+01
1.250000e+01
1.250000e+01
1.250000e+01
1.250000e+01
1.250000e+01
1.250000e+01
1.250000e+01
1.250000e+01
1.250000e+01
1.250000e+01
1.250000e+01
1.250000e+01
1.875000e+01
1.875000e+01
1.875000e+01
1.875000e+01
1.875000e+01
1.875000e+01
1.875000e+01
1.875000e+01
1.875000e+01
1.875000e+01
1.875000e+01
1.875000e+01
1.875000e+01
1.875000e+01
1.875000e+01
1.875000e+01
1.875000e+01
1.875000e+01
1.875000e+01
1.875000e+01
1.875000e+01
1.875000e+01
1.875000e+01
1.875000e+01
1.875000e+01
1.875000e+01
1.875000e+01
1.875000e+01
1.875000e+01
1.875000e+01
1.875000e+01
1.875000e+01
1.875000e+01
2.500000e+01
2.500000e+01
2.500000e+01
2.500000e+01
2.500000e+01
2.500000e+01
2.500000e+01
2.500000e+01
2.500000e+01
2.500000e+01
2.500000e+01
2.500000e+01
2.500000e+01
2.500000e+01
2.500000e+01
2.500000e+01
2.500000e+01
2.500000e+01
2.500000e+01
2.500000e+01
2.500000e+01
2.500000e+01
2.500000e+01
2.500000e+01
2.500000e+01
2.500000e+01
2.500000e+01
2.500000e+01
2.500000e+01
2.500000e+01
2.500000e+01
2.500000e+01
2.500000e+01
3.125000e+01
3.125000e+01
3.125000e+01
3.125000e+01
3.125000e+01
3.125000e+01
3.125000e+01
3.125000e+01
3.125000e+01
3.125000e+01
3.125000e+01
3.125000e+01
3.125000e+01
3.125000e+01
3.125000e+01
3.125000e+01
3.125000e+01
3.125000e+01
3.125000e+01
3.125000e+01
3.125000e+01
3.125000e+01
3.125000e+01
3.125000e+01
3.125000e+01
3.125000e+01
3.125000e+01
3.125000e+01
3.125000e+01
3.125000e+01
3.125000e+01
3.125000e+01
3.125000e+01
3.750000e+01
3.750000e+01
3.750000e+01
3.750000e+01
3.750000e+01
3.750000e+01
3.750000e+01
3.750000e+01
3.750000e+01
3.750000e+01
3.750000e+01
3.750000e+01
3.750000e+01
3.750000e+01
3.750000e+01
3.750000e+01
3.750000e+01
3.750000e+01
3.750000e+01
3.750000e+01
3.750000e+01
3.750000e+01
3.750000e+01
3.750000e+01
3.750000e+01
3.750000e+01
3.750000e+01
3.750000e+01
3.750000e+01
3.750000e+01
3.750000e+01
3.750000e+01
3.750000e+01
4.375000e+01
4.375000e+01
4.375000e+01
4.375000e+01
4.375000e+01
4.375000e+01
4.375000e+01
4.375000e+01
4.375000e+01
4.375000e+01
4.375000e+01
4.375000e+01
4.375000e+01
4.375000e+01
4.375000e+01
4.375000e+01
4.375000e+01
4.375000e+01
4.375000e+01
4.375000e+01
4.375000e+01
4.375000e+01
4.375000e+01
4.375000e+01
4.375000e+01
4.375000e+01
4.375000e+01
4.375000e+01
4.375000e+01
4.375000e+01
4.375000e+01
4.375000e+01
4.375000e+01
5.000000e+01
5.000000e+01
5.000000e+01
5.000000e+01
5.000000e+01
5.000000e+01
5.000000e+01
5.000000e+01
5.000000e+01
5.000000e+01
5.000000e+01
5.000000e+01
5.000000e+01
5.000000e+01
5.000000e+01
5.000000e+01
5.000000e+01
5.000000e+01
5.000000e+01
5.000000e+01
5.000000e+01
5.000000e+01
5.000000e+01
5.000000e+01
5.000000e+01
5.000000e+01
5.000000e+01
5.000000e+01
5.000000e+01
5.000000e+01
5.000000e+01
5.000000e+01
5.000000e+01
5.625000e+01
5.625000e+01
5.625000e+01
5.625000e+01
5.625000e+01
5.625000e+01
5.625000e+01
5.625000e+01
5.625000e+01
5.625000e+01
5.625000e+01
5.625000e+01
5.625000e+01
5.625000e+01
5.625000e+01
5.625000e+01
5.625000e+01
5.625000e+01
5.625000e+01
5.625000e+01
5.625000e+01
5.625000e+01
5.625000e+01
5.625000e+01
5.625000e+01
5.625000e+01
5.625000e+01
5.625000e+01
5.625000e+01
5.625000e+01
5.625000e+01
5.625000e+01
5.625000e+01
6.250000e+01
6.250000e+01
6.250000e+01
6.250000e+01
6.250000e+01
6.250000e+01
6.250000e+01
6.250000e+01
6.250000e+01
6.250000e+01
6.250000e+01
6.250000e+01
6.250000e+01
6.250000e+01
6.250000e+01
6.250000e+01
6.250000e+01
6.250000e+01
6.250000e+01
6.250000e+01
6.250000e+01
6.250000e+01
6.250000e+01
6.250000e+01
6.250000e+01
6.250000e+01
6.250000e+01
6.250000e+01
6.250000e+01
6.250000e+01
6.250000e+01
6.250000e+01
6.250000e+01
6.875000e+01
6.875000e+01
6.875000e+01
6.875000e+01
6.875000e+01
6.875000e+01
6.875000e+01
6.875000e+01
6.875000e+01
6.875000e+01
6.875000e+01
6.875000e+01
6.875000e+01
6.875000e+01
6.875000e+01
6.875000e+01
6.875000e+01
6.875000e+01
6.875000e+01
6.875000e+01
6.875000e+01
6.875000e+01
6.875000e+01
6.875000e+01
6.875000e+01
6.875000e+01
6.875000e+01
6.875000e+01
6.875000e+01
6.875000e+01
6.875000e+01
6.875000e+01
6.875000e+01
7.500000e+01
7.500000e+01
7.500000e+01
7.500000e+01
7.500000e+01
7.500000e+01
7.500000e+01
7.500000e+01
7.500000e+01
7.500000e+01
7.500000e+01
7.500000e+01
7.500000e+01
7.500000e+01
7.500000e+01
7.500000e+01
7.500000e+01
7.500000e+01
7.500000e+01
7.500000e+01
7.500000e+01
7.500000e+01
7.500000e+01
7.500000e+01
7.500000e+01
7.500000e+01
7.500000e+01
7.500000e+01
7.500000e+01
7.500000e+01
7.500000e+01
7.500000e+01
7.500000e+01
8.125000e+01
8.125000e+01
8.125000e+01
8.125000e+01
8.125000e+01
8.125000e+01
8.125000e+01
8.125000e+01
8.125000e+01
8.125000e+01
8.125000e+01
8.125000e+01
8.125000e+01
8.125000e+01
8.125000e+01
8.125000e+01
8.125000e+01
8.125000e+01
8.125000e+01
8.125000e+01
8.125000e+01
8.125000e+01
8.125000e+01
8.125000e+01
8.125000e+01
8.125000e+01
8.125000e+01
8.125000e+01
8.125000e+01
8.125000e+01
8.125000e+01
8.125000e+01
8.125000e+01
8.750000e+01
8.750000e+01
8.750000e+01
8.750000e+01
8.750000e+01
8.750000e+01
8.750000e+01
8.750000e+01
8.750000e+01
8.750000e+01
8.750000e+01
8.750000e+01
8.750000e+01
8.750000e+01
8.750000e+01
8.750000e+01
8.750000e+01
8.750000e+01
8.750000e+01
8.750000e+01
8.750000e+01
8.750000e+01
8.750000e+01
8.750000e+01
8.750000e+01
8.750000e+01
8.750000e+01
8.750000e+01
8.750000e+01
8.750000e+01
8.750000e+01
8.750000e+01
8.750000e+01
9.375000e+01
9.375000e+01
9.375000e+01
9.375000e+01
9.375000e+01
9.375000e+01
9.375000e+01
9.375000e+01
9.375000e+01
9.375000e+01
9.375000e+01
9.375000e+01
9.375000e+01
9.375000e+01
9.375000e+01
9.375000e+01
9.375000e+01
9.375000e+01
9.375000e+01
9.375000e+01
9.375000e+01
9.375000e+01
9.375000e+01
9.375000e+01
9.375000e+01
9.375000e+01
9.375000e+01
9.375000e+01
9.375000e+01
9.375000e+01
9.375000e+01
9.375000e+01
9.375000e+01
1.000000e+02
1.000000e+02
1.000000e+02
1.000000e+02
1.000000e+02
1.000000e+02
1.000000e+02
1.000000e+02
1.000000e+02
1.000000e+02
1.000000e+02
1.000000e+02
1.000000e+02
1.000000e+02
1.000000e+02
1.000000e+02
1.000000e+02
1.000000e+02
1.000000e+02
1.000000e+02
1.000000e+02
1.000000e+02
1.000000e+02
1.000000e+02
1.000000e+02
1.000000e+02
1.000000e+02
1.000000e+02
1.000000e+02
1.000000e+02
1.000000e+02
1.000000e+02
1.000000e+02
0.000000e+00
-1.823828e-01
-3.308755e-01
-4.685009e-01
-6.007205e-01
-7.285107e-01
-8.520966e-01
-9.714480e-01
-1.086476e+00
-1.197087e+00
-1.303202e+00
-1.404766e+00
-1.501744e+00
-1.594130e+00
-1.681939e+00
-1.765212e+00
-1.844019e+00
-1.918466e+00
-1.988699e+00
-2.054918e+00
-2.117391e+00
-2.176471e+00
-2.232629e+00
-2.286488e+00
-2.338882e+00
-2.390947e+00
-2.444259e+00
-2.501066e+00
-2.564664e+00
-2.639898e+00
-2.733033e+00
-2.843940e+00
-2.911598e+00
0.000000e+00
-1.222339e-01
-2.543024e-01
-3.788878e-01
-4.974354e-01
-6.110430e-01
-7.202766e-01
-8.253789e-01
-9.264411e-01
-1.023487e+00
-1.116513e+00
-1.205513e+00
-1.290483e+00
-1.371432e+00
-1.448381e+00
-1.521370e+00
-1.590455e+00
-1.655720e+00
-1.717275e+00
-1.775264e+00
-1.829875e+00
-1.881341e+00
-1.929955e+00
-1.976074e+00
-2.020127e+00
-2.062606e+00
-2.104029e+00
-2.144826e+00
-2.184993e+00
-2.223220e+00
-2.255057e+00
-2.273659e+00
-2.299543e+00
0.000000e+00
-9.692798e-02
-1.995513e-01
-3.040988e-01
-4.057914e-01
-5.038275e-01
-5.981224e-01
-6.887487e-01
-7.757738e-01
-8.592423e-01
-9.391811e-01
-1.015608e+00
-1.088538e+00
-1.157986e+00
-1.223976e+00
-1.286533e+00
-1.345697e+00
-1.401515e+00
-1.454049e+00
-1.503370e+00
-1.549564e+00
-1.592724e+00
-1.632940e+00
-1.670283e+00
-1.704768e+00
-1.736285e+00
-1.764472e+00
-1.788503e+00
-1.806753e+00
-1.816589e+00
-1.815748e+00
-1.810257e+00
-1.840477e+00
0.000000e+00
-7.690425e-02
-1.580620e-01
-2.414884e-01
-3.247928e-01
-4.061472e-01
-4.848451e-01
-5.606258e-01
-6.334114e-01
-7.031896e-01
-7.699707e-01
-8.337705e-01
-8.946048e-01
-9.524881e-01
-1.007434e+00
-1.059453e+00
-1.108559e+00
-1.154761e+00
-1.198067e+00
-1.238477e+00
-1.275981e+00
-1.310543e+00
-1.342086e+00
-1.370462e+00
-1.395411e+00
-1.416491e+00
-1.433005e+00
-1.443948e+00
-1.448136e+00
-1.445053e+00
-1.437545e+00
-1.437101e+00
-1.465900e+00
0.000000e+00
-5.970116e-02
-1.222526e-01
-1.868323e-01
-2.519824e-01
-3.163808e-01
-3.791363e-01
-4.397933e-01
-4.981401e-01
-5.540906e-01
-6.076177e-01
-6.587185e-01
-7.073980e-01
-7.536604e-01
-7.975053e-01
-8.389259e-01
-8.779071e-01
-9.144237e-01
-9.484362e-01
-9.798864e-01
-1.008689e+00
-1.034720e+00
-1.057801e+00
-1.077678e+00
-1.094001e+00
-1.106306e+00
-1.114053e+00
-1.116777e+00
-1.114558e+00
-1.109114e+00
-1.105580e+00
-1.113733e+00
-1.138315e+00
0.000000e+00
-4.388649e-02
-8.965771e-02
-1.369169e-01
-1.848577e-01
-2.325888e-01
-2.794002e-01
-3.248274e-01
-3.686124e-01
-4.106268e-01
-4.508137e-01
-4.891502e-01
-5.256262e-01
-5.602319e-01
-5.929515e-01
-6.237597e-01
-6.526180e-01
-6.794722e-01
-7.042485e-01
-7.268490e-01
-7.471456e-01
-7.649731e-01
-7.801230e-01
-7.923408e-01
-8.013365e-01
-8.068275e-01
-8.086523e-01
-8.070227e-01
-8.029981e-01
-7.991653e-01
-8.000917e-01
-8.104901e-01
-8.308425e-01
0.000000e+00
-2.888742e-02
-5.892094e-02
-8.991705e-02
-1.214391e-01
-1.529595e-01
-1.840045e-01
-2.142269e-01
-2.434077e-01
-2.714242e-01
-2.982127e-01
-3.237399e-01
-3.479835e-01
-3.709212e-01
-3.925235e-01
-4.127492e-01
-4.315427e-01
-4.488306e-01
-4.645193e-01
-4.784925e-01
-4.906094e-01
-5.007052e-01
-5.085961e-01
-5.140958e-01
-5.170519e-01
-5.174203e-01
-5.154019e-01
-5.116641e-01
-5.076285e-01
-5.056683e-01
-5.087120e-01
-5.188404e-01
-5.352766e-01
0.000000e+00
-1.434998e-02
-2.924439e-02
-4.460929e-02
-6.025287e-02
-7.592962e-02
-9.140570e-02
-1.064973e-01
-1.210794e-01
-1.350748e-01
-1.484369e-01
-1.611346e-01
-1.731403e-01
-1.844234e-01
-1.949442e-01
-2.046515e-01
-2.134794e-01
-2.213460e-01
-2.281518e-01
-2.337805e-01
-2.381018e-01
-2.409786e-01
-2.422821e-01
-2.419202e-01
-2.398854e-01
-2.363328e-01
-2.316918e-01
-2.268004e-01
-2.230010e-01
-2.220452e-01
-2.256194e-01
-2.344579e-01
-2.475029e-01
0.000000e+00
-2.354407e-05
-5.099918e-05
-8.085529e-05
-1.115520e-04
-1.409860e-04
-1.659880e-04
-1.817431e-04
-1.811135e-04
-1.538213e-04
-8.546243e-05
4.366348e-05
2.599092e-04
5.977949e-04
1.101605e-03
1.826923e-03
2.841881e-03
4.227721e-03
6.078076e-03
8.496031e-03
1.158758e-02
1.544948e-02
2.014878e-02
2.569067e-02
3.197150e-02
3.871638e-02
4.540925e-02
5.124154e-02
5.513665e-02
5.592961e-02
5.275484e-02
4.555965e-02
3.548047e-02
0.000000e+00
1.430560e-02
2.914807e-02
4.445629e-02
6.004130e-02
7.566148e-02
9.108886e-02
1.061486e-01
1.207290e-01
1.347720e-01
1.482581e-01
1.611931e-01
1.735992e-01
1.855103e-01
1.969708e-01
2.080342e-01
2.187640e-01
2.292324e-01
2.395190e-01
2.497057e-01
2.598683e-01
2.700625e-01
2.803029e-01
2.905326e-01
3.005852e-01
3.101437e-01
3.187078e-01
3.255970e-01
3.300247e-01
3.312800e-01
3.290128e-01
3.235464e-01
3.160652e-01
0.000000e+00
2.885106e-02
5.884148e-02
8.978998e-02
1.212620e-01
1.527331e-01
1.837339e-01
2.139244e-01
2.430961e-01
2.711418e-01
2.980197e-01
3.237262e-01
3.482796e-01
3.717110e-01
3.940596e-01
4.153715e-01
4.356990e-01
4.550990e-01
4.736310e-01
4.913517e-01
5.083065e-01
5.245165e-01
5.399594e-01
5.545459e-01
5.680926e-01
5.802991e-01
5.907406e-01
5.988966e-01
6.042356e-01
6.063711e-01
6.052748e-01
6.014920e-01
5.962705e-01
0.000000e+00
4.386311e-02
8.960569e-02
1.368323e-01
1.847379e-01
2.324326e-01
2.792092e-01
3.246077e-01
3.683765e-01
4.103970e-01
4.506262e-01
4.890605e-01
5.257160e-01
5.606180e-01
5.937968e-01
6.252854e-01
6.551192e-01
6.833346e-01
7.099666e-01
7.350448e-01
7.585862e-01
7.805847e-01
8.009971e-01
8.197271e-01
8.366085e-01
8.513962e-01
8.637713e-01
8.733762e-01
8.798902e-01
8.831546e-01
8.833387e-01
8.811196e-01
8.778195e-01
0.000000e+00
5.969495e-02
1.222373e-01
1.868051e-01
2.519408e-01
3.163226e-01
3.790601e-01
4.396991e-01
4.980296e-01
5.539687e-01
6.074936e-01
6.586078e-01
7.073250e-01
7.536618e-01
7.976342e-01
8.392573e-01
8.785445e-01
9.155069e-01
9.501517e-01
9.824795e-01
1.012479e+00
1.040123e+00
1.065357e+00
1.088092e+00
1.108203e+00
1.125518e+00
1.139840e+00
1.150972e+00
1.158773e+00
1.163255e+00
1.164709e+00
1.163876e+00
1.162138e+00
0.000000e+00
7.691809e-02
1.580901e-01
2.415301e-01
3.248468e-01
4.062120e-01
4.849184e-01
5.607038e-01
6.334879e-01
7.032548e-01
7.700096e-01
8.337608e-01
8.945149e-01
9.522739e-01
1.007035e+00
1.058790e+00
1.107528e+00
1.153228e+00
1.195868e+00
1.235414e+00
1.271827e+00
1.305054e+00
1.335032e+00
1.361684e+00
1.384925e+00
1.404668e+00
1.420838e+00
1.433399e+00
1.442388e+00
1.447975e+00
1.450545e+00
1.450851e+00
1.450275e+00
0.000000e+00
9.696255e-02
1.996250e-01
3.042142e-01
4.059508e-01
5.040328e-01
5.983739e-01
6.890436e-01
7.761038e-01
8.595901e-01
9.395165e-01
1.015882e+00
1.088676e+00
1.157878e+00
1.223463e+00
1.285396e+00
1.343638e+00
1.398136e+00
1.448832e+00
1.495656e+00
1.538530e+00
1.577369e+00
1.612088e+00
1.642608e+00
1.668872e+00
1.690859e+00
1.708608e+00
1.722244e+00
1.732004e+00
1.738255e+00
1.741527e+00
1.742592e+00
1.742720e+00
0.000000e+00
1.222861e-01
2.544163e-01
3.790709e-01
4.976969e-01
6.113920e-01
7.207208e-01
8.259228e-01
9.270825e-01
1.024212e+00
1.117293e+00
1.206292e+00
1.291167e+00
1.371874e+00
1.448363e+00
1.520575e+00
1.588439e+00
1.651872e+00
1.710778e+00
1.765042e+00
1.814538e+00
1.859131e+00
1.898689e+00
1.933097e+00
1.962284e+00
1.986250e+00
2.005110e+00
2.019127e+00
2.028756e+00
2.034656e+00
2.037671e+00
2.038764e+00
2.039031e+00
0.000000e+00
1.824399e-01
3.310088e-01
4.687294e-01
6.010629e-01
7.289858e-01
8.527240e-01
9.722462e-01
1.087460e+00
1.198263e+00
1.304559e+00
1.406268e+00
1.503316e+00
1.595635e+00
1.683153e+00
1.765794e+00
1.843465e+00
1.916054e+00
1.983425e+00
2.045416e+00
2.101840e+00
2.152486e+00
2.197136e+00
2.235585e+00
2.267674e+00
2.293336e+00
2.312663e+00
2.325978e+00
2.333914e+00
2.337490e+00
2.338140e+00
2.337602e+00
2.337299e+00
0.000000e+00
-1.127161e-01
-1.967994e-01
-2.886314e-01
-3.909269e-01
-5.064854e-01
-6.361108e-01
-7.800347e-01
-9.381196e-01
-1.110032e+00
-1.295321e+00
-1.493466e+00
-1.703904e+00
-1.926050e+00
-2.159304e+00
-2.403062e+00
-2.656722e+00
-2.919694e+00
-3.191406e+00
-3.471320e+00
-3.758947e+00
-4.053877e+00
-4.355817e+00
-4.664650e+00
-4.980531e+00
-5.304044e+00
-5.636479e+00
-5.980347e+00
-6.340451e+00
-6.726295e+00
-7.158385e+00
-7.685094e+00
-8.412716e+00
0.000000e+00
-7.005582e-02
-1.580665e-01
-2.504859e-01
-3.541680e-01
-4.709524e-01
-6.018153e-01
-7.469815e-01
-9.063248e-01
-1.079511e+00
-1.266086e+00
-1.465526e+00
-1.677262e+00
-1.900703e+00
-2.135243e+00
-2.380273e+00
-2.635184e+00
-2.899375e+00
-3.172264e+00
-3.453298e+00
-3.741972e+00
-4.037855e+00
-4.340627e+00
-4.650136e+00
-4.966496e+00
-5.290237e+00
-5.622583e+00
-5.965966e+00
-6.325089e+00
-6.709303e+00
-7.138072e+00
-7.653067e+00
-8.332831e+00
0.000000e+00
-5.146911e-02
-1.274579e-01
-2.185998e-01
-3.224345e-01
-4.400530e-01
-5.719278e-01
-7.181836e-01
-8.786485e-01
-1.052972e+00
-1.240691e+00
-1.441276e+00
-1.654159e+00
-1.878743e+00
-2.114422e+00
-2.360583e+00
-2.616613e+00
-2.881910e+00
-3.155885e+00
-3.437982e+00
-3.727693e+00
-4.024580e+00
-4.328324e+00
-4.638777e+00
-4.956067e+00
-5.280754e+00
-5.614114e+00
-5.958642e+00
-6.318988e+00
-6.703573e+00
-7.126776e+00
-7.605548e+00
-8.136587e+00
0.000000e+00
-4.123433e-02
-1.079580e-01
-1.942326e-01
-2.967161e-01
-4.142782e-01
-5.466981e-01
-6.937573e-01
-8.551430e-01
-1.030439e+00
-1.219153e+00
-1.420742e+00
-1.634631e+00
-1.860224e+00
-2.096914e+00
-2.344090e+00
-2.601140e+00
-2.867464e+00
-3.142478e+00
-3.425629e+00
-3.716414e+00
-4.014409e+00
-4.319308e+00
-4.630988e+00
-4.949605e+00
-5.275750e+00
-5.610683e+00
-5.956705e+00
-6.317623e+00
-6.698989e+00
-7.106105e+00
-7.535466e+00
-7.935120e+00
0.000000e+00
-3.491578e-02
-9.521426e-02
-1.769372e-01
-2.770752e-01
-3.938526e-01
-5.263071e-01
-6.738298e-01
-8.358930e-01
-1.011971e+00
-1.201516e+00
-1.403960e+00
-1.618716e+00
-1.845187e+00
-2.082768e+00
-2.330852e+00
-2.588833e+00
-2.856118e+00
-3.132129e+00
-3.416325e+00
-3.708213e+00
-4.007381e+00
-4.313536e+00
-4.626565e+00
-4.946610e+00
-5.274189e+00
-5.610332e+00
-5.956695e+00
-6.315468e+00
-6.688416e+00
-7.073748e+00
-7.457281e+00
-7.805304e+00
0.000000e+00
-3.089566e-02
-8.685570e-02
-1.650402e-01
-2.629197e-01
-3.785947e-01
-5.107502e-01
-6.584505e-01
-8.209573e-01
-9.976197e-01
-1.187823e+00
-1.390963e+00
-1.606441e+00
-1.833655e+00
-2.072003e+00
-2.320885e+00
-2.579702e+00
-2.847869e+00
-3.124819e+00
-3.410017e+00
-3.702979e+00
-4.003295e+00
-4.310663e+00
-4.624935e+00
-4.946164e+00
-5.274663e+00
-5.611008e+00
-5.955931e+00
-6.309832e+00
-6.671517e+00
-7.035461e+00
-7.388629e+00
-7.711355e+00
0.000000e+00
-2.839636e-02
-8.157142e-02
-1.573087e-01
-2.534397e-01
-3.681133e-01
-4.998696e-01
-6.475806e-01
-8.103480e-01
-9.874144e-01
-1.178102e+00
-1.381774e+00
-1.597818e+00
-1.825630e+00
-2.064609e+00
-2.314163e+00
-2.573701e+00
-2.842647e+00
-3.120439e+00
-3.406546e+00
-3.700479e+00
-4.001812e+00
-4.310204e+00
-4.625419e+00
-4.947350e+00
-5.276002e+00
-5.611404e+00
-5.953364e+00
-6.300895e+00
-6.651164e+00
-6.998096e+00
-7.331659e+00
-7.639566e+00
0.000000e+00
-2.702253e-02
-7.863919e-02
-1.529523e-01
-2.480047e-01
-3.620096e-01
-4.934600e-01
-6.411341e-01
-8.040420e-01
-9.813583e-01
-1.172363e+00
-1.376399e+00
-1.592843e+00
-1.821091e+00
-2.060550e+00
-2.310629e+00
-2.570749e+00
-2.840335e+00
-3.118829e+00
-3.405694e+00
-3.700425e+00
-4.002556e+00
-4.311675e+00
-4.627426e+00
-4.949489e+00
-5.277533e+00
-5.611074e+00
-5.949201e+00
-6.290106e+00
-6.630430e+00
-6.964690e+00
-7.285343e+00
-7.584001e+00
0.000000e+00
-2.657979e-02
-7.769312e-02
-1.515404e-01
-2.462335e-01
-3.600122e-01
-4.913608e-01
-6.390313e-01
-8.020065e-01
-9.794402e-01
-1.170601e+00
-1.374826e+00
-1.591494e+00
-1.820004e+00
-2.059769e+00
-2.310206e+00
-2.570737e+00
-2.840792e+00
-3.119808e+00
-3.407232e+00
-3.702530e+00
-4.005183e+00
-4.314686e+00
-4.630539e+00
-4.952207e+00
-5.279047e+00
-5.610171e+00
-5.944211e+00
-6.279004e+00
-6.611244e+00
-6.936294e+00
-7.248398e+00
-7.541410e+00
0.000000e+00
-2.700963e-02
-7.862130e-02
-1.529369e-01
-2.480001e-01
-3.620260e-01
-4.935111e-01
-6.412377e-01
-8.042219e-01
-9.816458e-01
-1.172798e+00
-1.377032e+00
-1.593736e+00
-1.822320e+00
-2.062201e+00
-2.312803e+00
-2.573552e+00
-2.843873e+00
-3.123195e+00
-3.410945e+00
-3.706548e+00
-4.009422e+00
-4.318965e+00
-4.634530e+00
-4.955386e+00
-5.280639e+00
-5.609123e+00
-5.939233e+00
-6.268740e+00
-6.594636e+00
-6.913098e+00
-7.219672e+00
-7.509665e+00
0.000000e+00
-2.837159e-02
-8.153707e-02
-1.572790e-01
-2.534305e-01
-3.681443e-01
-4.999666e-01
-6.477782e-01
-8.106918e-01
-9.879642e-01
-1.178934e+00
-1.382987e+00
-1.599530e+00
-1.827985e+00
-2.067778e+00
-2.318335e+00
-2.579084e+00
-2.849445e+00
-3.128833e+00
-3.416652e+00
-3.712285e+00
-4.015084e+00
-4.324351e+00
-4.639312e+00
-4.959071e+00
-5.282552e+00
-5.608415e+00
-5.934964e+00
-6.260061e+00
-6.581073e+00
-6.894905e+00
-7.198124e+00
-7.487130e+00
0.000000e+00
-3.086122e-02
-8.680793e-02
-1.649987e-01
-2.629065e-01
-3.786371e-01
-5.108845e-01
-6.587250e-01
-8.214360e-01
-9.983862e-01
-1.188984e+00
-1.392656e+00
-1.608833e+00
-1.836949e+00
-2.076437e+00
-2.326726e+00
-2.587242e+00
-2.857400e+00
-3.136600e+00
-3.424222e+00
-3.719607e+00
-4.022051e+00
-4.330772e+00
-4.644890e+00
-4.963385e+00
-5.285053e+00
-5.608461e+00
-5.931906e+00
-6.253398e+00
-6.570685e+00
-6.881322e+00
-7.182754e+00
-7.472356e+00
0.000000e+00
-3.487517e-02
-9.515799e-02
-1.768883e-01
-2.770598e-01
-3.939039e-01
-5.264690e-01
-6.741609e-01
-8.364708e-01
-1.012897e+00
-1.202920e+00
-1.406007e+00
-1.621609e+00
-1.849172e+00
-2.088133e+00
-2.337923e+00
-2.597964e+00
-2.867665e+00
-3.146414e+00
-3.433567e+00
-3.728435e+00
-4.030263e+00
-4.338206e+00
-4.651306e+00
-4.968453e+00
-5.288364e+00
-5.609559e+00
-5.930363e+00
-6.248945e+00
-6.563395e+00
-6.871841e+00
-7.172549e+00
-7.463903e+00
0.000000e+00
-4.119254e-02
-1.079002e-01
-1.941828e-01
-2.967029e-01
-4.143383e-01
-5.468805e-01
-6.941268e-01
-8.557855e-01
-1.031466e+00
-1.220709e+00
-1.423009e+00
-1.637833e+00
-1.864631e+00
-2.102843e+00
-2.351901e+00
-2.611221e+00
-2.880209e+00
-3.158240e+00
-3.444655e+00
-3.738739e+00
-4.039704e+00
-4.346664e+00
-4.658604e+00
-4.974363e+00
-5.292611e+00
-5.611851e+00
-5.930447e+00
-6.246699e+00
-6.558974e+00
-6.865880e+00
-7.166456e+00
-7.460218e+00
0.000000e+00
-5.143261e-02
-1.274071e-01
-2.185577e-01
-3.224305e-01
-4.401260e-01
-5.721290e-01
-7.185809e-01
-8.793311e-01
-1.054055e+00
-1.242325e+00
-1.443648e+00
-1.657498e+00
-1.883327e+00
-2.120575e+00
-2.368671e+00
-2.627029e+00
-2.895048e+00
-3.172097e+00
-3.457505e+00
-3.750542e+00
-4.050401e+00
-4.356169e+00
-4.666809e+00
-4.981133e+00
-5.297794e+00
-5.615300e+00
-5.932053e+00
-6.246447e+00
-6.557038e+00
-6.862790e+00
-7.163393e+00
-7.459573e+00
0.000000e+00
-7.003223e-02
-1.580317e-01
-2.504609e-01
-3.541831e-01
-4.710473e-01
-6.020418e-01
-7.474077e-01
-9.070397e-01
-1.080630e+00
-1.267755e+00
-1.467928e+00
-1.680623e+00
-1.905291e+00
-2.141369e+00
-2.388285e+00
-2.645449e+00
-2.912255e+00
-3.188066e+00
-3.472203e+00
-3.763929e+00
-4.062427e+00
-4.366777e+00
-4.675936e+00
-4.988715e+00
-5.303779e+00
-5.619658e+00
-5.934801e+00
-6.247674e+00
-6.556947e+00
-6.861783e+00
-7.162287e+00
-7.460121e+00
0.000000e+00
-1.127124e-01
-1.967874e-01
-2.886331e-01
-3.909728e-01
-5.066155e-01
-6.363769e-01
-7.805041e-01
-9.388796e-01
-1.111194e+00
-1.297027e+00
-1.495890e+00
-1.707259e+00
-1.930585e+00
-2.165304e+00
-2.410838e+00
-2.666596e+00
-2.931963e+00
-3.206298e+00
-3.488914e+00
-3.779068e+00
-4.075937e+00
-4.378602e+00