TITLE = "Solution"
VARIABLES = x, y, u, v, psiu, psiv, t, stress
ZONE T="structure" N=561 E=512 F=FEBLOCK ET=QUADRILATERAL VARLOCATION=([7,8]=cellcentered)
0.000000e+00
6.250000e+00
1.250000e+01
1.875000e+01
2.500000e+01
3.125000e+01
3.750000e+01
4.375000e+01
5.000000e+01
5.625000e+01
6.250000e+01
6.875000e+01
7.500000e+01
8.125000e+01
8.750000e+01
9.375000e+01
1.000000e+02
1.062500e+02
1.125000e+02
1.187500e+02
1.250000e+02
1.312500e+02
1.375000e+02
1.437500e+02
1.500000e+02
1.562500e+02
1.625000e+02
1.687500e+02
1.750000e+02
1.812500e+02
1.875000e+02
1.937500e+02
2.000000e+02
0.000000e+00
6.250000e+00
1.250000e+01
1.875000e+01
2.500000e+01
3.125000e+01
3.750000e+01
4.375000e+01
5.000000e+01
5.625000e+01
6.250000e+01
6.875000e+01
7.500000e+01
8.125000e+01
8.750000e+01
9.375000e+01
1.000000e+02
1.062500e+02
1.125000e+02
1.187500e+02
1.250000e+02
1.312500e+02
1.375000e+02
1.437500e+02
1.500000e+02
1.562500e+02
1.625000e+02
1.687500e+02
1.750000e+02
1.812500e+02
1.875000e+02
1.937500e+02
2.000000e+02
0.000000e+00
6.250000e+00
1.250000e+01
1.875000e+01
2.500000e+01
3.125000e+01
3.750000e+01
4.375000e+01
5.000000e+01
5.625000e+01
6.250000e+01
6.875000e+01
7.500000e+01
8.125000e+01
8.750000e+01
9.375000e+01
1.000000e+02
1.062500e+02
1.125000e+02
1.187500e+02
1.250000e+02
1.312500e+02
1.375000e+02
1.437500e+02
1.500000e+02
1.562500e+02
1.625000e+02
1.687500e+02
1.750000e+02
1.812500e+02
1.875000e+02
1.937500e+02
2.000000e+02
0.000000e+00
6.250000e+00
1.250000e+01
1.875000e+01
2.500000e+01
3.125000e+01
3.750000e+01
4.375000e+01
5.000000e+01
5.625000e+01
6.250000e+01
6.875000e+01
7.500000e+01
8.125000e+01
8.750000e+01
9.375000e+01
1.000000e+02
1.062500e+02
1.125000e+02
1.187500e+02
1.250000e+02
1.312500e+02
1.375000e+02
1.437500e+02
1.500000e+02
1.562500e+02
1.625000e+02
1.687500e+02
1.750000e+02
1.812500e+02
1.875000e+02
1.937500e+02
2.000000e+02
0.000000e+00
6.250000e+00
1.250000e+01
1.875000e+01
2.500000e+01
3.125000e+01
3.750000e+01
4.375000e+01
5.000000e+01
5.625000e+01
6.250000e+01
6.875000e+01
7.500000e+01
8.125000e+01
8.750000e+01
9.375000e+01
1.000000e+02
1.062500e+02
1.125000e+02
1.187500e+02
1.250000e+02
1.312500e+02
1.375000e+02
1.437500e+02
1.500000e+02
1.562500e+02
1.625000e+02
1.687500e+02
1.750000e+02
1.812500e+02
1.875000e+02
1.937500e+02
2.000000e+02
0.000000e+00
6.250000e+00
1.250000e+01
1.875000e+01
2.500000e+01
3.125000e+01
3.750000e+01
4.375000e+01
5.000000e+01
5.625000e+01
6.250000e+01
6.875000e+01
7.500000e+01
8.125000e+01
8.750000e+01
9.375000e+01
1.000000e+02
1.062500e+02
1.125000e+02
1.187500e+02
1.250000e+02
1.312500e+02
1.375000e+02
1.437500e+02
1.500000e+02
1.562500e+02
1.625000e+02
1.687500e+02
1.750000e+02
1.812500e+02
1.875000e+02
1.937500e+02
2.000000e+02
0.000000e+00
6.250000e+00
1.250000e+01
1.875000e+01
2.500000e+01
3.125000e+01
3.750000e+01
4.375000e+01
5.000000e+01
5.625000e+01
6.250000e+01
6.875000e+01
7.500000e+01
8.125000e+01
8.750000e+01
9.375000e+01
1.000000e+02
1.062500e+02
1.125000e+02
1.187500e+02
1.250000e+02
1.312500e+02
1.375000e+02
1.437500e+02
1.500000e+02
1.562500e+02
1.625000e+02
1.687500e+02
1.750000e+02
1.812500e+02
1.875000e+02
1.937500e+02
2.000000e+02
0.000000e+00
6.250000e+00
1.250000e+01
1.875000e+01
2.500000e+01
3.125000e+01
3.750000e+01
4.375000e+01
5.000000e+01
5.625000e+01
6.250000e+01
6.875000e+01
7.500000e+01
8.125000e+01
8.750000e+01
9.375000e+01
1.000000e+02
1.062500e+02
1.125000e+02
1.187500e+02
1.250000e+02
1.312500e+02
1.375000e+02
1.437500e+02
1.500000e+02
1.562500e+02
1.625000e+02
1.687500e+02
1.750000e+02
1.812500e+02
1.875000e+02
1.937500e+02
2.000000e+02
0.000000e+00
6.250000e+00
1.250000e+01
1.875000e+01
2.500000e+01
3.125000e+01
3.750000e+01
4.375000e+01
5.000000e+01
5.625000e+01
6.250000e+01
6.875000e+01
7.500000e+01
8.125000e+01
8.750000e+01
9.375000e+01
1.000000e+02
1.062500e+02
1.125000e+02
1.187500e+02
1.250000e+02
1.312500e+02
1.375000e+02
1.437500e+02
1.500000e+02
1.562500e+02
1.625000e+02
1.687500e+02
1.750000e+02
1.812500e+02
1.875000e+02
1.937500e+02
2.000000e+02
0.000000e+00
6.250000e+00
1.250000e+01
1.875000e+01
2.500000e+01
3.125000e+01
3.750000e+01
4.375000e+01
5.000000e+01
5.625000e+01
6.250000e+01
6.875000e+01
7.500000e+01
8.125000e+01
8.750000e+01
9.375000e+01
1.000000e+02
1.062500e+02
1.125000e+02
1.187500e+02
1.250000e+02
1.312500e+02
1.375000e+02
1.437500e+02
1.500000e+02
1.562500e+02
1.625000e+02
1.687500e+02
1.750000e+02
1.812500e+02
1.875000e+02
1.937500e+02
2.000000e+02
0.000000e+00
6.250000e+00
1.250000e+01
1.875000e+01
2.500000e+01
3.125000e+01
3.750000e+01
4.375000e+01
5.000000e+01
5.625000e+01
6.250000e+01
6.875000e+01
7.500000e+01
8.125000e+01
8.750000e+01
9.375000e+01
1.000000e+02
1.062500e+02
1.125000e+02
1.187500e+02
1.250000e+02
1.312500e+02
1.375000e+02
1.437500e+02
1.500000e+02
1.562500e+02
1.625000e+02
1.687500e+02
1.750000e+02
1.812500e+02
1.875000e+02
1.937500e+02
2.000000e+02
0.000000e+00
6.250000e+00
1.250000e+01
1.875000e+01
2.500000e+01
3.125000e+01
3.750000e+01
4.375000e+01
5.000000e+01
5.625000e+01
6.250000e+01
6.875000e+01
7.500000e+01
8.125000e+01
8.750000e+01
9.375000e+01
1.000000e+02
1.062500e+02
1.125000e+02
1.187500e+02
1.250000e+02
1.312500e+02
1.375000e+02
1.437500e+02
1.500000e+02
1.562500e+02
1.625000e+02
1.687500e+02
1.750000e+02
1.812500e+02
1.875000e+02
1.937500e+02
2.000000e+02
0.000000e+00
6.250000e+00
1.250000e+01
1.875000e+01
2.500000e+01
3.125000e+01
3.750000e+01
4.375000e+01
5.000000e+01
5.625000e+01
6.250000e+01
6.875000e+01
7.500000e+01
8.125000e+01
8.750000e+01
9.375000e+01
1.000000e+02
1.062500e+02
1.125000e+02
1.187500e+02
1.250000e+02
1.312500e+02
1.375000e+02
1.437500e+02
1.500000e+02
1.562500e+02
1.625000e+02
1.687500e+02
1.750000e+02
1.812500e+02
1.875000e+02
1.937500e+02
2.000000e+02
0.000000e+00
6.250000e+00
1.250000e+01
1.875000e+01
2.500000e+01
3.125000e+01
3.750000e+01
4.375000e+01
5.000000e+01
5.625000e+01
6.250000e+01
6.875000e+01
7.500000e+01
8.125000e+01
8.750000e+01
9.375000e+01
1.000000e+02
1.062500e+02
1.125000e+02
1.187500e+02
1.250000e+02
1.312500e+02
1.375000e+02
1.437500e+02
1.500000e+02
1.562500e+02
1.625000e+02
1.687500e+02
1.750000e+02
1.812500e+02
1.875000e+02
1.937500e+02
2.000000e+02
0.000000e+00
6.250000e+00
1.250000e+01
1.875000e+01
2.500000e+01
3.125000e+01
3.750000e+01
4.375000e+01
5.000000e+01
5.625000e+01
6.250000e+01
6.875000e+01
7.500000e+01
8.125000e+01
8.750000e+01
9.375000e+01
1.000000e+02
1.062500e+02
1.125000e+02
1.187500e+02
1.250000e+02
1.312500e+02
1.375000e+02
1.437500e+02
1.500000e+02
1.562500e+02
1.625000e+02
1.687500e+02
1.750000e+02
1.812500e+02
1.875000e+02
1.937500e+02
2.000000e+02
0.000000e+00
6.250000e+00
1.250000e+01
1.875000e+01
2.500000e+01
3.125000e+01
3.750000e+01
4.375000e+01
5.000000e+01
5.625000e+01
6.250000e+01
6.875000e+01
7.500000e+01
8.125000e+01
8.750000e+01
9.375000e+01
1.000000e+02
1.062500e+02
1.125000e+02
1.187500e+02
1.250000e+02
1.312500e+02
1.375000e+02
1.437500e+02
1.500000e+02
1.562500e+02
1.625000e+02
1.687500e+02
1.750000e+02
1.812500e+02
1.875000e+02
1.937500e+02
2.000000e+02
0.000000e+00
6.250000e+00
1.250000e+01
1.875000e+01
2.500000e+01
3.125000e+01
3.750000e+01
4.375000e+01
5.000000e+01
5.625000e+01
6.250000e+01
6.875000e+01
7.500000e+01
8.125000e+01
8.750000e+01
9.375000e+01
1.000000e+02
1.062500e+02
1.125000e+02
1.187500e+02
1.250000e+02
1.312500e+02
1.375000e+02
1.437500e+02
1.500000e+02
1.562500e+02
1.625000e+02
1.687500e+02
1.750000e+02
1.812500e+02
1.875000e+02
1.937500e+02
2.000000e+02
0.000000e+00
0.000000e+00
0.000000e+00
0.000000e+00
0.000000e+00
0.000000e+00
0.000000e+00
0.000000e+00
0.000000e+00
0.000000e+00
0.000000e+00
0.000000e+00
0.000000e+00
0.000000e+00
0.000000e+00
0.000000e+00
0.000000e+00
0.000000e+00
0.000000e+00
0.000000e+00
0.000000e+00
0.000000e+00
0.000000e+00
0.000000e+00
0.000000e+00
0.000000e+00
0.000000e+00
0.000000e+00
0.000000e+00
0.000000e+00
0.000000e+00
0.000000e+00
0.000000e+00
6.250000e+00
6.250000e+00
6.250000e+00
6.250000e+00
6.250000e+00
6.250000e+00
6.250000e+00
6.250000e+00
6.250000e+00
6.250000e+00
6.250000e+00
6.250000e+00
6.250000e+00
6.250000e+00
6.250000e+00
6.250000e+00
6.250000e+00
6.250000e+00
6.250000e+00
6.250000e+00
6.250000e+00
6.250000e+00
6.250000e+00
6.250000e+00
6.250000e+00
6.250000e+00
6.250000e+00
6.250000e+00
6.250000e+00
6.250000e+00
6.250000e+00
6.250000e+00
6.250000e+00
1.250000e+01
1.250000e+01
1.250000e+01
1.250000e+01
1.250000e+01
1.250000e+01
1.250000e+01
1.250000e+01
1.250000e+01
1.250000e+01
1.250000e+01
1.250000e+01
1.250000e+01
1.250000e+01
1.250000e+01
1.250000e+01
1.250000e+01
1.250000e+01
1.250000e+01
1.250000e+01
1.250000e+01
1.250000e+01
1.250000e+01
1.250000e+01
1.250000e+01
1.250000e+01
1.250000e+01
1.250000e+01
1.250000e+01
1.250000e+01
1.250000e+01
1.250000e+01
1.250000e+01
1.875000e+01
1.875000e+01
1.875000e+01
1.875000e+01
1.875000e+01
1.875000e+01
1.875000e+01
1.875000e+01
1.875000e+01
1.875000e+01
1.875000e+01
1.875000e+01
1.875000e+01
1.875000e+01
1.875000e+01
1.875000e+01
1.875000e+01
1.875000e+01
1.875000e+01
1.875000e+01
1.875000e+01
1.875000e+01
1.875000e+01
1.875000e+01
1.875000e+01
1.875000e+01
1.875000e+01
1.875000e+01
1.875000e+01
1.875000e+01
1.875000e+01
1.875000e+01
1.875000e+01
2.500000e+01
2.500000e+01
2.500000e+01
2.500000e+01
2.500000e+01
2.500000e+01
2.500000e+01
2.500000e+01
2.500000e+01
2.500000e+01
2.500000e+01
2.500000e+01
2.500000e+01
2.500000e+01
2.500000e+01
2.500000e+01
2.500000e+01
2.500000e+01
2.500000e+01
2.500000e+01
2.500000e+01
2.500000e+01
2.500000e+01
2.500000e+01
2.500000e+01
2.500000e+01
2.500000e+01
2.500000e+01
2.500000e+01
2.500000e+01
2.500000e+01
2.500000e+01
2.500000e+01
3.125000e+01
3.125000e+01
3.125000e+01
3.125000e+01
3.125000e+01
3.125000e+01
3.125000e+01
3.125000e+01
3.125000e+01
3.125000e+01
3.125000e+01
3.125000e+01
3.125000e+01
3.125000e+01
3.125000e+01
3.125000e+01
3.125000e+01
3.125000e+01
3.125000e+01
3.125000e+01
3.125000e+01
3.125000e+01
3.125000e+01
3.125000e+01
3.125000e+01
3.125000e+01
3.125000e+01
3.125000e+01
3.125000e+01
3.125000e+01
3.125000e+01
3.125000e+01
3.125000e+01
3.750000e+01
3.750000e+01
3.750000e+01
3.750000e+01
3.750000e+01
3.750000e+01
3.750000e+01
3.750000e+01
3.750000e+01
3.750000e+01
3.750000e+01
3.750000e+01
3.750000e+01
3.750000e+01
3.750000e+01
3.750000e+01
3.750000e+01
3.750000e+01
3.750000e+01
3.750000e+01
3.750000e+01
3.750000e+01
3.750000e+01
3.750000e+01
3.750000e+01
3.750000e+01
3.750000e+01
3.750000e+01
3.750000e+01
3.750000e+01
3.750000e+01
3.750000e+01
3.750000e+01
4.375000e+01
4.375000e+01
4.375000e+01
4.375000e+01
4.375000e+01
4.375000e+01
4.375000e+01
4.375000e+01
4.375000e+01
4.375000e+01
4.375000e+01
4.375000e+01
4.375000e+01
4.375000e+01
4.375000e+01
4.375000e+01
4.375000e+01
4.375000e+01
4.375000e+01
4.375000e+01
4.375000e+01
4.375000e+01
4.375000e+01
4.375000e+01
4.375000e+01
4.375000e+01
4.375000e+01
4.375000e+01
4.375000e+01
4.375000e+01
4.375000e+01
4.375000e+01
4.375000e+01
5.000000e+01
5.000000e+01
5.000000e+01
5.000000e+01
5.000000e+01
5.000000e+01
5.000000e+01
5.000000e+01
5.000000e+01
5.000000e+01
5.000000e+01
5.000000e+01
5.000000e+01
5.000000e+01
5.000000e+01
5.000000e+01
5.000000e+01
5.000000e+01
5.000000e+01
5.000000e+01
5.000000e+01
5.000000e+01
5.000000e+01
5.000000e+01
5.000000e+01
5.000000e+01
5.000000e+01
5.000000e+01
5.000000e+01
5.000000e+01
5.000000e+01
5.000000e+01
5.000000e+01
5.625000e+01
5.625000e+01
5.625000e+01
5.625000e+01
5.625000e+01
5.625000e+01
5.625000e+01
5.625000e+01
5.625000e+01
5.625000e+01
5.625000e+01
5.625000e+01
5.625000e+01
5.625000e+01
5.625000e+01
5.625000e+01
5.625000e+01
5.625000e+01
5.625000e+01
5.625000e+01
5.625000e+01
5.625000e+01
5.625000e+01
5.625000e+01
5.625000e+01
5.625000e+01
5.625000e+01
5.625000e+01
5.625000e+01
5.625000e+01
5.625000e+01
5.625000e+01
5.625000e+01
6.250000e+01
6.250000e+01
6.250000e+01
6.250000e+01
6.250000e+01
6.250000e+01
6.250000e+01
6.250000e+01
6.250000e+01
6.250000e+01
6.250000e+01
6.250000e+01
6.250000e+01
6.250000e+01
6.250000e+01
6.250000e+01
6.250000e+01
6.250000e+01
6.250000e+01
6.250000e+01
6.250000e+01
6.250000e+01
6.250000e+01
6.250000e+01
6.250000e+01
6.250000e+01
6.250000e+01
6.250000e+01
6.250000e+01
6.250000e+01
6.250000e+01
6.250000e+01
6.250000e+01
6.875000e+01
6.875000e+01
6.875000e+01
6.875000e+01
6.875000e+01
6.875000e+01
6.875000e+01
6.875000e+01
6.875000e+01
6.875000e+01
6.875000e+01
6.875000e+01
6.875000e+01
6.875000e+01
6.875000e+01
6.875000e+01
6.875000e+01
6.875000e+01
6.875000e+01
6.875000e+01
6.875000e+01
6.875000e+01
6.875000e+01
6.875000e+01
6.875000e+01
6.875000e+01
6.875000e+01
6.875000e+01
6.875000e+01
6.875000e+01
6.875000e+01
6.875000e+01
6.875000e+01
7.500000e+01
7.500000e+01
7.500000e+01
7.500000e+01
7.500000e+01
7.500000e+01
7.500000e+01
7.500000e+01
7.500000e+01
7.500000e+01
7.500000e+01
7.500000e+01
7.500000e+01
7.500000e+01
7.500000e+01
7.500000e+01
7.500000e+01
7.500000e+01
7.500000e+01
7.500000e+01
7.500000e+01
7.500000e+01
7.500000e+01
7.500000e+01
7.500000e+01
7.500000e+01
7.500000e+01
7.500000e+01
7.500000e+01
7.500000e+01
7.500000e+01
7.500000e+01
7.500000e+01
8.125000e+01
8.125000e+01
8.125000e+01
8.125000e+01
8.125000e+01
8.125000e+01
8.125000e+01
8.125000e+01
8.125000e+01
8.125000e+01
8.125000e+01
8.125000e+01
8.125000e+01
8.125000e+01
8.125000e+01
8.125000e+01
8.125000e+01
8.125000e+01
8.125000e+01
8.125000e+01
8.125000e+01
8.125000e+01
8.125000e+01
8.125000e+01
8.125000e+01
8.125000e+01
8.125000e+01
8.125000e+01
8.125000e+01
8.125000e+01
8.125000e+01
8.125000e+01
8.125000e+01
8.750000e+01
8.750000e+01
8.750000e+01
8.750000e+01
8.750000e+01
8.750000e+01
8.750000e+01
8.750000e+01
8.750000e+01
8.750000e+01
8.750000e+01
8.750000e+01
8.750000e+01
8.750000e+01
8.750000e+01
8.750000e+01
8.750000e+01
8.750000e+01
8.750000e+01
8.750000e+01
8.750000e+01
8.750000e+01
8.750000e+01
8.750000e+01
8.750000e+01
8.750000e+01
8.750000e+01
8.750000e+01
8.750000e+01
8.750000e+01
8.750000e+01
8.750000e+01
8.750000e+01
9.375000e+01
9.375000e+01
9.375000e+01
9.375000e+01
9.375000e+01
9.375000e+01
9.375000e+01
9.375000e+01
9.375000e+01
9.375000e+01
9.375000e+01
9.375000e+01
9.375000e+01
9.375000e+01
9.375000e+01
9.375000e+01
9.375000e+01
9.375000e+01
9.375000e+01
9.375000e+01
9.375000e+01
9.375000e+01
9.375000e+01
9.375000e+01
9.375000e+01
9.375000e+01
9.375000e+01
9.375000e+01
9.375000e+01
9.375000e+01
9.375000e+01
9.375000e+01
9.375000e+01
1.000000e+02
1.000000e+02
1.000000e+02
1.000000e+02
1.000000e+02
1.000000e+02
1.000000e+02
1.000000e+02
1.000000e+02
1.000000e+02
1.000000e+02
1.000000e+02
1.000000e+02
1.000000e+02
1.000000e+02
1.000000e+02
1.000000e+02
1.000000e+02
1.000000e+02
1.000000e+02
1.000000e+02
1.000000e+02
1.000000e+02
1.000000e+02
1.000000e+02
1.000000e+02
1.000000e+02
1.000000e+02
1.000000e+02
1.000000e+02
1.000000e+02
1.000000e+02
1.000000e+02
0.000000e+00
-4.010941e-02
-7.277319e-02
-1.030316e-01
-1.320711e-01
-1.601132e-01
-1.872141e-01
-2.133714e-01
-2.385687e-01
-2.627877e-01
-2.860131e-01
-3.082345e-01
-3.294465e-01
-3.496486e-01
-3.688456e-01
-3.870475e-01
-4.042707e-01
-4.205389e-01
-4.358847e-01
-4.503523e-01
-4.640006e-01
-4.769073e-01
-4.891753e-01
-5.009410e-01
-5.123870e-01
-5.237619e-01
-5.354104e-01
-5.478246e-01
-5.617260e-01
-5.781767e-01
-5.985542e-01
-6.228385e-01
-6.376589e-01
0.000000e+00
-2.689228e-02
-5.595228e-02
-8.335203e-02
-1.093944e-01
-1.343274e-01
-1.582828e-01
-1.813182e-01
-2.034566e-01
-2.247054e-01
-2.450660e-01
-2.645385e-01
-2.831238e-01
-3.008249e-01
-3.176476e-01
-3.336014e-01
-3.486998e-01
-3.629614e-01
-3.764110e-01
-3.890807e-01
-4.010113e-01
-4.122546e-01
-4.228745e-01
-4.329494e-01
-4.425730e-01
-4.518529e-01
-4.609030e-01
-4.698167e-01
-4.785936e-01
-4.869479e-01
-4.939094e-01
-4.979794e-01
-5.036455e-01
0.000000e+00
-2.133102e-02
-4.391504e-02
-6.690916e-02
-8.925233e-02
-1.107721e-01
-1.314547e-01
-1.513198e-01
-1.703850e-01
-1.886621e-01
-2.061591e-01
-2.228813e-01
-2.388334e-01
-2.540201e-01
-2.684470e-01
-2.821212e-01
-2.950514e-01
-3.072490e-01
-3.187274e-01
-3.295033e-01
-3.395953e-01
-3.490239e-01
-3.578092e-01
-3.659667e-01
-3.734998e-01
-3.803842e-01
-3.865412e-01
-3.917895e-01
-3.957742e-01
-3.979199e-01
-3.977318e-01
-3.965269e-01
-4.031434e-01
0.000000e+00
-1.692428e-02
-3.478325e-02
-5.313110e-02
-7.143597e-02
-8.929744e-02
-1.065626e-01
-1.231765e-01
-1.391243e-01
-1.544055e-01
-1.690238e-01
-1.829843e-01
-1.962917e-01
-2.089500e-01
-2.209630e-01
-2.323342e-01
-2.430667e-01
-2.531632e-01
-2.626257e-01
-2.714549e-01
-2.796484e-01
-2.871988e-01
-2.940893e-01
-3.002878e-01
-3.057372e-01
-3.103412e-01
-3.139474e-01
-3.163355e-01
-3.172473e-01
-3.165704e-01
-3.149264e-01
-3.148283e-01
-3.211322e-01
0.000000e+00
-1.313560e-02
-2.689723e-02
-4.109847e-02
-5.541508e-02
-6.955609e-02
-8.332640e-02
-9.662721e-02
-1.094136e-01
-1.216684e-01
-1.333869e-01
-1.445698e-01
-1.552193e-01
-1.653370e-01
-1.749238e-01
-1.839786e-01
-1.924988e-01
-2.004791e-01
-2.079113e-01
-2.147830e-01
-2.210756e-01
-2.267624e-01
-2.318044e-01
-2.361462e-01
-2.397110e-01
-2.423981e-01
-2.440890e-01
-2.446822e-01
-2.441955e-01
-2.430049e-01
-2.422324e-01
-2.440163e-01
-2.493937e-01
0.000000e+00
-9.653902e-03
-1.972141e-02
-3.011236e-02
-4.064721e-02
-5.112929e-02
-6.140250e-02
-7.136536e-02
-8.096217e-02
-9.016584e-02
-9.896494e-02
-1.073555e-01
-1.153359e-01
-1.229050e-01
-1.300597e-01
-1.367950e-01
-1.431030e-01
-1.489720e-01
-1.543862e-01
-1.593244e-01
-1.637588e-01
-1.676535e-01
-1.709629e-01
-1.736315e-01
-1.755960e-01
-1.767947e-01
-1.771924e-01
-1.768355e-01
-1.759559e-01
-1.751190e-01
-1.753227e-01
-1.775968e-01
-1.820463e-01
0.000000e+00
-6.353428e-03
-1.295816e-02
-1.977242e-02
-2.669902e-02
-3.362139e-02
-4.043511e-02
-4.706410e-02
-5.346074e-02
-5.959874e-02
-6.546484e-02
-7.105235e-02
-7.635699e-02
-8.137436e-02
-8.609839e-02
-9.052044e-02
-9.462859e-02
-9.840704e-02
-1.018355e-01
-1.048888e-01
-1.075362e-01
-1.097417e-01
-1.114654e-01
-1.126666e-01
-1.133120e-01
-1.133921e-01
-1.129508e-01
-1.121342e-01
-1.112531e-01
-1.108260e-01
-1.114924e-01
-1.137064e-01
-1.172982e-01
0.000000e+00
-3.155746e-03
-6.430797e-03
-9.808321e-03
-1.324566e-02
-1.668851e-02
-2.008532e-02
-2.339571e-02
-2.659245e-02
-2.965885e-02
-3.258508e-02
-3.536458e-02
-3.799168e-02
-4.045987e-02
-4.276072e-02
-4.488319e-02
-4.681305e-02
-4.853247e-02
-5.001984e-02
-5.124983e-02
-5.219402e-02
-5.282249e-02
-5.310719e-02
-5.302800e-02
-5.258338e-02
-5.180724e-02
-5.079352e-02
-4.972539e-02
-4.889621e-02
-4.868850e-02
-4.947035e-02
-5.140179e-02
-5.425174e-02
0.000000e+00
-5.091480e-06
-1.103978e-05
-1.751538e-05
-2.417765e-05
-3.056733e-05
-3.599229e-05
-3.940071e-05
-3.923297e-05
-3.324326e-05
-1.828429e-05
9.948800e-06
5.721485e-05
1.310569e-04
2.411505e-04
3.996396e-04
6.214088e-04
9.242062e-04
1.328486e-03
1.856766e-03
2.532196e-03
3.375907e-03
4.402536e-03
5.613195e-03
6.985205e-03
8.458467e-03
9.920183e-03
1.119368e-02
1.204379e-02
1.221619e-02
1.152203e-02
9.949993e-03
7.748269e-03
0.000000e+00
3.146156e-03
6.409961e-03
9.775196e-03
1.319983e-02
1.663041e-02
2.001664e-02
2.332014e-02
2.651655e-02
2.959342e-02
3.254678e-02
3.537819e-02
3.809277e-02
4.069822e-02
4.320440e-02
4.562319e-02
4.796858e-02
5.025650e-02
5.250437e-02
5.473018e-02
5.695054e-02
5.917769e-02
6.141480e-02
6.364945e-02
6.584531e-02
6.793310e-02
6.980352e-02
7.130791e-02
7.227452e-02
7.254818e-02
7.205256e-02
7.085836e-02
6.922424e-02
0.000000e+00
6.345594e-03
1.294102e-02
1.974498e-02
2.666076e-02
3.357242e-02
4.037656e-02
4.699864e-02
5.339335e-02
5.953779e-02
6.542343e-02
7.105015e-02
7.642251e-02
8.154773e-02
8.643482e-02
9.109418e-02
9.553748e-02
9.977739e-02
1.038271e-01
1.076991e-01
1.114034e-01
1.149448e-01
1.183184e-01
1.215048e-01
1.244639e-01
1.271301e-01
1.294106e-01
1.311918e-01
1.323577e-01
1.328238e-01
1.325841e-01
1.317578e-01
1.306173e-01
0.000000e+00
9.648905e-03
1.971028e-02
3.009423e-02
4.062146e-02
5.109569e-02
6.136139e-02
7.131803e-02
8.091137e-02
9.011643e-02
9.892481e-02
1.073367e-01
1.153564e-01
1.229902e-01
1.302452e-01
1.371291e-01
1.436501e-01
1.498164e-01
1.556360e-01
1.611155e-01
1.662588e-01
1.710648e-01
1.755240e-01
1.796154e-01
1.833030e-01
1.865330e-01
1.892360e-01
1.913337e-01
1.927564e-01
1.934692e-01
1.935093e-01
1.930246e-01
1.923038e-01
0.000000e+00
1.313436e-02
2.689413e-02
4.109291e-02
5.540649e-02
6.954398e-02
8.331046e-02
9.660741e-02
1.093903e-01
1.216426e-01
1.333607e-01
1.445466e-01
1.552043e-01
1.653382e-01
1.749528e-01
1.840518e-01
1.926387e-01
2.007163e-01
2.082865e-01
2.153498e-01
2.219040e-01
2.279430e-01
2.334553e-01
2.384218e-01
2.428146e-01
2.465968e-01
2.497251e-01
2.521564e-01
2.538603e-01
2.548393e-01
2.551568e-01
2.549748e-01
2.545951e-01
0.000000e+00
1.692742e-02
3.478964e-02
5.314061e-02
7.144832e-02
8.931229e-02
1.065794e-01
1.231945e-01
1.391421e-01
1.544208e-01
1.690335e-01
1.829834e-01
1.962732e-01
2.089043e-01
2.208770e-01
2.321903e-01
2.428421e-01
2.528288e-01
2.621457e-01
2.707859e-01
2.787409e-01
2.859996e-01
2.925481e-01
2.983700e-01
3.034466e-01
3.077589e-01
3.112909e-01
3.140344e-01
3.159980e-01
3.172182e-01
3.177795e-01
3.178464e-01
3.177205e-01
0.000000e+00
2.133870e-02
4.393143e-02
6.693482e-02
8.928775e-02
1.108177e-01
1.315106e-01
1.513853e-01
1.704582e-01
1.887393e-01
2.062337e-01
2.229426e-01
2.388649e-01
2.539977e-01
2.683361e-01
2.818738e-01
2.946023e-01
3.065113e-01
3.175882e-01
3.278181e-01
3.371845e-01
3.456689e-01
3.532530e-01
3.599198e-01
3.656567e-01
3.704592e-01
3.743361e-01
3.773146e-01
3.794463e-01
3.808117e-01
3.815263e-01
3.817590e-01
3.817868e-01
0.000000e+00
2.690380e-02
5.597746e-02
8.339252e-02
1.094522e-01
1.344045e-01
1.583808e-01
1.814381e-01
2.035980e-01
2.248653e-01
2.452380e-01
2.647102e-01
2.832747e-01
3.009230e-01
3.176451e-01
3.334289e-01
3.482603e-01
3.621216e-01
3.749921e-01
3.868475e-01
3.976605e-01
4.074019e-01
4.160430e-01
4.235590e-01
4.299342e-01
4.351692e-01
4.392885e-01
4.423502e-01
4.444534e-01
4.457422e-01
4.464006e-01
4.466393e-01
4.466978e-01
0.000000e+00
4.012202e-02
7.280262e-02
1.030820e-01
1.321466e-01
1.602178e-01
1.873521e-01
2.135470e-01
2.387849e-01
2.630459e-01
2.863111e-01
3.085644e-01
3.297915e-01
3.499789e-01
3.691124e-01
3.871760e-01
4.041507e-01
4.200126e-01
4.347329e-01
4.482766e-01
4.606030e-01
4.716667e-01
4.814203e-01
4.898189e-01
4.968280e-01
5.024334e-01
5.066550e-01
5.095633e-01
5.112967e-01
5.120778e-01
5.122197e-01
5.121021e-01
5.120360e-01
0.000000e+00
-2.478685e-02
-4.325840e-02
-6.341531e-02
-8.586123e-02
-1.112161e-01
-1.396562e-01
-1.712309e-01
-2.059088e-01
-2.436155e-01
-2.842512e-01
-3.277007e-01
-3.738402e-01
-4.225405e-01
-4.736699e-01
-5.270959e-01
-5.826865e-01
-6.403122e-01
-6.998478e-01
-7.611756e-01
-8.241886e-01
-8.887972e-01
-9.549372e-01
-1.022583e+00
-1.091768e+00
-1.162622e+00
-1.235424e+00
-1.310726e+00
-1.389577e+00
-1.474060e+00
-1.568666e+00
-1.683991e+00
-1.843314e+00
0.000000e+00
-1.540408e-02
-3.473893e-02
-5.503181e-02
-7.779059e-02
-1.034210e-01
-1.321374e-01
-1.639885e-01
-1.989455e-01
-2.369340e-01
-2.778537e-01
-3.215885e-01
-3.680134e-01
-4.169983e-01
-4.684101e-01
-5.221151e-01
-5.779796e-01
-6.358721e-01
-6.956653e-01
-7.572381e-01
-8.204802e-01
-8.852971e-01
-9.516188e-01
-1.019412e+00
-1.088702e+00
-1.159605e+00
-1.232388e+00
-1.307583e+00
-1.386220e+00
-1.470344e+00
-1.564219e+00
-1.676976e+00
-1.825826e+00
0.000000e+00
-1.131519e-02
-2.800636e-02
-4.802242e-02
-7.082095e-02
-9.664019e-02
-1.255833e-01
-1.576771e-01
-1.928831e-01
-2.311233e-01
-2.722956e-01
-3.162832e-01
-3.629604e-01
-4.121965e-01
-4.638583e-01
-5.178112e-01
-5.739211e-01
-6.320557e-01
-6.920866e-01
-7.538921e-01
-8.173606e-01
-8.823971e-01
-9.489313e-01
-1.016931e+00
-1.086424e+00
-1.157534e+00
-1.230538e+00
-1.305984e+00
-1.384887e+00
-1.469091e+00
-1.561745e+00
-1.666569e+00
-1.782850e+00
0.000000e+00
-9.060721e-03
-2.371573e-02
-4.266444e-02
-6.516998e-02
-9.098119e-02
-1.200481e-01
-1.523217e-01
-1.877326e-01
-2.261885e-01
-2.675807e-01
-3.117897e-01
-3.586886e-01
-4.081465e-01
-4.600303e-01
-5.142057e-01
-5.705391e-01
-6.288988e-01
-6.891570e-01
-7.511929e-01
-8.148965e-01
-8.801751e-01
-9.469618e-01
-1.015230e+00
-1.085013e+00
-1.156441e+00
-1.229790e+00
-1.305562e+00
-1.384590e+00
-1.468087e+00
-1.557217e+00
-1.651222e+00
-1.738730e+00
0.000000e+00
-7.666860e-03
-2.090982e-02
-3.885964e-02
-6.085215e-02
-8.649413e-02
-1.155720e-01
-1.479505e-01
-1.835126e-01
-2.221422e-01
-2.637184e-01
-3.081160e-01
-3.552060e-01
-4.048572e-01
-4.569367e-01
-5.113113e-01
-5.678488e-01
-6.264189e-01
-6.868955e-01
-7.491600e-01
-8.131048e-01
-8.786398e-01
-9.457012e-01
-1.014264e+00
-1.084360e+00
-1.156101e+00
-1.229714e+00
-1.305560e+00
-1.384118e+00
-1.465773e+00
-1.550136e+00
-1.634110e+00
-1.710320e+00
0.000000e+00
-6.779934e-03
-1.906879e-02
-3.624134e-02
-5.773879e-02
-8.314058e-02
-1.121552e-01
-1.445751e-01
-1.802369e-01
-2.189966e-01
-2.607186e-01
-3.052701e-01
-3.525192e-01
-4.023338e-01
-4.545819e-01
-5.091316e-01
-5.658522e-01
-6.246155e-01
-6.852976e-01
-7.477814e-01
-8.119611e-01
-8.777472e-01
-9.450737e-01
-1.013908e+00
-1.084263e+00
-1.156205e+00
-1.229862e+00
-1.305393e+00
-1.382886e+00
-1.462078e+00
-1.541763e+00
-1.619095e+00
-1.689776e+00
0.000000e+00
-6.228719e-03
-1.790480e-02
-3.453939e-02
-5.565307e-02
-8.083597e-02
-1.097644e-01
-1.421884e-01
-1.779090e-01
-2.167588e-01
-2.585883e-01
-3.032574e-01
-3.506313e-01
-4.005773e-01
-4.529640e-01
-5.076612e-01
-5.645399e-01
-6.234737e-01
-6.843400e-01
-7.470226e-01
-8.114147e-01
-8.774232e-01
-9.449734e-01
-1.014014e+00
-1.084522e+00
-1.156498e+00
-1.229949e+00
-1.304832e+00
-1.380932e+00
-1.457629e+00
-1.533596e+00
-1.606643e+00
-1.674086e+00
0.000000e+00
-5.925818e-03
-1.725893e-02
-3.358030e-02
-5.445709e-02
-7.949355e-02
-1.083556e-01
-1.407725e-01
-1.765249e-01
-2.154304e-01
-2.573303e-01
-3.020796e-01
-3.495417e-01
-3.995837e-01
-4.520755e-01
-5.068880e-01
-5.638940e-01
-6.229680e-01
-6.839879e-01
-7.468364e-01
-8.114027e-01
-8.775856e-01
-9.452950e-01
-1.014453e+00
-1.084989e+00
-1.156833e+00
-1.229876e+00
-1.303922e+00
-1.378574e+00
-1.453097e+00
-1.526296e+00
-1.596523e+00
-1.661946e+00
0.000000e+00
-5.828225e-03
-1.705055e-02
-3.326946e-02
-5.406730e-02
-7.905419e-02
-1.078941e-01
-1.403105e-01
-1.760780e-01
-2.150095e-01
-2.569437e-01
-3.017347e-01
-3.492459e-01
-3.993455e-01
-4.519044e-01
-5.067951e-01
-5.638911e-01
-6.230677e-01
-6.842016e-01
-7.471723e-01
-8.118628e-01
-8.781596e-01
-9.459528e-01
-1.015133e+00
-1.085583e+00
-1.157163e+00
-1.229679e+00
-1.302831e+00
-1.376147e+00
-1.448905e+00
-1.520093e+00
-1.588452e+00
-1.652642e+00
0.000000e+00
-5.922995e-03
-1.725501e-02
-3.357693e-02
-5.445607e-02
-7.949713e-02
-1.083668e-01
-1.407951e-01
-1.765642e-01
-2.154932e-01
-2.574253e-01
-3.022179e-01
-3.497368e-01
-3.998521e-01
-4.524364e-01
-5.073631e-01
-5.645064e-01
-6.237411e-01
-6.849418e-01
-7.479836e-01
-8.127407e-01
-8.790858e-01
-9.468875e-01
-1.016005e+00
-1.086277e+00
-1.157511e+00
-1.229449e+00
-1.301743e+00
-1.373905e+00
-1.445277e+00
-1.515026e+00
-1.582178e+00
-1.645708e+00
0.000000e+00
-6.223302e-03
-1.789728e-02
-3.453289e-02
-5.565103e-02
-8.084269e-02
-1.097856e-01
-1.422315e-01
-1.779841e-01
-2.168789e-01
-2.587702e-01
-3.035223e-01
-3.510053e-01
-4.010920e-01
-4.536563e-01
-5.085729e-01
-5.657160e-01
-6.249591e-01
-6.861743e-01
-7.492309e-01
-8.139943e-01
-8.803229e-01
-9.480644e-01
-1.017049e+00
-1.087082e+00
-1.157928e+00
-1.229294e+00
-1.300810e+00
-1.372009e+00
-1.442314e+00
-1.511052e+00
-1.577471e+00
-1.640786e+00
0.000000e+00
-6.772404e-03
-1.905834e-02
-3.623226e-02
-5.773585e-02
-8.314979e-02
-1.121845e-01
-1.446350e-01
-1.803414e-01
-2.191640e-01
-2.609724e-01
-3.056401e-01
-3.530419e-01
-4.030536e-01
-4.555507e-01
-5.104081e-01
-5.674999e-01
-6.266982e-01
-6.878719e-01
-7.508851e-01
-8.155944e-01
-8.818451e-01
-9.494672e-01
-1.018268e+00
-1.088025e+00
-1.158475e+00
-1.229304e+00
-1.300142e+00
-1.370553e+00
-1.440045e+00
-1.508085e+00
-1.574114e+00
-1.637560e+00
0.000000e+00
-7.657991e-03
-2.089752e-02
-3.884893e-02
-6.084874e-02
-8.650528e-02
-1.156073e-01
-1.480227e-01
-1.836388e-01
-2.223444e-01
-2.640252e-01
-3.085632e-01
-3.558382e-01
-4.057279e-01
-4.581089e-01
-5.128565e-01
-5.698440e-01
-6.289421e-01
-6.900168e-01
-7.529274e-01
-8.175233e-01
-8.836394e-01
-9.510915e-01
-1.019670e+00
-1.089132e+00
-1.159198e+00
-1.229544e+00
-1.299805e+00
-1.369580e+00
-1.438453e+00
-1.506014e+00
-1.571885e+00
-1.635713e+00
0.000000e+00
-9.051605e-03
-2.370311e-02
-4.265356e-02
-6.516706e-02
-9.099428e-02
-1.200879e-01
-1.524024e-01
-1.878729e-01
-2.264129e-01
-2.679208e-01
-3.122850e-01
-3.593881e-01
-4.091095e-01
-4.613259e-01
-5.159125e-01
-5.727421e-01
-6.316837e-01
-6.926012e-01
-7.553502e-01
-8.197747e-01
-8.857023e-01
-9.529391e-01
-1.021264e+00
-1.090423e+00
-1.160125e+00
-1.230045e+00
-1.299823e+00
-1.369089e+00
-1.437487e+00
-1.504712e+00
-1.570554e+00
-1.634908e+00
0.000000e+00
-1.130724e-02
-2.799530e-02
-4.801323e-02
-7.082008e-02
-9.665612e-02
-1.256272e-01
-1.577639e-01
-1.930322e-01
-2.313601e-01
-2.726526e-01
-3.168013e-01
-3.636899e-01
-4.131982e-01
-4.652029e-01
-5.195785e-01
-5.761971e-01
-6.349266e-01
-6.956291e-01
-7.581579e-01
-8.223534e-01
-8.880390e-01
-9.550157e-01
-1.023056e+00
-1.091902e+00
-1.161258e+00
-1.230798e+00
-1.300174e+00
-1.369034e+00
-1.437064e+00
-1.504037e+00
-1.569885e+00
-1.634768e+00
0.000000e+00
-1.539898e-02
-3.473140e-02
-5.502641e-02
-7.779393e-02
-1.034417e-01
-1.321869e-01
-1.640816e-01
-1.991016e-01
-2.371784e-01
-2.782183e-01
-3.221135e-01
-3.687479e-01
-4.180009e-01
-4.697488e-01
-5.238658e-01
-5.802227e-01
-6.386867e-01
-6.991182e-01
-7.613691e-01
-8.252779e-01
-8.906662e-01
-9.573329e-01
-1.025050e+00
-1.093558e+00
-1.162565e+00
-1.231750e+00
-1.300774e+00
-1.369302e+00
-1.437044e+00
-1.503817e+00
-1.569644e+00
-1.634887e+00
0.000000e+00
-2.478613e-02
-4.325589e-02
-6.341579e-02
-8.587135e-02
-1.112446e-01
-1.397144e-01
-1.713335e-01
-2.060749e-01
-2.438696e-01
-2.846240e-01
-3.282305e-01
-3.745732e-01
-4.235313e-01
-4.749809e-01
-5.287950e-01
-5.848439e-01
-6.429931e-01
-7.031018e-01
-7.650200e-01
-8.285851e-01
-8.936174e-01
-9.599158e-01