TITLE = "Solution"
VARIABLES = x, y, u, v, psiu, psiv, t, stress
ZONE T="structure" N=561 E=512 F=FEBLOCK ET=QUADRILATERAL VARLOCATION=([7,8]=cellcentered)
0.000000e+00
6.250000e+00
1.250000e+01
1.875000e+01
2.500000e+01
3.125000e+01
3.750000e+01
4.375000e+01
5.000000e+01
5.625000e+01
6.250000e+01
6.875000e+01
7.500000e+01
8.125000e+01
8.750000e+01
9.375000e+01
1.000000e+02
1.062500e+02
1.125000e+02
1.187500e+02
1.250000e+02
1.312500e+02
1.375000e+02
1.437500e+02
1.500000e+02
1.562500e+02
1.625000e+02
1.687500e+02
1.750000e+02
1.812500e+02
1.875000e+02
1.937500e+02
2.000000e+02
0.000000e+00
6.250000e+00
1.250000e+01
1.875000e+01
2.500000e+01
3.125000e+01
3.750000e+01
4.375000e+01
5.000000e+01
5.625000e+01
6.250000e+01
6.875000e+01
7.500000e+01
8.125000e+01
8.750000e+01
9.375000e+01
1.000000e+02
1.062500e+02
1.125000e+02
1.187500e+02
1.250000e+02
1.312500e+02
1.375000e+02
1.437500e+02
1.500000e+02
1.562500e+02
1.625000e+02
1.687500e+02
1.750000e+02
1.812500e+02
1.875000e+02
1.937500e+02
2.000000e+02
0.000000e+00
6.250000e+00
1.250000e+01
1.875000e+01
2.500000e+01
3.125000e+01
3.750000e+01
4.375000e+01
5.000000e+01
5.625000e+01
6.250000e+01
6.875000e+01
7.500000e+01
8.125000e+01
8.750000e+01
9.375000e+01
1.000000e+02
1.062500e+02
1.125000e+02
1.187500e+02
1.250000e+02
1.312500e+02
1.375000e+02
1.437500e+02
1.500000e+02
1.562500e+02
1.625000e+02
1.687500e+02
1.750000e+02
1.812500e+02
1.875000e+02
1.937500e+02
2.000000e+02
0.000000e+00
6.250000e+00
1.250000e+01
1.875000e+01
2.500000e+01
3.125000e+01
3.750000e+01
4.375000e+01
5.000000e+01
5.625000e+01
6.250000e+01
6.875000e+01
7.500000e+01
8.125000e+01
8.750000e+01
9.375000e+01
1.000000e+02
1.062500e+02
1.125000e+02
1.187500e+02
1.250000e+02
1.312500e+02
1.375000e+02
1.437500e+02
1.500000e+02
1.562500e+02
1.625000e+02
1.687500e+02
1.750000e+02
1.812500e+02
1.875000e+02
1.937500e+02
2.000000e+02
0.000000e+00
6.250000e+00
1.250000e+01
1.875000e+01
2.500000e+01
3.125000e+01
3.750000e+01
4.375000e+01
5.000000e+01
5.625000e+01
6.250000e+01
6.875000e+01
7.500000e+01
8.125000e+01
8.750000e+01
9.375000e+01
1.000000e+02
1.062500e+02
1.125000e+02
1.187500e+02
1.250000e+02
1.312500e+02
1.375000e+02
1.437500e+02
1.500000e+02
1.562500e+02
1.625000e+02
1.687500e+02
1.750000e+02
1.812500e+02
1.875000e+02
1.937500e+02
2.000000e+02
0.000000e+00
6.250000e+00
1.250000e+01
1.875000e+01
2.500000e+01
3.125000e+01
3.750000e+01
4.375000e+01
5.000000e+01
5.625000e+01
6.250000e+01
6.875000e+01
7.500000e+01
8.125000e+01
8.750000e+01
9.375000e+01
1.000000e+02
1.062500e+02
1.125000e+02
1.187500e+02
1.250000e+02
1.312500e+02
1.375000e+02
1.437500e+02
1.500000e+02
1.562500e+02
1.625000e+02
1.687500e+02
1.750000e+02
1.812500e+02
1.875000e+02
1.937500e+02
2.000000e+02
0.000000e+00
6.250000e+00
1.250000e+01
1.875000e+01
2.500000e+01
3.125000e+01
3.750000e+01
4.375000e+01
5.000000e+01
5.625000e+01
6.250000e+01
6.875000e+01
7.500000e+01
8.125000e+01
8.750000e+01
9.375000e+01
1.000000e+02
1.062500e+02
1.125000e+02
1.187500e+02
1.250000e+02
1.312500e+02
1.375000e+02
1.437500e+02
1.500000e+02
1.562500e+02
1.625000e+02
1.687500e+02
1.750000e+02
1.812500e+02
1.875000e+02
1.937500e+02
2.000000e+02
0.000000e+00
6.250000e+00
1.250000e+01
1.875000e+01
2.500000e+01
3.125000e+01
3.750000e+01
4.375000e+01
5.000000e+01
5.625000e+01
6.250000e+01
6.875000e+01
7.500000e+01
8.125000e+01
8.750000e+01
9.375000e+01
1.000000e+02
1.062500e+02
1.125000e+02
1.187500e+02
1.250000e+02
1.312500e+02
1.375000e+02
1.437500e+02
1.500000e+02
1.562500e+02
1.625000e+02
1.687500e+02
1.750000e+02
1.812500e+02
1.875000e+02
1.937500e+02
2.000000e+02
0.000000e+00
6.250000e+00
1.250000e+01
1.875000e+01
2.500000e+01
3.125000e+01
3.750000e+01
4.375000e+01
5.000000e+01
5.625000e+01
6.250000e+01
6.875000e+01
7.500000e+01
8.125000e+01
8.750000e+01
9.375000e+01
1.000000e+02
1.062500e+02
1.125000e+02
1.187500e+02
1.250000e+02
1.312500e+02
1.375000e+02
1.437500e+02
1.500000e+02
1.562500e+02
1.625000e+02
1.687500e+02
1.750000e+02
1.812500e+02
1.875000e+02
1.937500e+02
2.000000e+02
0.000000e+00
6.250000e+00
1.250000e+01
1.875000e+01
2.500000e+01
3.125000e+01
3.750000e+01
4.375000e+01
5.000000e+01
5.625000e+01
6.250000e+01
6.875000e+01
7.500000e+01
8.125000e+01
8.750000e+01
9.375000e+01
1.000000e+02
1.062500e+02
1.125000e+02
1.187500e+02
1.250000e+02
1.312500e+02
1.375000e+02
1.437500e+02
1.500000e+02
1.562500e+02
1.625000e+02
1.687500e+02
1.750000e+02
1.812500e+02
1.875000e+02
1.937500e+02
2.000000e+02
0.000000e+00
6.250000e+00
1.250000e+01
1.875000e+01
2.500000e+01
3.125000e+01
3.750000e+01
4.375000e+01
5.000000e+01
5.625000e+01
6.250000e+01
6.875000e+01
7.500000e+01
8.125000e+01
8.750000e+01
9.375000e+01
1.000000e+02
1.062500e+02
1.125000e+02
1.187500e+02
1.250000e+02
1.312500e+02
1.375000e+02
1.437500e+02
1.500000e+02
1.562500e+02
1.625000e+02
1.687500e+02
1.750000e+02
1.812500e+02
1.875000e+02
1.937500e+02
2.000000e+02
0.000000e+00
6.250000e+00
1.250000e+01
1.875000e+01
2.500000e+01
3.125000e+01
3.750000e+01
4.375000e+01
5.000000e+01
5.625000e+01
6.250000e+01
6.875000e+01
7.500000e+01
8.125000e+01
8.750000e+01
9.375000e+01
1.000000e+02
1.062500e+02
1.125000e+02
1.187500e+02
1.250000e+02
1.312500e+02
1.375000e+02
1.437500e+02
1.500000e+02
1.562500e+02
1.625000e+02
1.687500e+02
1.750000e+02
1.812500e+02
1.875000e+02
1.937500e+02
2.000000e+02
0.000000e+00
6.250000e+00
1.250000e+01
1.875000e+01
2.500000e+01
3.125000e+01
3.750000e+01
4.375000e+01
5.000000e+01
5.625000e+01
6.250000e+01
6.875000e+01
7.500000e+01
8.125000e+01
8.750000e+01
9.375000e+01
1.000000e+02
1.062500e+02
1.125000e+02
1.187500e+02
1.250000e+02
1.312500e+02
1.375000e+02
1.437500e+02
1.500000e+02
1.562500e+02
1.625000e+02
1.687500e+02
1.750000e+02
1.812500e+02
1.875000e+02
1.937500e+02
2.000000e+02
0.000000e+00
6.250000e+00
1.250000e+01
1.875000e+01
2.500000e+01
3.125000e+01
3.750000e+01
4.375000e+01
5.000000e+01
5.625000e+01
6.250000e+01
6.875000e+01
7.500000e+01
8.125000e+01
8.750000e+01
9.375000e+01
1.000000e+02
1.062500e+02
1.125000e+02
1.187500e+02
1.250000e+02
1.312500e+02
1.375000e+02
1.437500e+02
1.500000e+02
1.562500e+02
1.625000e+02
1.687500e+02
1.750000e+02
1.812500e+02
1.875000e+02
1.937500e+02
2.000000e+02
0.000000e+00
6.250000e+00
1.250000e+01
1.875000e+01
2.500000e+01
3.125000e+01
3.750000e+01
4.375000e+01
5.000000e+01
5.625000e+01
6.250000e+01
6.875000e+01
7.500000e+01
8.125000e+01
8.750000e+01
9.375000e+01
1.000000e+02
1.062500e+02
1.125000e+02
1.187500e+02
1.250000e+02
1.312500e+02
1.375000e+02
1.437500e+02
1.500000e+02
1.562500e+02
1.625000e+02
1.687500e+02
1.750000e+02
1.812500e+02
1.875000e+02
1.937500e+02
2.000000e+02
0.000000e+00
6.250000e+00
1.250000e+01
1.875000e+01
2.500000e+01
3.125000e+01
3.750000e+01
4.375000e+01
5.000000e+01
5.625000e+01
6.250000e+01
6.875000e+01
7.500000e+01
8.125000e+01
8.750000e+01
9.375000e+01
1.000000e+02
1.062500e+02
1.125000e+02
1.187500e+02
1.250000e+02
1.312500e+02
1.375000e+02
1.437500e+02
1.500000e+02
1.562500e+02
1.625000e+02
1.687500e+02
1.750000e+02
1.812500e+02
1.875000e+02
1.937500e+02
2.000000e+02
0.000000e+00
6.250000e+00
1.250000e+01
1.875000e+01
2.500000e+01
3.125000e+01
3.750000e+01
4.375000e+01
5.000000e+01
5.625000e+01
6.250000e+01
6.875000e+01
7.500000e+01
8.125000e+01
8.750000e+01
9.375000e+01
1.000000e+02
1.062500e+02
1.125000e+02
1.187500e+02
1.250000e+02
1.312500e+02
1.375000e+02
1.437500e+02
1.500000e+02
1.562500e+02
1.625000e+02
1.687500e+02
1.750000e+02
1.812500e+02
1.875000e+02
1.937500e+02
2.000000e+02
0.000000e+00
0.000000e+00
0.000000e+00
0.000000e+00
0.000000e+00
0.000000e+00
0.000000e+00
0.000000e+00
0.000000e+00
0.000000e+00
0.000000e+00
0.000000e+00
0.000000e+00
0.000000e+00
0.000000e+00
0.000000e+00
0.000000e+00
0.000000e+00
0.000000e+00
0.000000e+00
0.000000e+00
0.000000e+00
0.000000e+00
0.000000e+00
0.000000e+00
0.000000e+00
0.000000e+00
0.000000e+00
0.000000e+00
0.000000e+00
0.000000e+00
0.000000e+00
0.000000e+00
6.250000e+00
6.250000e+00
6.250000e+00
6.250000e+00
6.250000e+00
6.250000e+00
6.250000e+00
6.250000e+00
6.250000e+00
6.250000e+00
6.250000e+00
6.250000e+00
6.250000e+00
6.250000e+00
6.250000e+00
6.250000e+00
6.250000e+00
6.250000e+00
6.250000e+00
6.250000e+00
6.250000e+00
6.250000e+00
6.250000e+00
6.250000e+00
6.250000e+00
6.250000e+00
6.250000e+00
6.250000e+00
6.250000e+00
6.250000e+00
6.250000e+00
6.250000e+00
6.250000e+00
1.250000e+01
1.250000e+01
1.250000e+01
1.250000e+01
1.250000e+01
1.250000e+01
1.250000e+01
1.250000e+01
1.250000e+01
1.250000e+01
1.250000e+01
1.250000e+01
1.250000e+01
1.250000e+01
1.250000e+01
1.250000e+01
1.250000e+01
1.250000e+01
1.250000e+01
1.250000e+01
1.250000e+01
1.250000e+01
1.250000e+01
1.250000e+01
1.250000e+01
1.250000e+01
1.250000e+01
1.250000e+01
1.250000e+01
1.250000e+01
1.250000e+01
1.250000e+01
1.250000e+01
1.875000e+01
1.875000e+01
1.875000e+01
1.875000e+01
1.875000e+01
1.875000e+01
1.875000e+01
1.875000e+01
1.875000e+01
1.875000e+01
1.875000e+01
1.875000e+01
1.875000e+01
1.875000e+01
1.875000e+01
1.875000e+01
1.875000e+01
1.875000e+01
1.875000e+01
1.875000e+01
1.875000e+01
1.875000e+01
1.875000e+01
1.875000e+01
1.875000e+01
1.875000e+01
1.875000e+01
1.875000e+01
1.875000e+01
1.875000e+01
1.875000e+01
1.875000e+01
1.875000e+01
2.500000e+01
2.500000e+01
2.500000e+01
2.500000e+01
2.500000e+01
2.500000e+01
2.500000e+01
2.500000e+01
2.500000e+01
2.500000e+01
2.500000e+01
2.500000e+01
2.500000e+01
2.500000e+01
2.500000e+01
2.500000e+01
2.500000e+01
2.500000e+01
2.500000e+01
2.500000e+01
2.500000e+01
2.500000e+01
2.500000e+01
2.500000e+01
2.500000e+01
2.500000e+01
2.500000e+01
2.500000e+01
2.500000e+01
2.500000e+01
2.500000e+01
2.500000e+01
2.500000e+01
3.125000e+01
3.125000e+01
3.125000e+01
3.125000e+01
3.125000e+01
3.125000e+01
3.125000e+01
3.125000e+01
3.125000e+01
3.125000e+01
3.125000e+01
3.125000e+01
3.125000e+01
3.125000e+01
3.125000e+01
3.125000e+01
3.125000e+01
3.125000e+01
3.125000e+01
3.125000e+01
3.125000e+01
3.125000e+01
3.125000e+01
3.125000e+01
3.125000e+01
3.125000e+01
3.125000e+01
3.125000e+01
3.125000e+01
3.125000e+01
3.125000e+01
3.125000e+01
3.125000e+01
3.750000e+01
3.750000e+01
3.750000e+01
3.750000e+01
3.750000e+01
3.750000e+01
3.750000e+01
3.750000e+01
3.750000e+01
3.750000e+01
3.750000e+01
3.750000e+01
3.750000e+01
3.750000e+01
3.750000e+01
3.750000e+01
3.750000e+01
3.750000e+01
3.750000e+01
3.750000e+01
3.750000e+01
3.750000e+01
3.750000e+01
3.750000e+01
3.750000e+01
3.750000e+01
3.750000e+01
3.750000e+01
3.750000e+01
3.750000e+01
3.750000e+01
3.750000e+01
3.750000e+01
4.375000e+01
4.375000e+01
4.375000e+01
4.375000e+01
4.375000e+01
4.375000e+01
4.375000e+01
4.375000e+01
4.375000e+01
4.375000e+01
4.375000e+01
4.375000e+01
4.375000e+01
4.375000e+01
4.375000e+01
4.375000e+01
4.375000e+01
4.375000e+01
4.375000e+01
4.375000e+01
4.375000e+01
4.375000e+01
4.375000e+01
4.375000e+01
4.375000e+01
4.375000e+01
4.375000e+01
4.375000e+01
4.375000e+01
4.375000e+01
4.375000e+01
4.375000e+01
4.375000e+01
5.000000e+01
5.000000e+01
5.000000e+01
5.000000e+01
5.000000e+01
5.000000e+01
5.000000e+01
5.000000e+01
5.000000e+01
5.000000e+01
5.000000e+01
5.000000e+01
5.000000e+01
5.000000e+01
5.000000e+01
5.000000e+01
5.000000e+01
5.000000e+01
5.000000e+01
5.000000e+01
5.000000e+01
5.000000e+01
5.000000e+01
5.000000e+01
5.000000e+01
5.000000e+01
5.000000e+01
5.000000e+01
5.000000e+01
5.000000e+01
5.000000e+01
5.000000e+01
5.000000e+01
5.625000e+01
5.625000e+01
5.625000e+01
5.625000e+01
5.625000e+01
5.625000e+01
5.625000e+01
5.625000e+01
5.625000e+01
5.625000e+01
5.625000e+01
5.625000e+01
5.625000e+01
5.625000e+01
5.625000e+01
5.625000e+01
5.625000e+01
5.625000e+01
5.625000e+01
5.625000e+01
5.625000e+01
5.625000e+01
5.625000e+01
5.625000e+01
5.625000e+01
5.625000e+01
5.625000e+01
5.625000e+01
5.625000e+01
5.625000e+01
5.625000e+01
5.625000e+01
5.625000e+01
6.250000e+01
6.250000e+01
6.250000e+01
6.250000e+01
6.250000e+01
6.250000e+01
6.250000e+01
6.250000e+01
6.250000e+01
6.250000e+01
6.250000e+01
6.250000e+01
6.250000e+01
6.250000e+01
6.250000e+01
6.250000e+01
6.250000e+01
6.250000e+01
6.250000e+01
6.250000e+01
6.250000e+01
6.250000e+01
6.250000e+01
6.250000e+01
6.250000e+01
6.250000e+01
6.250000e+01
6.250000e+01
6.250000e+01
6.250000e+01
6.250000e+01
6.250000e+01
6.250000e+01
6.875000e+01
6.875000e+01
6.875000e+01
6.875000e+01
6.875000e+01
6.875000e+01
6.875000e+01
6.875000e+01
6.875000e+01
6.875000e+01
6.875000e+01
6.875000e+01
6.875000e+01
6.875000e+01
6.875000e+01
6.875000e+01
6.875000e+01
6.875000e+01
6.875000e+01
6.875000e+01
6.875000e+01
6.875000e+01
6.875000e+01
6.875000e+01
6.875000e+01
6.875000e+01
6.875000e+01
6.875000e+01
6.875000e+01
6.875000e+01
6.875000e+01
6.875000e+01
6.875000e+01
7.500000e+01
7.500000e+01
7.500000e+01
7.500000e+01
7.500000e+01
7.500000e+01
7.500000e+01
7.500000e+01
7.500000e+01
7.500000e+01
7.500000e+01
7.500000e+01
7.500000e+01
7.500000e+01
7.500000e+01
7.500000e+01
7.500000e+01
7.500000e+01
7.500000e+01
7.500000e+01
7.500000e+01
7.500000e+01
7.500000e+01
7.500000e+01
7.500000e+01
7.500000e+01
7.500000e+01
7.500000e+01
7.500000e+01
7.500000e+01
7.500000e+01
7.500000e+01
7.500000e+01
8.125000e+01
8.125000e+01
8.125000e+01
8.125000e+01
8.125000e+01
8.125000e+01
8.125000e+01
8.125000e+01
8.125000e+01
8.125000e+01
8.125000e+01
8.125000e+01
8.125000e+01
8.125000e+01
8.125000e+01
8.125000e+01
8.125000e+01
8.125000e+01
8.125000e+01
8.125000e+01
8.125000e+01
8.125000e+01
8.125000e+01
8.125000e+01
8.125000e+01
8.125000e+01
8.125000e+01
8.125000e+01
8.125000e+01
8.125000e+01
8.125000e+01
8.125000e+01
8.125000e+01
8.750000e+01
8.750000e+01
8.750000e+01
8.750000e+01
8.750000e+01
8.750000e+01
8.750000e+01
8.750000e+01
8.750000e+01
8.750000e+01
8.750000e+01
8.750000e+01
8.750000e+01
8.750000e+01
8.750000e+01
8.750000e+01
8.750000e+01
8.750000e+01
8.750000e+01
8.750000e+01
8.750000e+01
8.750000e+01
8.750000e+01
8.750000e+01
8.750000e+01
8.750000e+01
8.750000e+01
8.750000e+01
8.750000e+01
8.750000e+01
8.750000e+01
8.750000e+01
8.750000e+01
9.375000e+01
9.375000e+01
9.375000e+01
9.375000e+01
9.375000e+01
9.375000e+01
9.375000e+01
9.375000e+01
9.375000e+01
9.375000e+01
9.375000e+01
9.375000e+01
9.375000e+01
9.375000e+01
9.375000e+01
9.375000e+01
9.375000e+01
9.375000e+01
9.375000e+01
9.375000e+01
9.375000e+01
9.375000e+01
9.375000e+01
9.375000e+01
9.375000e+01
9.375000e+01
9.375000e+01
9.375000e+01
9.375000e+01
9.375000e+01
9.375000e+01
9.375000e+01
9.375000e+01
1.000000e+02
1.000000e+02
1.000000e+02
1.000000e+02
1.000000e+02
1.000000e+02
1.000000e+02
1.000000e+02
1.000000e+02
1.000000e+02
1.000000e+02
1.000000e+02
1.000000e+02
1.000000e+02
1.000000e+02
1.000000e+02
1.000000e+02
1.000000e+02
1.000000e+02
1.000000e+02
1.000000e+02
1.000000e+02
1.000000e+02
1.000000e+02
1.000000e+02
1.000000e+02
1.000000e+02
1.000000e+02
1.000000e+02
1.000000e+02
1.000000e+02
1.000000e+02
1.000000e+02
0.000000e+00
-4.859814e-02
-8.817485e-02
-1.248371e-01
-1.600225e-01
-1.939994e-01
-2.268360e-01
-2.585293e-01
-2.890594e-01
-3.184041e-01
-3.465450e-01
-3.734694e-01
-3.991707e-01
-4.236485e-01
-4.469083e-01
-4.689625e-01
-4.898309e-01
-5.095421e-01
-5.281358e-01
-5.456654e-01
-5.622022e-01
-5.778406e-01
-5.927050e-01
-6.069608e-01
-6.208293e-01
-6.346115e-01
-6.487254e-01
-6.637670e-01
-6.806106e-01
-7.005429e-01
-7.252331e-01
-7.546570e-01
-7.726140e-01
0.000000e+00
-3.258374e-02
-6.779397e-02
-1.009926e-01
-1.325466e-01
-1.627564e-01
-1.917817e-01
-2.196923e-01
-2.465161e-01
-2.722620e-01
-2.969318e-01
-3.205256e-01
-3.430443e-01
-3.644917e-01
-3.848748e-01
-4.042051e-01
-4.224989e-01
-4.397789e-01
-4.560750e-01
-4.714261e-01
-4.858818e-01
-4.995046e-01
-5.123722e-01
-5.245794e-01
-5.362397e-01
-5.474837e-01
-5.584491e-01
-5.692494e-01
-5.798838e-01
-5.900063e-01
-5.984411e-01
-6.033725e-01
-6.102378e-01
0.000000e+00
-2.584550e-02
-5.320917e-02
-8.106975e-02
-1.081416e-01
-1.342158e-01
-1.592758e-01
-1.833451e-01
-2.064452e-01
-2.285906e-01
-2.497906e-01
-2.700520e-01
-2.893802e-01
-3.077811e-01
-3.252613e-01
-3.418295e-01
-3.574964e-01
-3.722754e-01
-3.861832e-01
-3.992397e-01
-4.114676e-01
-4.228917e-01
-4.335363e-01
-4.434204e-01
-4.525478e-01
-4.608892e-01
-4.683492e-01
-4.747083e-01
-4.795364e-01
-4.821362e-01
-4.819083e-01
-4.804484e-01
-4.884652e-01
0.000000e+00
-2.050611e-02
-4.214473e-02
-6.437572e-02
-8.655461e-02
-1.081963e-01
-1.291154e-01
-1.492455e-01
-1.685686e-01
-1.870839e-01
-2.047961e-01
-2.217112e-01
-2.378349e-01
-2.531723e-01
-2.677278e-01
-2.815056e-01
-2.945095e-01
-3.067429e-01
-3.182081e-01
-3.289059e-01
-3.388335e-01
-3.479819e-01
-3.563307e-01
-3.638411e-01
-3.704438e-01
-3.760222e-01
-3.803916e-01
-3.832852e-01
-3.843900e-01
-3.835698e-01
-3.815779e-01
-3.814589e-01
-3.890970e-01
0.000000e+00
-1.591560e-02
-3.258974e-02
-4.979651e-02
-6.714308e-02
-8.427690e-02
-1.009616e-01
-1.170774e-01
-1.325699e-01
-1.474182e-01
-1.616169e-01
-1.751666e-01
-1.880699e-01
-2.003291e-01
-2.119448e-01
-2.229160e-01
-2.332394e-01
-2.429086e-01
-2.519138e-01
-2.602399e-01
-2.678643e-01
-2.747547e-01
-2.808637e-01
-2.861244e-01
-2.904438e-01
-2.936996e-01
-2.957483e-01
-2.964670e-01
-2.958774e-01
-2.944347e-01
-2.934988e-01
-2.956602e-01
-3.021758e-01
0.000000e+00
-1.169705e-02
-2.389524e-02
-3.648532e-02
-4.924975e-02
-6.195027e-02
-7.439770e-02
-8.646911e-02
-9.809699e-02
-1.092485e-01
-1.199099e-01
-1.300762e-01
-1.397457e-01
-1.489166e-01
-1.575856e-01
-1.657464e-01
-1.733894e-01
-1.805005e-01
-1.870606e-01
-1.930440e-01
-1.984169e-01
-2.031358e-01
-2.071457e-01
-2.103791e-01
-2.127593e-01
-2.142117e-01
-2.146936e-01
-2.142612e-01
-2.131954e-01
-2.121813e-01
-2.124282e-01
-2.151836e-01
-2.205748e-01
0.000000e+00
-7.698062e-03
-1.570062e-02
-2.395704e-02
-3.234959e-02
-4.073700e-02
-4.899278e-02
-5.702474e-02
-6.477516e-02
-7.221222e-02
-7.931983e-02
-8.608989e-02
-9.251722e-02
-9.859647e-02
-1.043203e-01
-1.096783e-01
-1.146559e-01
-1.192340e-01
-1.233881e-01
-1.270876e-01
-1.302952e-01
-1.329676e-01
-1.350561e-01
-1.365115e-01
-1.372935e-01
-1.373905e-01
-1.368558e-01
-1.358665e-01
-1.347988e-01
-1.342813e-01
-1.350888e-01
-1.377714e-01
-1.421233e-01
0.000000e+00
-3.823625e-03
-7.791806e-03
-1.188415e-02
-1.604897e-02
-2.022046e-02
-2.433617e-02
-2.834718e-02
-3.222047e-02
-3.593586e-02
-3.948139e-02
-4.284915e-02
-4.603226e-02
-4.902281e-02
-5.181062e-02
-5.438230e-02
-5.672059e-02
-5.880392e-02
-6.060608e-02
-6.209639e-02
-6.324041e-02
-6.400190e-02
-6.434685e-02
-6.425090e-02
-6.371217e-02
-6.277177e-02
-6.154351e-02
-6.024932e-02
-5.924465e-02
-5.899298e-02
-5.994029e-02
-6.228051e-02
-6.573363e-02
0.000000e+00
-6.169164e-06
-1.337647e-05
-2.122266e-05
-2.929500e-05
-3.703703e-05
-4.361012e-05
-4.773988e-05
-4.753659e-05
-4.027915e-05
-2.215416e-05
1.205435e-05
6.932399e-05
1.587942e-04
2.921884e-04
4.842206e-04
7.529257e-04
1.119808e-03
1.609651e-03
2.249737e-03
3.068117e-03
4.090394e-03
5.334301e-03
6.801188e-03
8.463575e-03
1.024864e-02
1.201972e-02
1.356274e-02
1.459278e-02
1.480166e-02
1.396059e-02
1.205584e-02
9.388137e-03
0.000000e+00
3.812006e-03
7.766560e-03
1.184401e-02
1.599343e-02
2.015006e-02
2.425295e-02
2.825561e-02
3.212851e-02
3.585658e-02
3.943499e-02
4.286564e-02
4.615474e-02
4.931162e-02
5.234820e-02
5.527892e-02
5.812070e-02
6.089283e-02
6.361645e-02
6.631333e-02
6.900361e-02
7.170212e-02
7.441270e-02
7.712030e-02
7.978090e-02
8.231056e-02
8.457684e-02
8.639962e-02
8.757081e-02
8.790238e-02
8.730187e-02
8.585492e-02
8.387496e-02
0.000000e+00
7.688570e-03
1.567985e-02
2.392379e-02
3.230322e-02
4.067767e-02
4.892184e-02
5.694542e-02
6.469351e-02
7.213837e-02
7.926965e-02
8.608723e-02
9.259660e-02
9.880653e-02
1.047279e-01
1.103734e-01
1.157571e-01
1.208944e-01
1.258011e-01
1.304926e-01
1.349809e-01
1.392718e-01
1.433595e-01
1.472202e-01
1.508056e-01
1.540361e-01
1.567993e-01
1.589575e-01
1.603700e-01
1.609348e-01
1.606444e-01
1.596432e-01
1.582613e-01
0.000000e+00
1.169099e-02
2.388175e-02
3.646335e-02
4.921856e-02
6.190955e-02
7.434789e-02
8.641176e-02
9.803544e-02
1.091887e-01
1.198613e-01
1.300535e-01
1.397705e-01
1.490199e-01
1.578103e-01
1.661512e-01
1.740523e-01
1.815237e-01
1.885750e-01
1.952142e-01
2.014460e-01
2.072691e-01
2.126720e-01
2.176294e-01
2.220974e-01
2.260111e-01
2.292861e-01
2.318279e-01
2.335516e-01
2.344153e-01
2.344639e-01
2.338765e-01
2.330032e-01
0.000000e+00
1.591410e-02
3.258597e-02
4.978978e-02
6.713268e-02
8.426223e-02
1.009422e-01
1.170534e-01
1.325417e-01
1.473871e-01
1.615852e-01
1.751385e-01
1.880518e-01
2.003305e-01
2.119799e-01
2.230046e-01
2.334089e-01
2.431960e-01
2.523685e-01
2.609267e-01
2.688680e-01
2.761852e-01
2.828641e-01
2.888817e-01
2.942042e-01
2.987868e-01
3.025773e-01
3.055231e-01
3.075877e-01
3.087738e-01
3.091585e-01
3.089380e-01
3.084779e-01
0.000000e+00
2.050992e-02
4.215248e-02
6.438724e-02
8.656959e-02
1.082143e-01
1.291358e-01
1.492673e-01
1.685901e-01
1.871025e-01
2.048077e-01
2.217100e-01
2.378125e-01
2.531169e-01
2.676235e-01
2.813312e-01
2.942373e-01
3.063377e-01
3.176264e-01
3.280953e-01
3.377340e-01
3.465289e-01
3.544633e-01
3.615173e-01
3.676684e-01
3.728934e-01
3.771729e-01
3.804971e-01
3.828762e-01
3.843547e-01
3.850348e-01
3.851159e-01
3.849632e-01
0.000000e+00
2.585480e-02
5.322902e-02
8.110084e-02
1.081845e-01
1.342711e-01
1.593434e-01
1.834245e-01
2.065340e-01
2.286841e-01
2.498810e-01
2.701262e-01
2.894184e-01
3.077539e-01
3.251269e-01
3.415298e-01
3.569522e-01
3.713816e-01
3.848028e-01
3.971979e-01
4.085466e-01
4.188267e-01
4.280159e-01
4.360937e-01
4.430447e-01
4.488637e-01
4.535610e-01
4.571700e-01
4.597528e-01
4.614071e-01
4.622730e-01
4.625550e-01
4.625887e-01
0.000000e+00
3.259770e-02
6.782447e-02
1.010416e-01
1.326166e-01
1.628498e-01
1.919005e-01
2.198377e-01
2.466874e-01
2.724559e-01
2.971402e-01
3.207336e-01
3.432271e-01
3.646105e-01
3.848717e-01
4.039961e-01
4.219664e-01
4.387613e-01
4.543558e-01
4.687203e-01
4.818218e-01
4.936249e-01
5.040948e-01
5.132015e-01
5.209261e-01
5.272689e-01
5.322601e-01
5.359698e-01
5.385181e-01
5.400796e-01
5.408774e-01
5.411666e-01
5.412375e-01
0.000000e+00
4.861342e-02
8.821051e-02
1.248982e-01
1.601140e-01
1.941262e-01
2.270033e-01
2.587420e-01
2.893214e-01
3.187170e-01
3.469061e-01
3.738691e-01
3.995888e-01
4.240486e-01
4.472316e-01
4.691183e-01
4.896855e-01
5.089045e-01
5.267402e-01
5.431504e-01
5.580856e-01
5.714908e-01
5.833086e-01
5.934848e-01
6.019773e-01
6.087690e-01
6.138841e-01
6.174079e-01
6.195082e-01
6.204546e-01
6.206266e-01
6.204841e-01
6.204039e-01
0.000000e+00
-3.003272e-02
-5.241359e-02
-7.683651e-02
-1.040329e-01
-1.347539e-01
-1.692131e-01
-2.074703e-01
-2.494874e-01
-2.951744e-01
-3.444102e-01
-3.970555e-01
-4.529599e-01
-5.119672e-01
-5.739177e-01
-6.386508e-01
-7.060067e-01
-7.758283e-01
-8.479642e-01
-9.222714e-01
-9.986206e-01
-1.076903e+00
-1.157041e+00
-1.239003e+00
-1.322831e+00
-1.408680e+00
-1.496891e+00
-1.588129e+00
-1.683669e+00
-1.786032e+00
-1.900661e+00
-2.040392e+00
-2.233436e+00
0.000000e+00
-1.866419e-02
-4.209106e-02
-6.667873e-02
-9.425418e-02
-1.253090e-01
-1.601030e-01
-1.986950e-01
-2.410503e-01
-2.870788e-01
-3.366587e-01
-3.896496e-01
-4.458999e-01
-5.052520e-01
-5.675447e-01
-6.326158e-01
-7.003035e-01
-7.704486e-01
-8.428964e-01
-9.175006e-01
-9.941274e-01
-1.072662e+00
-1.153020e+00
-1.235162e+00
-1.319117e+00
-1.405025e+00
-1.493212e+00
-1.584321e+00
-1.679601e+00
-1.781530e+00
-1.895273e+00
-2.031894e+00
-2.212246e+00
0.000000e+00
-1.370993e-02
-3.393361e-02
-5.818588e-02
-8.580950e-02
-1.170931e-01
-1.521617e-01
-1.910479e-01
-2.337049e-01
-2.800383e-01
-3.299243e-01
-3.832214e-01
-4.397774e-01
-4.994340e-01
-5.620295e-01
-6.274011e-01
-6.953861e-01
-7.658244e-01
-8.385604e-01
-9.134464e-01
-9.903475e-01
-1.069148e+00
-1.149764e+00
-1.232155e+00
-1.316356e+00
-1.402515e+00
-1.490971e+00
-1.582384e+00
-1.677986e+00
-1.780011e+00
-1.892274e+00
-2.019284e+00
-2.160175e+00
0.000000e+00
-1.097833e-02
-2.873493e-02
-5.169394e-02
-7.896255e-02
-1.102365e-01
-1.454551e-01
-1.845591e-01
-2.274643e-01
-2.740591e-01
-3.242116e-01
-3.777769e-01
-4.346016e-01
-4.945269e-01
-5.573913e-01
-6.230325e-01
-6.912884e-01
-7.619993e-01
-8.350107e-01
-9.101759e-01
-9.873619e-01
-1.066456e+00
-1.147378e+00
-1.230094e+00
-1.314647e+00
-1.401192e+00
-1.490064e+00
-1.581872e+00
-1.677626e+00
-1.778795e+00
-1.886789e+00
-2.000688e+00
-2.106717e+00
0.000000e+00
-9.289475e-03
-2.533518e-02
-4.708389e-02
-7.373090e-02
-1.047998e-01
-1.400316e-01
-1.792627e-01
-2.223513e-01
-2.691564e-01
-3.195319e-01
-3.733258e-01
-4.303820e-01
-4.905413e-01
-5.536430e-01
-6.195256e-01
-6.880287e-01
-7.589946e-01
-8.322706e-01
-9.077128e-01
-9.851909e-01
-1.064596e+00
-1.145850e+00
-1.228924e+00
-1.313854e+00
-1.400780e+00
-1.489972e+00
-1.581871e+00
-1.677055e+00
-1.775991e+00
-1.878209e+00
-1.979954e+00
-2.072294e+00
0.000000e+00
-8.214842e-03
-2.310451e-02
-4.391146e-02
-6.995863e-02
-1.007365e-01
-1.358917e-01
-1.751730e-01
-2.183823e-01
-2.653451e-01
-3.158972e-01
-3.698776e-01
-4.271265e-01
-4.874839e-01
-5.507898e-01
-6.168845e-01
-6.856095e-01
-7.568096e-01
-8.303345e-01
-9.060425e-01
-9.838053e-01
-1.063514e+00
-1.145090e+00
-1.228493e+00
-1.313737e+00
-1.400906e+00
-1.490152e+00
-1.581668e+00
-1.675561e+00
-1.771514e+00
-1.868064e+00
-1.961762e+00
-2.047402e+00
0.000000e+00
-7.546970e-03
-2.169418e-02
-4.184931e-02
-6.743149e-02
-9.794410e-02
-1.329950e-01
-1.722812e-01
-2.155617e-01
-2.626337e-01
-3.133160e-01
-3.674389e-01
-4.248390e-01
-4.853556e-01
-5.488295e-01
-6.151029e-01
-6.840195e-01
-7.554261e-01
-8.291742e-01
-9.051231e-01
-9.831432e-01
-1.063122e+00
-1.144968e+00
-1.228621e+00
-1.314051e+00
-1.401260e+00
-1.490257e+00
-1.580988e+00
-1.673194e+00
-1.766123e+00
-1.858168e+00
-1.946674e+00
-2.028392e+00
0.000000e+00
-7.179964e-03
-2.091161e-02
-4.068725e-02
-6.598240e-02
-9.631757e-02
-1.312880e-01
-1.705656e-01
-2.138847e-01
-2.610242e-01
-3.117917e-01
-3.660119e-01
-4.235188e-01
-4.841518e-01
-5.477530e-01
-6.141661e-01
-6.832369e-01
-7.548134e-01
-8.287477e-01
-9.048974e-01
-9.831287e-01
-1.063319e+00
-1.145358e+00
-1.229152e+00
-1.314618e+00
-1.401666e+00
-1.490169e+00
-1.579885e+00
-1.670336e+00
-1.760633e+00
-1.849323e+00
-1.934413e+00
-2.013683e+00
0.000000e+00
-7.061716e-03
-2.065914e-02
-4.031061e-02
-6.551012e-02
-9.578523e-02
-1.307289e-01
-1.700058e-01
-2.133431e-01
-2.605142e-01
-3.113234e-01
-3.655940e-01
-4.231605e-01
-4.838632e-01
-5.475457e-01
-6.140535e-01
-6.832334e-01
-7.549342e-01
-8.290065e-01
-9.053045e-01
-9.836861e-01
-1.064014e+00
-1.146155e+00
-1.229977e+00
-1.315337e+00
-1.402066e+00
-1.489929e+00
-1.578564e+00
-1.667397e+00
-1.755553e+00
-1.841807e+00
-1.924634e+00
-2.002410e+00
0.000000e+00
-7.176544e-03
-2.090687e-02
-4.068316e-02
-6.598116e-02
-9.632190e-02
-1.313015e-01
-1.705930e-01
-2.139323e-01
-2.611003e-01
-3.119068e-01
-3.661794e-01
-4.237553e-01
-4.844770e-01
-5.481902e-01
-6.147417e-01
-6.839789e-01
-7.557501e-01
-8.299034e-01
-9.062874e-01
-9.847498e-01
-1.065136e+00
-1.147288e+00
-1.231033e+00
-1.316178e+00
-1.402488e+00
-1.489651e+00
-1.577245e+00
-1.664679e+00
-1.751157e+00
-1.835667e+00
-1.917032e+00
-1.994008e+00
0.000000e+00
-7.540406e-03
-2.168507e-02
-4.184143e-02
-6.742902e-02
-9.795224e-02
-1.330206e-01
-1.723334e-01
-2.156527e-01
-2.627792e-01
-3.135363e-01
-3.677599e-01
-4.252922e-01
-4.859793e-01
-5.496684e-01
-6.162076e-01
-6.854445e-01
-7.572259e-01
-8.313967e-01
-9.077988e-01
-9.862688e-01
-1.066635e+00
-1.148714e+00
-1.232299e+00
-1.317154e+00
-1.402993e+00
-1.489463e+00
-1.576115e+00
-1.662382e+00
-1.747567e+00
-1.830852e+00
-1.911329e+00
-1.988044e+00
0.000000e+00
-8.205719e-03
-2.309185e-02
-4.390045e-02
-6.995507e-02
-1.007476e-01
-1.359272e-01
-1.752456e-01
-2.185089e-01
-2.655479e-01
-3.162047e-01
-3.703258e-01
-4.277599e-01
-4.883561e-01
-5.519636e-01
-6.184312e-01
-6.876059e-01
-7.593330e-01
-8.334537e-01
-9.098031e-01
-9.882074e-01
-1.068480e+00
-1.150413e+00
-1.233775e+00
-1.318295e+00
-1.403655e+00
-1.489476e+00
-1.575305e+00
-1.660618e+00
-1.744818e+00
-1.827258e+00
-1.907261e+00
-1.984134e+00
0.000000e+00
-9.278728e-03
-2.532027e-02
-4.707092e-02
-7.372677e-02
-1.048133e-01
-1.400744e-01
-1.793503e-01
-2.225041e-01
-2.694014e-01
-3.199035e-01
-3.738677e-01
-4.311480e-01
-4.915964e-01
-5.550634e-01
-6.213977e-01
-6.904462e-01
-7.620518e-01
-8.360525e-01
-9.122776e-01
-9.905446e-01
-1.070654e+00
-1.152381e+00
-1.235474e+00
-1.319637e+00
-1.404532e+00
-1.489766e+00
-1.574897e+00
-1.659439e+00
-1.742888e+00
-1.824749e+00
-1.904561e+00
-1.981897e+00
0.000000e+00
-1.096728e-02
-2.871963e-02
-5.168075e-02
-7.895901e-02
-1.102523e-01
-1.455033e-01
-1.846568e-01
-2.276343e-01
-2.743310e-01
-3.246236e-01
-3.783771e-01
-4.354492e-01
-4.956936e-01
-5.589612e-01
-6.251006e-01
-6.939576e-01
-7.653737e-01
-8.391838e-01
-9.152131e-01
-9.932725e-01
-1.073153e+00
-1.154620e+00
-1.237405e+00
-1.321201e+00
-1.405656e+00
-1.490372e+00
-1.574919e+00
-1.658845e+00
-1.741718e+00
-1.823171e+00
-1.902948e+00
-1.980922e+00
0.000000e+00
-1.370030e-02
-3.392021e-02
-5.817475e-02
-8.580844e-02
-1.171124e-01
-1.522150e-01
-1.911530e-01
-2.338855e-01
-2.803252e-01
-3.303569e-01
-3.838492e-01
-4.406614e-01
-5.006477e-01
-5.636587e-01
-6.295424e-01
-6.981438e-01
-7.693030e-01
-8.428526e-01
-9.186150e-01
-9.963970e-01
-1.075984e+00
-1.157136e+00
-1.239577e+00
-1.322993e+00
-1.407027e+00
-1.491285e+00
-1.575344e+00
-1.658778e+00
-1.741206e+00
-1.822353e+00
-1.902138e+00
-1.980752e+00
0.000000e+00
-1.865801e-02
-4.208195e-02
-6.667219e-02
-9.425824e-02
-1.253341e-01
-1.601629e-01
-1.988078e-01
-2.412395e-01
-2.873749e-01
-3.371006e-01
-3.902857e-01
-4.467899e-01
-5.064668e-01
-5.691668e-01
-6.347371e-01
-7.030215e-01
-7.738588e-01
-8.470802e-01
-9.225059e-01
-9.999405e-01
-1.079168e+00
-1.159944e+00
-1.241992e+00
-1.324999e+00
-1.408611e+00
-1.492439e+00
-1.576071e+00
-1.659103e+00
-1.741182e+00
-1.822087e+00
-1.901845e+00
-1.980896e+00
0.000000e+00
-3.003184e-02
-5.241055e-02
-7.683709e-02
-1.040452e-01
-1.347885e-01
-1.692836e-01
-2.075946e-01
-2.496887e-01
-2.954822e-01
-3.448619e-01
-3.976973e-01
-4.538480e-01
-5.131677e-01
-5.755061e-01
-6.407096e-01
-7.086207e-01
-7.790766e-01
-8.519068e-01
-9.269295e-01
-1.003948e+00
-1.082743e+00
-1.163073e+00