TITLE = "Solution"
VARIABLES = x, y, u, v, psiu, psiv, t, stress
ZONE T="structure" N=561 E=512 F=FEBLOCK ET=QUADRILATERAL VARLOCATION=([7,8]=cellcentered)
0.000000e+00
6.250000e+00
1.250000e+01
1.875000e+01
2.500000e+01
3.125000e+01
3.750000e+01
4.375000e+01
5.000000e+01
5.625000e+01
6.250000e+01
6.875000e+01
7.500000e+01
8.125000e+01
8.750000e+01
9.375000e+01
1.000000e+02
1.062500e+02
1.125000e+02
1.187500e+02
1.250000e+02
1.312500e+02
1.375000e+02
1.437500e+02
1.500000e+02
1.562500e+02
1.625000e+02
1.687500e+02
1.750000e+02
1.812500e+02
1.875000e+02
1.937500e+02
2.000000e+02
0.000000e+00
6.250000e+00
1.250000e+01
1.875000e+01
2.500000e+01
3.125000e+01
3.750000e+01
4.375000e+01
5.000000e+01
5.625000e+01
6.250000e+01
6.875000e+01
7.500000e+01
8.125000e+01
8.750000e+01
9.375000e+01
1.000000e+02
1.062500e+02
1.125000e+02
1.187500e+02
1.250000e+02
1.312500e+02
1.375000e+02
1.437500e+02
1.500000e+02
1.562500e+02
1.625000e+02
1.687500e+02
1.750000e+02
1.812500e+02
1.875000e+02
1.937500e+02
2.000000e+02
0.000000e+00
6.250000e+00
1.250000e+01
1.875000e+01
2.500000e+01
3.125000e+01
3.750000e+01
4.375000e+01
5.000000e+01
5.625000e+01
6.250000e+01
6.875000e+01
7.500000e+01
8.125000e+01
8.750000e+01
9.375000e+01
1.000000e+02
1.062500e+02
1.125000e+02
1.187500e+02
1.250000e+02
1.312500e+02
1.375000e+02
1.437500e+02
1.500000e+02
1.562500e+02
1.625000e+02
1.687500e+02
1.750000e+02
1.812500e+02
1.875000e+02
1.937500e+02
2.000000e+02
0.000000e+00
6.250000e+00
1.250000e+01
1.875000e+01
2.500000e+01
3.125000e+01
3.750000e+01
4.375000e+01
5.000000e+01
5.625000e+01
6.250000e+01
6.875000e+01
7.500000e+01
8.125000e+01
8.750000e+01
9.375000e+01
1.000000e+02
1.062500e+02
1.125000e+02
1.187500e+02
1.250000e+02
1.312500e+02
1.375000e+02
1.437500e+02
1.500000e+02
1.562500e+02
1.625000e+02
1.687500e+02
1.750000e+02
1.812500e+02
1.875000e+02
1.937500e+02
2.000000e+02
0.000000e+00
6.250000e+00
1.250000e+01
1.875000e+01
2.500000e+01
3.125000e+01
3.750000e+01
4.375000e+01
5.000000e+01
5.625000e+01
6.250000e+01
6.875000e+01
7.500000e+01
8.125000e+01
8.750000e+01
9.375000e+01
1.000000e+02
1.062500e+02
1.125000e+02
1.187500e+02
1.250000e+02
1.312500e+02
1.375000e+02
1.437500e+02
1.500000e+02
1.562500e+02
1.625000e+02
1.687500e+02
1.750000e+02
1.812500e+02
1.875000e+02
1.937500e+02
2.000000e+02
0.000000e+00
6.250000e+00
1.250000e+01
1.875000e+01
2.500000e+01
3.125000e+01
3.750000e+01
4.375000e+01
5.000000e+01
5.625000e+01
6.250000e+01
6.875000e+01
7.500000e+01
8.125000e+01
8.750000e+01
9.375000e+01
1.000000e+02
1.062500e+02
1.125000e+02
1.187500e+02
1.250000e+02
1.312500e+02
1.375000e+02
1.437500e+02
1.500000e+02
1.562500e+02
1.625000e+02
1.687500e+02
1.750000e+02
1.812500e+02
1.875000e+02
1.937500e+02
2.000000e+02
0.000000e+00
6.250000e+00
1.250000e+01
1.875000e+01
2.500000e+01
3.125000e+01
3.750000e+01
4.375000e+01
5.000000e+01
5.625000e+01
6.250000e+01
6.875000e+01
7.500000e+01
8.125000e+01
8.750000e+01
9.375000e+01
1.000000e+02
1.062500e+02
1.125000e+02
1.187500e+02
1.250000e+02
1.312500e+02
1.375000e+02
1.437500e+02
1.500000e+02
1.562500e+02
1.625000e+02
1.687500e+02
1.750000e+02
1.812500e+02
1.875000e+02
1.937500e+02
2.000000e+02
0.000000e+00
6.250000e+00
1.250000e+01
1.875000e+01
2.500000e+01
3.125000e+01
3.750000e+01
4.375000e+01
5.000000e+01
5.625000e+01
6.250000e+01
6.875000e+01
7.500000e+01
8.125000e+01
8.750000e+01
9.375000e+01
1.000000e+02
1.062500e+02
1.125000e+02
1.187500e+02
1.250000e+02
1.312500e+02
1.375000e+02
1.437500e+02
1.500000e+02
1.562500e+02
1.625000e+02
1.687500e+02
1.750000e+02
1.812500e+02
1.875000e+02
1.937500e+02
2.000000e+02
0.000000e+00
6.250000e+00
1.250000e+01
1.875000e+01
2.500000e+01
3.125000e+01
3.750000e+01
4.375000e+01
5.000000e+01
5.625000e+01
6.250000e+01
6.875000e+01
7.500000e+01
8.125000e+01
8.750000e+01
9.375000e+01
1.000000e+02
1.062500e+02
1.125000e+02
1.187500e+02
1.250000e+02
1.312500e+02
1.375000e+02
1.437500e+02
1.500000e+02
1.562500e+02
1.625000e+02
1.687500e+02
1.750000e+02
1.812500e+02
1.875000e+02
1.937500e+02
2.000000e+02
0.000000e+00
6.250000e+00
1.250000e+01
1.875000e+01
2.500000e+01
3.125000e+01
3.750000e+01
4.375000e+01
5.000000e+01
5.625000e+01
6.250000e+01
6.875000e+01
7.500000e+01
8.125000e+01
8.750000e+01
9.375000e+01
1.000000e+02
1.062500e+02
1.125000e+02
1.187500e+02
1.250000e+02
1.312500e+02
1.375000e+02
1.437500e+02
1.500000e+02
1.562500e+02
1.625000e+02
1.687500e+02
1.750000e+02
1.812500e+02
1.875000e+02
1.937500e+02
2.000000e+02
0.000000e+00
6.250000e+00
1.250000e+01
1.875000e+01
2.500000e+01
3.125000e+01
3.750000e+01
4.375000e+01
5.000000e+01
5.625000e+01
6.250000e+01
6.875000e+01
7.500000e+01
8.125000e+01
8.750000e+01
9.375000e+01
1.000000e+02
1.062500e+02
1.125000e+02
1.187500e+02
1.250000e+02
1.312500e+02
1.375000e+02
1.437500e+02
1.500000e+02
1.562500e+02
1.625000e+02
1.687500e+02
1.750000e+02
1.812500e+02
1.875000e+02
1.937500e+02
2.000000e+02
0.000000e+00
6.250000e+00
1.250000e+01
1.875000e+01
2.500000e+01
3.125000e+01
3.750000e+01
4.375000e+01
5.000000e+01
5.625000e+01
6.250000e+01
6.875000e+01
7.500000e+01
8.125000e+01
8.750000e+01
9.375000e+01
1.000000e+02
1.062500e+02
1.125000e+02
1.187500e+02
1.250000e+02
1.312500e+02
1.375000e+02
1.437500e+02
1.500000e+02
1.562500e+02
1.625000e+02
1.687500e+02
1.750000e+02
1.812500e+02
1.875000e+02
1.937500e+02
2.000000e+02
0.000000e+00
6.250000e+00
1.250000e+01
1.875000e+01
2.500000e+01
3.125000e+01
3.750000e+01
4.375000e+01
5.000000e+01
5.625000e+01
6.250000e+01
6.875000e+01
7.500000e+01
8.125000e+01
8.750000e+01
9.375000e+01
1.000000e+02
1.062500e+02
1.125000e+02
1.187500e+02
1.250000e+02
1.312500e+02
1.375000e+02
1.437500e+02
1.500000e+02
1.562500e+02
1.625000e+02
1.687500e+02
1.750000e+02
1.812500e+02
1.875000e+02
1.937500e+02
2.000000e+02
0.000000e+00
6.250000e+00
1.250000e+01
1.875000e+01
2.500000e+01
3.125000e+01
3.750000e+01
4.375000e+01
5.000000e+01
5.625000e+01
6.250000e+01
6.875000e+01
7.500000e+01
8.125000e+01
8.750000e+01
9.375000e+01
1.000000e+02
1.062500e+02
1.125000e+02
1.187500e+02
1.250000e+02
1.312500e+02
1.375000e+02
1.437500e+02
1.500000e+02
1.562500e+02
1.625000e+02
1.687500e+02
1.750000e+02
1.812500e+02
1.875000e+02
1.937500e+02
2.000000e+02
0.000000e+00
6.250000e+00
1.250000e+01
1.875000e+01
2.500000e+01
3.125000e+01
3.750000e+01
4.375000e+01
5.000000e+01
5.625000e+01
6.250000e+01
6.875000e+01
7.500000e+01
8.125000e+01
8.750000e+01
9.375000e+01
1.000000e+02
1.062500e+02
1.125000e+02
1.187500e+02
1.250000e+02
1.312500e+02
1.375000e+02
1.437500e+02
1.500000e+02
1.562500e+02
1.625000e+02
1.687500e+02
1.750000e+02
1.812500e+02
1.875000e+02
1.937500e+02
2.000000e+02
0.000000e+00
6.250000e+00
1.250000e+01
1.875000e+01
2.500000e+01
3.125000e+01
3.750000e+01
4.375000e+01
5.000000e+01
5.625000e+01
6.250000e+01
6.875000e+01
7.500000e+01
8.125000e+01
8.750000e+01
9.375000e+01
1.000000e+02
1.062500e+02
1.125000e+02
1.187500e+02
1.250000e+02
1.312500e+02
1.375000e+02
1.437500e+02
1.500000e+02
1.562500e+02
1.625000e+02
1.687500e+02
1.750000e+02
1.812500e+02
1.875000e+02
1.937500e+02
2.000000e+02
0.000000e+00
6.250000e+00
1.250000e+01
1.875000e+01
2.500000e+01
3.125000e+01
3.750000e+01
4.375000e+01
5.000000e+01
5.625000e+01
6.250000e+01
6.875000e+01
7.500000e+01
8.125000e+01
8.750000e+01
9.375000e+01
1.000000e+02
1.062500e+02
1.125000e+02
1.187500e+02
1.250000e+02
1.312500e+02
1.375000e+02
1.437500e+02
1.500000e+02
1.562500e+02
1.625000e+02
1.687500e+02
1.750000e+02
1.812500e+02
1.875000e+02
1.937500e+02
2.000000e+02
0.000000e+00
0.000000e+00
0.000000e+00
0.000000e+00
0.000000e+00
0.000000e+00
0.000000e+00
0.000000e+00
0.000000e+00
0.000000e+00
0.000000e+00
0.000000e+00
0.000000e+00
0.000000e+00
0.000000e+00
0.000000e+00
0.000000e+00
0.000000e+00
0.000000e+00
0.000000e+00
0.000000e+00
0.000000e+00
0.000000e+00
0.000000e+00
0.000000e+00
0.000000e+00
0.000000e+00
0.000000e+00
0.000000e+00
0.000000e+00
0.000000e+00
0.000000e+00
0.000000e+00
6.250000e+00
6.250000e+00
6.250000e+00
6.250000e+00
6.250000e+00
6.250000e+00
6.250000e+00
6.250000e+00
6.250000e+00
6.250000e+00
6.250000e+00
6.250000e+00
6.250000e+00
6.250000e+00
6.250000e+00
6.250000e+00
6.250000e+00
6.250000e+00
6.250000e+00
6.250000e+00
6.250000e+00
6.250000e+00
6.250000e+00
6.250000e+00
6.250000e+00
6.250000e+00
6.250000e+00
6.250000e+00
6.250000e+00
6.250000e+00
6.250000e+00
6.250000e+00
6.250000e+00
1.250000e+01
1.250000e+01
1.250000e+01
1.250000e+01
1.250000e+01
1.250000e+01
1.250000e+01
1.250000e+01
1.250000e+01
1.250000e+01
1.250000e+01
1.250000e+01
1.250000e+01
1.250000e+01
1.250000e+01
1.250000e+01
1.250000e+01
1.250000e+01
1.250000e+01
1.250000e+01
1.250000e+01
1.250000e+01
1.250000e+01
1.250000e+01
1.250000e+01
1.250000e+01
1.250000e+01
1.250000e+01
1.250000e+01
1.250000e+01
1.250000e+01
1.250000e+01
1.250000e+01
1.875000e+01
1.875000e+01
1.875000e+01
1.875000e+01
1.875000e+01
1.875000e+01
1.875000e+01
1.875000e+01
1.875000e+01
1.875000e+01
1.875000e+01
1.875000e+01
1.875000e+01
1.875000e+01
1.875000e+01
1.875000e+01
1.875000e+01
1.875000e+01
1.875000e+01
1.875000e+01
1.875000e+01
1.875000e+01
1.875000e+01
1.875000e+01
1.875000e+01
1.875000e+01
1.875000e+01
1.875000e+01
1.875000e+01
1.875000e+01
1.875000e+01
1.875000e+01
1.875000e+01
2.500000e+01
2.500000e+01
2.500000e+01
2.500000e+01
2.500000e+01
2.500000e+01
2.500000e+01
2.500000e+01
2.500000e+01
2.500000e+01
2.500000e+01
2.500000e+01
2.500000e+01
2.500000e+01
2.500000e+01
2.500000e+01
2.500000e+01
2.500000e+01
2.500000e+01
2.500000e+01
2.500000e+01
2.500000e+01
2.500000e+01
2.500000e+01
2.500000e+01
2.500000e+01
2.500000e+01
2.500000e+01
2.500000e+01
2.500000e+01
2.500000e+01
2.500000e+01
2.500000e+01
3.125000e+01
3.125000e+01
3.125000e+01
3.125000e+01
3.125000e+01
3.125000e+01
3.125000e+01
3.125000e+01
3.125000e+01
3.125000e+01
3.125000e+01
3.125000e+01
3.125000e+01
3.125000e+01
3.125000e+01
3.125000e+01
3.125000e+01
3.125000e+01
3.125000e+01
3.125000e+01
3.125000e+01
3.125000e+01
3.125000e+01
3.125000e+01
3.125000e+01
3.125000e+01
3.125000e+01
3.125000e+01
3.125000e+01
3.125000e+01
3.125000e+01
3.125000e+01
3.125000e+01
3.750000e+01
3.750000e+01
3.750000e+01
3.750000e+01
3.750000e+01
3.750000e+01
3.750000e+01
3.750000e+01
3.750000e+01
3.750000e+01
3.750000e+01
3.750000e+01
3.750000e+01
3.750000e+01
3.750000e+01
3.750000e+01
3.750000e+01
3.750000e+01
3.750000e+01
3.750000e+01
3.750000e+01
3.750000e+01
3.750000e+01
3.750000e+01
3.750000e+01
3.750000e+01
3.750000e+01
3.750000e+01
3.750000e+01
3.750000e+01
3.750000e+01
3.750000e+01
3.750000e+01
4.375000e+01
4.375000e+01
4.375000e+01
4.375000e+01
4.375000e+01
4.375000e+01
4.375000e+01
4.375000e+01
4.375000e+01
4.375000e+01
4.375000e+01
4.375000e+01
4.375000e+01
4.375000e+01
4.375000e+01
4.375000e+01
4.375000e+01
4.375000e+01
4.375000e+01
4.375000e+01
4.375000e+01
4.375000e+01
4.375000e+01
4.375000e+01
4.375000e+01
4.375000e+01
4.375000e+01
4.375000e+01
4.375000e+01
4.375000e+01
4.375000e+01
4.375000e+01
4.375000e+01
5.000000e+01
5.000000e+01
5.000000e+01
5.000000e+01
5.000000e+01
5.000000e+01
5.000000e+01
5.000000e+01
5.000000e+01
5.000000e+01
5.000000e+01
5.000000e+01
5.000000e+01
5.000000e+01
5.000000e+01
5.000000e+01
5.000000e+01
5.000000e+01
5.000000e+01
5.000000e+01
5.000000e+01
5.000000e+01
5.000000e+01
5.000000e+01
5.000000e+01
5.000000e+01
5.000000e+01
5.000000e+01
5.000000e+01
5.000000e+01
5.000000e+01
5.000000e+01
5.000000e+01
5.625000e+01
5.625000e+01
5.625000e+01
5.625000e+01
5.625000e+01
5.625000e+01
5.625000e+01
5.625000e+01
5.625000e+01
5.625000e+01
5.625000e+01
5.625000e+01
5.625000e+01
5.625000e+01
5.625000e+01
5.625000e+01
5.625000e+01
5.625000e+01
5.625000e+01
5.625000e+01
5.625000e+01
5.625000e+01
5.625000e+01
5.625000e+01
5.625000e+01
5.625000e+01
5.625000e+01
5.625000e+01
5.625000e+01
5.625000e+01
5.625000e+01
5.625000e+01
5.625000e+01
6.250000e+01
6.250000e+01
6.250000e+01
6.250000e+01
6.250000e+01
6.250000e+01
6.250000e+01
6.250000e+01
6.250000e+01
6.250000e+01
6.250000e+01
6.250000e+01
6.250000e+01
6.250000e+01
6.250000e+01
6.250000e+01
6.250000e+01
6.250000e+01
6.250000e+01
6.250000e+01
6.250000e+01
6.250000e+01
6.250000e+01
6.250000e+01
6.250000e+01
6.250000e+01
6.250000e+01
6.250000e+01
6.250000e+01
6.250000e+01
6.250000e+01
6.250000e+01
6.250000e+01
6.875000e+01
6.875000e+01
6.875000e+01
6.875000e+01
6.875000e+01
6.875000e+01
6.875000e+01
6.875000e+01
6.875000e+01
6.875000e+01
6.875000e+01
6.875000e+01
6.875000e+01
6.875000e+01
6.875000e+01
6.875000e+01
6.875000e+01
6.875000e+01
6.875000e+01
6.875000e+01
6.875000e+01
6.875000e+01
6.875000e+01
6.875000e+01
6.875000e+01
6.875000e+01
6.875000e+01
6.875000e+01
6.875000e+01
6.875000e+01
6.875000e+01
6.875000e+01
6.875000e+01
7.500000e+01
7.500000e+01
7.500000e+01
7.500000e+01
7.500000e+01
7.500000e+01
7.500000e+01
7.500000e+01
7.500000e+01
7.500000e+01
7.500000e+01
7.500000e+01
7.500000e+01
7.500000e+01
7.500000e+01
7.500000e+01
7.500000e+01
7.500000e+01
7.500000e+01
7.500000e+01
7.500000e+01
7.500000e+01
7.500000e+01
7.500000e+01
7.500000e+01
7.500000e+01
7.500000e+01
7.500000e+01
7.500000e+01
7.500000e+01
7.500000e+01
7.500000e+01
7.500000e+01
8.125000e+01
8.125000e+01
8.125000e+01
8.125000e+01
8.125000e+01
8.125000e+01
8.125000e+01
8.125000e+01
8.125000e+01
8.125000e+01
8.125000e+01
8.125000e+01
8.125000e+01
8.125000e+01
8.125000e+01
8.125000e+01
8.125000e+01
8.125000e+01
8.125000e+01
8.125000e+01
8.125000e+01
8.125000e+01
8.125000e+01
8.125000e+01
8.125000e+01
8.125000e+01
8.125000e+01
8.125000e+01
8.125000e+01
8.125000e+01
8.125000e+01
8.125000e+01
8.125000e+01
8.750000e+01
8.750000e+01
8.750000e+01
8.750000e+01
8.750000e+01
8.750000e+01
8.750000e+01
8.750000e+01
8.750000e+01
8.750000e+01
8.750000e+01
8.750000e+01
8.750000e+01
8.750000e+01
8.750000e+01
8.750000e+01
8.750000e+01
8.750000e+01
8.750000e+01
8.750000e+01
8.750000e+01
8.750000e+01
8.750000e+01
8.750000e+01
8.750000e+01
8.750000e+01
8.750000e+01
8.750000e+01
8.750000e+01
8.750000e+01
8.750000e+01
8.750000e+01
8.750000e+01
9.375000e+01
9.375000e+01
9.375000e+01
9.375000e+01
9.375000e+01
9.375000e+01
9.375000e+01
9.375000e+01
9.375000e+01
9.375000e+01
9.375000e+01
9.375000e+01
9.375000e+01
9.375000e+01
9.375000e+01
9.375000e+01
9.375000e+01
9.375000e+01
9.375000e+01
9.375000e+01
9.375000e+01
9.375000e+01
9.375000e+01
9.375000e+01
9.375000e+01
9.375000e+01
9.375000e+01
9.375000e+01
9.375000e+01
9.375000e+01
9.375000e+01
9.375000e+01
9.375000e+01
1.000000e+02
1.000000e+02
1.000000e+02
1.000000e+02
1.000000e+02
1.000000e+02
1.000000e+02
1.000000e+02
1.000000e+02
1.000000e+02
1.000000e+02
1.000000e+02
1.000000e+02
1.000000e+02
1.000000e+02
1.000000e+02
1.000000e+02
1.000000e+02
1.000000e+02
1.000000e+02
1.000000e+02
1.000000e+02
1.000000e+02
1.000000e+02
1.000000e+02
1.000000e+02
1.000000e+02
1.000000e+02
1.000000e+02
1.000000e+02
1.000000e+02
1.000000e+02
1.000000e+02
0.000000e+00
-4.720219e-01
-7.824743e-01
-1.122415e+00
-1.424158e+00
-1.716158e+00
-2.027934e+00
-2.315436e+00
-2.615185e+00
-2.908814e+00
-3.205944e+00
-3.505033e+00
-3.804300e+00
-4.104075e+00
-4.404076e+00
-4.705386e+00
-5.007820e+00
-5.311028e+00
-5.613582e+00
-5.915899e+00
-6.218135e+00
-6.519996e+00
-6.822400e+00
-7.120072e+00
-7.413542e+00
-7.718325e+00
-8.017696e+00
-8.348456e+00
-8.667662e+00
-9.021176e+00
-9.509860e+00
-9.926431e+00
-1.013063e+01
0.000000e+00
-2.335036e-01
-4.702988e-01
-7.357977e-01
-1.001800e+00
-1.254546e+00
-1.524412e+00
-1.784720e+00
-2.047215e+00
-2.312241e+00
-2.572684e+00
-2.837832e+00
-3.098233e+00
-3.362100e+00
-3.623505e+00
-3.885720e+00
-4.148244e+00
-4.408837e+00
-4.671781e+00
-4.931849e+00
-5.194192e+00
-5.454441e+00
-5.715997e+00
-5.976197e+00
-6.237428e+00
-6.498445e+00
-6.757965e+00
-7.022109e+00
-7.276502e+00
-7.533486e+00
-7.787708e+00
-7.888770e+00
-7.994584e+00
0.000000e+00
-1.029855e-01
-2.381670e-01
-4.346312e-01
-6.531833e-01
-8.604957e-01
-1.086411e+00
-1.313820e+00
-1.541019e+00
-1.772686e+00
-1.996543e+00
-2.223867e+00
-2.446074e+00
-2.671268e+00
-2.894864e+00
-3.117325e+00
-3.339888e+00
-3.560452e+00
-3.784066e+00
-4.006315e+00
-4.231160e+00
-4.454404e+00
-4.678696e+00
-4.907533e+00
-5.137513e+00
-5.360487e+00
-5.572896e+00
-5.770318e+00
-5.949871e+00
-6.098872e+00
-6.186292e+00
-6.191834e+00
-6.284724e+00
0.000000e+00
-1.024798e-01
-1.859528e-01
-3.410368e-01
-4.640278e-01
-6.187855e-01
-7.958434e-01
-9.654008e-01
-1.158588e+00
-1.336327e+00
-1.521402e+00
-1.704135e+00
-1.886033e+00
-2.071760e+00
-2.255715e+00
-2.441222e+00
-2.626238e+00
-2.813260e+00
-3.003013e+00
-3.194351e+00
-3.388275e+00
-3.581617e+00
-3.775935e+00
-3.970891e+00
-4.156912e+00
-4.331044e+00
-4.480595e+00
-4.612925e+00
-4.713807e+00
-4.777203e+00
-4.792325e+00
-4.809625e+00
-4.890112e+00
0.000000e+00
-9.300098e-02
-1.845267e-01
-2.754971e-01
-3.889167e-01
-5.046721e-01
-6.368659e-01
-7.712231e-01
-9.161835e-01
-1.057273e+00
-1.203425e+00
-1.348878e+00
-1.492386e+00
-1.641732e+00
-1.784982e+00
-1.934917e+00
-2.080812e+00
-2.230111e+00
-2.379853e+00
-2.528439e+00
-2.678934e+00
-2.825128e+00
-2.969672e+00
-3.107028e+00
-3.235426e+00
-3.349534e+00
-3.446571e+00
-3.520637e+00
-3.569186e+00
-3.593603e+00
-3.597006e+00
-3.626843e+00
-3.698299e+00
0.000000e+00
-7.440914e-02
-1.458685e-01
-2.208633e-01
-3.023003e-01
-3.918115e-01
-4.865877e-01
-5.878496e-01
-6.915925e-01
-7.994253e-01
-9.069003e-01
-1.015691e+00
-1.124477e+00
-1.232542e+00
-1.341948e+00
-1.450025e+00
-1.559305e+00
-1.667409e+00
-1.775244e+00
-1.881853e+00
-1.985855e+00
-2.086816e+00
-2.181700e+00
-2.269325e+00
-2.346919e+00
-2.412569e+00
-2.463932e+00
-2.498867e+00
-2.521449e+00
-2.521825e+00
-2.517146e+00
-2.543662e+00
-2.609495e+00
0.000000e+00
-5.126524e-02
-1.019821e-01
-1.538246e-01
-2.092693e-01
-2.686075e-01
-3.320085e-01
-3.984171e-01
-4.676313e-01
-5.383071e-01
-6.099848e-01
-6.817518e-01
-7.533199e-01
-8.246822e-01
-8.955277e-01
-9.661743e-01
-1.036004e+00
-1.104975e+00
-1.172414e+00
-1.237730e+00
-1.300063e+00
-1.358012e+00
-1.410198e+00
-1.454770e+00
-1.490716e+00
-1.515807e+00
-1.529752e+00
-1.535131e+00
-1.518830e+00
-1.489097e+00
-1.477907e+00
-1.501276e+00
-1.565606e+00
0.000000e+00
-2.702420e-02
-5.389627e-02
-8.134434e-02
-1.100796e-01
-1.405534e-01
-1.726479e-01
-2.062150e-01
-2.408312e-01
-2.761658e-01
-3.116719e-01
-3.469965e-01
-3.818493e-01
-4.160625e-01
-4.496078e-01
-4.823041e-01
-5.139613e-01
-5.441530e-01
-5.725344e-01
-5.985863e-01
-6.216188e-01
-6.407968e-01
-6.548647e-01
-6.628732e-01
-6.631921e-01
-6.565368e-01
-6.406338e-01
-6.022025e-01
-5.524675e-01
-5.010451e-01
-4.743523e-01
-4.975681e-01
-5.645880e-01
0.000000e+00
-1.993003e-03
-4.033238e-03
-6.034628e-03
-7.884365e-03
-9.457461e-03
-1.069019e-02
-1.158635e-02
-1.219461e-02
-1.249262e-02
-1.237942e-02
-1.170281e-02
-1.031553e-02
-8.051398e-03
-4.684376e-03
-1.037006e-04
5.938355e-03
1.386211e-02
2.374994e-02
3.550510e-02
4.969865e-02
6.664743e-02
8.607182e-02
1.106684e-01
1.412093e-01
1.824129e-01
2.426440e-01
3.148351e-01
3.881814e-01
4.392575e-01
4.550324e-01
4.226981e-01
3.429008e-01
0.000000e+00
2.318797e-02
4.614926e-02
6.975936e-02
9.497658e-02
1.225099e-01
1.524059e-01
1.844091e-01
2.179730e-01
2.526578e-01
2.881018e-01
3.241676e-01
3.608383e-01
3.985503e-01
4.378322e-01
4.790481e-01
5.226691e-01
5.684853e-01
6.163909e-01
6.657877e-01
7.156836e-01
7.670083e-01
8.224406e-01
8.817800e-01
9.493371e-01
1.032544e+00
1.122376e+00
1.213908e+00
1.288269e+00
1.332105e+00
1.329252e+00
1.283470e+00
1.220639e+00
0.000000e+00
4.783236e-02
9.513048e-02
1.436592e-01
1.961217e-01
2.532482e-01
3.152009e-01
3.808825e-01
4.495074e-01
5.197508e-01
5.907704e-01
6.617059e-01
7.326298e-01
8.042612e-01
8.777579e-01
9.548458e-01
1.035880e+00
1.119751e+00
1.205298e+00
1.292128e+00
1.381674e+00
1.471254e+00
1.563449e+00
1.666238e+00
1.774983e+00
1.885794e+00
1.995318e+00
2.084342e+00
2.148437e+00
2.174999e+00
2.167363e+00
2.137389e+00
2.093285e+00
0.000000e+00
7.142591e-02
1.401635e-01
2.128372e-01
2.924193e-01
3.809610e-01
4.761032e-01
5.774023e-01
6.819138e-01
7.897773e-01
8.980524e-01
1.006825e+00
1.115104e+00
1.223838e+00
1.333518e+00
1.443928e+00
1.557889e+00
1.675071e+00
1.794630e+00
1.917477e+00
2.046082e+00
2.182365e+00
2.324513e+00
2.466769e+00
2.604952e+00
2.734168e+00
2.846401e+00
2.935449e+00
2.991096e+00
3.019147e+00
3.022643e+00
3.004608e+00
2.977056e+00
0.000000e+00
9.021137e-02
1.791725e-01
2.691814e-01
3.832959e-01
5.023402e-01
6.349490e-01
7.725928e-01
9.164089e-01
1.059841e+00
1.206627e+00
1.353177e+00
1.500496e+00
1.651716e+00
1.802641e+00
1.957644e+00
2.113137e+00
2.273247e+00
2.438638e+00
2.605040e+00
2.774175e+00
2.946086e+00
3.116180e+00
3.280829e+00
3.433981e+00
3.575007e+00
3.695870e+00
3.786801e+00
3.853370e+00
3.892564e+00
3.905505e+00
3.898983e+00
3.884472e+00
0.000000e+00
9.872144e-02
1.796363e-01
3.321187e-01
4.595328e-01
6.225648e-01
8.047860e-01
9.743935e-01
1.168049e+00
1.345396e+00
1.528454e+00
1.708580e+00
1.891383e+00
2.081013e+00
2.275090e+00
2.476450e+00
2.680239e+00
2.885923e+00
3.096211e+00
3.309468e+00
3.519926e+00
3.724656e+00
3.920897e+00
4.105487e+00
4.280223e+00
4.437676e+00
4.572923e+00
4.679851e+00
4.756425e+00
4.804218e+00
4.826428e+00
4.829243e+00
4.824506e+00
0.000000e+00
1.006712e-01
2.316403e-01
4.202536e-01
6.373399e-01
8.475012e-01
1.078830e+00
1.309880e+00
1.539708e+00
1.774454e+00
1.998232e+00
2.224230e+00
2.446015e+00
2.672510e+00
2.900574e+00
3.132016e+00
3.365763e+00
3.596802e+00
3.828411e+00
4.060998e+00
4.295305e+00
4.524249e+00
4.744817e+00
4.966041e+00
5.176888e+00
5.363342e+00
5.512966e+00
5.627705e+00
5.710207e+00
5.763095e+00
5.790797e+00
5.799854e+00
5.800967e+00
0.000000e+00
2.337844e-01
4.715717e-01
7.363909e-01
1.001761e+00
1.253996e+00
1.523122e+00
1.783791e+00
2.045687e+00
2.310360e+00
2.570259e+00
2.834451e+00
3.093876e+00
3.355863e+00
3.615691e+00
3.875401e+00
4.135364e+00
4.392767e+00
4.650536e+00
4.904556e+00
5.159872e+00
5.413328e+00
5.666610e+00
5.925028e+00
6.168824e+00
6.369652e+00
6.527179e+00
6.644027e+00
6.724250e+00
6.773466e+00
6.798613e+00
6.807720e+00
6.809958e+00
0.000000e+00
4.732326e-01
7.897171e-01
1.134969e+00
1.439667e+00
1.729619e+00
2.037740e+00
2.322531e+00
2.619372e+00
2.910193e+00
3.205834e+00
3.505223e+00
3.802666e+00
4.100188e+00
4.393478e+00
4.684540e+00
4.972333e+00
5.261673e+00
5.552077e+00
5.840074e+00
6.127494e+00
6.415754e+00
6.707389e+00
7.000122e+00
7.265430e+00
7.476259e+00
7.634464e+00
7.743379e+00
7.808266e+00
7.837389e+00
7.842476e+00
7.837851e+00
7.835296e+00
0.000000e+00
-2.791548e-01
-5.893657e-01
-9.860212e-01
-1.418143e+00
-1.887712e+00
-2.397880e+00
-2.938695e+00
-3.515124e+00
-4.123042e+00
-4.764916e+00
-5.442827e+00
-6.157091e+00
-6.909549e+00
-7.698793e+00
-8.526721e+00
-9.393089e+00
-1.029953e+01
-1.124587e+01
-1.223174e+01
-1.325764e+01
-1.432330e+01
-1.543033e+01
-1.657729e+01
-1.776192e+01
-1.898566e+01
-2.025285e+01
-2.157391e+01
-2.295557e+01
-2.441822e+01
-2.597886e+01
-2.778684e+01
-3.032452e+01
0.000000e+00
-1.801323e-01
-5.089287e-01
-8.982592e-01
-1.337189e+00
-1.803289e+00
-2.313334e+00
-2.856246e+00
-3.430904e+00
-4.039927e+00
-4.680741e+00
-5.359008e+00
-6.072994e+00
-6.825648e+00
-7.614909e+00
-8.442522e+00
-9.309061e+00
-1.021518e+01
-1.116189e+01
-1.214757e+01
-1.317362e+01
-1.423895e+01
-1.534606e+01
-1.649379e+01
-1.767820e+01
-1.890148e+01
-2.016713e+01
-2.148656e+01
-2.286970e+01
-2.432332e+01
-2.590330e+01
-2.769846e+01
-2.994950e+01
0.000000e+00
-1.591688e-01
-4.498696e-01
-8.417651e-01
-1.270602e+00
-1.734386e+00
-2.242469e+00
-2.783180e+00
-3.359173e+00
-3.967008e+00
-4.608914e+00
-5.287289e+00
-6.001481e+00
-6.754225e+00
-7.544093e+00
-8.371773e+00
-9.238777e+00
-1.014464e+01
-1.109124e+01
-1.207682e+01
-1.310272e+01
-1.416775e+01
-1.527335e+01
-1.642038e+01
-1.760576e+01
-1.883183e+01
-2.009936e+01
-2.142390e+01
-2.281085e+01
-2.428496e+01
-2.590782e+01
-2.759250e+01
-2.934087e+01
0.000000e+00
-2.044500e-01
-4.499102e-01
-8.382593e-01
-1.235849e+00
-1.688670e+00
-2.195267e+00
-2.722996e+00
-3.305382e+00
-3.907422e+00
-4.552335e+00
-5.230982e+00
-5.943594e+00
-6.698966e+00
-7.486677e+00
-8.317075e+00
-9.182687e+00
-1.008890e+01
-1.103520e+01
-1.201959e+01
-1.304643e+01
-1.411025e+01
-1.521501e+01
-1.636176e+01
-1.754943e+01
-1.878168e+01
-2.005534e+01
-2.138709e+01
-2.278282e+01
-2.427646e+01
-2.589206e+01
-2.744171e+01
-2.884080e+01
0.000000e+00
-2.205945e-01
-4.886241e-01
-8.335966e-01
-1.233667e+00
-1.669131e+00
-2.166100e+00
-2.688149e+00
-3.265492e+00
-3.867448e+00
-4.511330e+00
-5.191780e+00
-5.902934e+00
-6.660852e+00
-7.446733e+00
-8.279153e+00
-9.143940e+00
-1.005019e+01
-1.099651e+01
-1.197999e+01
-1.300737e+01
-1.407105e+01
-1.517717e+01
-1.632473e+01
-1.751598e+01
-1.875154e+01
-2.003335e+01
-2.136870e+01
-2.276702e+01
-2.425635e+01
-2.579188e+01
-2.724071e+01
-2.850721e+01
0.000000e+00
-2.275284e-01
-5.050392e-01
-8.395601e-01
-1.227211e+00
-1.662299e+00
-2.144497e+00
-2.668974e+00
-3.235886e+00
-3.840623e+00
-4.482620e+00
-5.162243e+00
-5.877524e+00
-6.631492e+00
-7.422190e+00
-8.251393e+00
-9.118854e+00
-1.002500e+01
-1.097129e+01
-1.195709e+01
-1.298377e+01
-1.405066e+01
-1.515861e+01
-1.630891e+01
-1.750232e+01
-1.873974e+01
-2.002408e+01
-2.135885e+01
-2.274641e+01
-2.419541e+01
-2.563673e+01
-2.700497e+01
-2.820971e+01
0.000000e+00
-2.312213e-01
-5.112482e-01
-8.427687e-01
-1.225184e+00
-1.656228e+00
-2.133756e+00
-2.655471e+00
-3.219309e+00
-3.822981e+00
-4.465090e+00
-5.144653e+00
-5.861435e+00
-6.615502e+00
-7.407123e+00
-8.236761e+00
-9.104895e+00
-1.001228e+01
-1.095947e+01
-1.194708e+01
-1.297545e+01
-1.404485e+01
-1.515567e+01
-1.630815e+01
-1.750292e+01
-1.874057e+01
-2.002099e+01
-2.135230e+01
-2.270773e+01
-2.410549e+01
-2.548174e+01
-2.678222e+01
-2.792411e+01
0.000000e+00
-2.326204e-01
-5.135700e-01
-8.442132e-01
-1.224589e+00
-1.653478e+00
-2.129065e+00
-2.649286e+00
-3.212075e+00
-3.815490e+00
-4.457934e+00
-5.138320e+00
-5.856016e+00
-6.610916e+00
-7.403224e+00
-8.233516e+00
-9.102557e+00
-1.001105e+01
-1.095966e+01
-1.194895e+01
-1.297933e+01
-1.405106e+01
-1.516412e+01
-1.631852e+01
-1.751236e+01
-1.874979e+01
-2.002253e+01
-2.133468e+01
-2.265546e+01
-2.400002e+01
-2.533030e+01
-2.657350e+01
-2.765968e+01
0.000000e+00
-2.329101e-01
-5.141648e-01
-8.448370e-01
-1.225067e+00
-1.653884e+00
-2.129560e+00
-2.650048e+00
-3.213316e+00
-3.817505e+00
-4.461020e+00
-5.142586e+00
-5.861416e+00
-6.617274e+00
-7.410334e+00
-8.241251e+00
-9.111213e+00
-1.002093e+01
-1.097072e+01
-1.196137e+01
-1.299347e+01
-1.406655e+01
-1.518092e+01
-1.633595e+01
-1.752895e+01
-1.876090e+01
-2.001937e+01
-2.130236e+01
-2.259898e+01
-2.389260e+01
-2.516345e+01
-2.633144e+01
-2.732329e+01
0.000000e+00
-2.324568e-01
-5.136263e-01
-8.449654e-01
-1.226638e+00
-1.657391e+00
-2.135158e+00
-2.657653e+00
-3.222774e+00
-3.828734e+00
-4.473982e+00
-5.157094e+00
-5.877153e+00
-6.634126e+00
-7.428121e+00
-8.259469e+00
-9.130566e+00
-1.004158e+01
-1.099236e+01
-1.198314e+01
-1.301674e+01
-1.408979e+01
-1.520249e+01
-1.635935e+01
-1.754516e+01
-1.876515e+01
-2.000645e+01
-2.126655e+01
-2.253390e+01
-2.379057e+01
-2.499569e+01
-2.609679e+01
-2.705574e+01
0.000000e+00
-2.309824e-01
-5.114249e-01
-8.442614e-01
-1.229325e+00
-1.664268e+00
-2.146287e+00
-2.672498e+00
-3.240762e+00
-3.849255e+00
-4.496673e+00
-5.181330e+00
-5.902337e+00
-6.660649e+00
-7.455636e+00
-8.288096e+00
-9.160645e+00
-1.007293e+01
-1.102473e+01
-1.201450e+01
-1.304739e+01
-1.411840e+01
-1.522888e+01
-1.637931e+01
-1.755648e+01
-1.876110e+01
-1.999117e+01
-2.122904e+01
-2.247079e+01
-2.368648e+01
-2.484599e+01
-2.591510e+01
-2.686353e+01
0.000000e+00
-2.273341e-01
-5.054985e-01
-8.418287e-01
-1.233415e+00
-1.675173e+00
-2.164113e+00
-2.695351e+00
-3.268296e+00
-3.879796e+00
-4.529212e+00
-5.215133e+00
-5.936285e+00
-6.695661e+00
-7.491786e+00
-8.326685e+00
-9.200963e+00
-1.011430e+01
-1.106609e+01
-1.205486e+01
-1.308311e+01
-1.415020e+01
-1.525496e+01
-1.639520e+01
-1.756312e+01
-1.875824e+01
-1.997639e+01
-2.120136e+01
-2.241623e+01
-2.360267e+01
-2.473273e+01
-2.578588e+01
-2.673829e+01
0.000000e+00
-2.203054e-01
-4.894667e-01
-8.370468e-01
-1.241880e+00
-1.688924e+00
-2.192939e+00
-2.725628e+00
-3.307980e+00
-3.919913e+00
-4.571927e+00
-5.258480e+00
-5.978915e+00
-6.741085e+00
-7.537525e+00
-8.376089e+00
-9.251341e+00
-1.016373e+01
-1.111397e+01
-1.209941e+01
-1.312260e+01
-1.418404e+01
-1.528076e+01
-1.641148e+01
-1.757219e+01
-1.876365e+01
-1.997606e+01
-2.118631e+01
-2.238132e+01
-2.354249e+01
-2.465394e+01
-2.570010e+01
-2.666725e+01
0.000000e+00
-2.031756e-01
-4.506569e-01
-8.425587e-01
-1.248983e+00
-1.714814e+00
-2.232444e+00
-2.768606e+00
-3.358686e+00
-3.970056e+00
-4.622883e+00
-5.308848e+00
-6.031743e+00
-6.795849e+00
-7.595736e+00
-8.435756e+00
-9.311092e+00
-1.022168e+01
-1.116845e+01
-1.214999e+01
-1.316796e+01
-1.422216e+01
-1.531010e+01
-1.643353e+01
-1.759561e+01
-1.878713e+01
-1.999235e+01
-2.118753e+01
-2.236357e+01
-2.350637e+01
-2.460431e+01
-2.564909e+01
-2.663651e+01
0.000000e+00
-1.563452e-01
-4.485679e-01
-8.455727e-01
-1.286463e+00
-1.763965e+00
-2.284197e+00
-2.833542e+00
-3.417891e+00
-4.033372e+00
-4.682186e+00
-5.368980e+00
-6.093668e+00
-6.858821e+00
-7.661767e+00
-8.501581e+00
-9.376690e+00
-1.028544e+01
-1.123001e+01
-1.220886e+01
-1.322245e+01
-1.427011e+01
-1.535090e+01
-1.647535e+01
-1.764013e+01
-1.882884e+01
-2.001981e+01
-2.120154e+01
-2.236214e+01
-2.349072e+01
-2.457870e+01
-2.562352e+01
-2.663130e+01
0.000000e+00
-1.767782e-01
-5.066307e-01
-9.023687e-01
-1.353885e+00
-1.834239e+00
-2.356113e+00
-2.908465e+00
-3.491095e+00
-4.107249e+00
-4.754545e+00
-5.441336e+00
-6.166216e+00
-6.931879e+00
-7.735185e+00
-8.575041e+00
-9.449144e+00
-1.035637e+01
-1.129976e+01
-1.227723e+01
-1.328906e+01
-1.433356e+01
-1.541489e+01
-1.654058e+01
-1.770194e+01
-1.887819e+01
-2.005592e+01
-2.122457e+01
-2.237273e+01
-2.349020e+01
-2.457040e+01
-2.561432e+01
-2.663598e+01
0.000000e+00
-2.766173e-01
-5.881856e-01
-9.909622e-01
-1.435014e+00
-1.918115e+00
-2.440247e+00
-2.990694e+00
-3.575037e+00
-4.190032e+00
-4.838694e+00
-5.525147e+00
-6.249994e+00
-7.015237e+00
-7.817817e+00
-8.657227e+00
-9.530414e+00
-1.043766e+01
-1.138014e+01
-1.235710e+01
-1.336851e+01
-1.441320e+01