TITLE = "Solution"
VARIABLES = x, y, u, v, psiu, psiv, t, stress
ZONE T="structure" N=561 E=512 F=FEBLOCK ET=QUADRILATERAL VARLOCATION=([7,8]=cellcentered)
0.000000e+00
6.250000e+00
1.250000e+01
1.875000e+01
2.500000e+01
3.125000e+01
3.750000e+01
4.375000e+01
5.000000e+01
5.625000e+01
6.250000e+01
6.875000e+01
7.500000e+01
8.125000e+01
8.750000e+01
9.375000e+01
1.000000e+02
1.062500e+02
1.125000e+02
1.187500e+02
1.250000e+02
1.312500e+02
1.375000e+02
1.437500e+02
1.500000e+02
1.562500e+02
1.625000e+02
1.687500e+02
1.750000e+02
1.812500e+02
1.875000e+02
1.937500e+02
2.000000e+02
0.000000e+00
6.250000e+00
1.250000e+01
1.875000e+01
2.500000e+01
3.125000e+01
3.750000e+01
4.375000e+01
5.000000e+01
5.625000e+01
6.250000e+01
6.875000e+01
7.500000e+01
8.125000e+01
8.750000e+01
9.375000e+01
1.000000e+02
1.062500e+02
1.125000e+02
1.187500e+02
1.250000e+02
1.312500e+02
1.375000e+02
1.437500e+02
1.500000e+02
1.562500e+02
1.625000e+02
1.687500e+02
1.750000e+02
1.812500e+02
1.875000e+02
1.937500e+02
2.000000e+02
0.000000e+00
6.250000e+00
1.250000e+01
1.875000e+01
2.500000e+01
3.125000e+01
3.750000e+01
4.375000e+01
5.000000e+01
5.625000e+01
6.250000e+01
6.875000e+01
7.500000e+01
8.125000e+01
8.750000e+01
9.375000e+01
1.000000e+02
1.062500e+02
1.125000e+02
1.187500e+02
1.250000e+02
1.312500e+02
1.375000e+02
1.437500e+02
1.500000e+02
1.562500e+02
1.625000e+02
1.687500e+02
1.750000e+02
1.812500e+02
1.875000e+02
1.937500e+02
2.000000e+02
0.000000e+00
6.250000e+00
1.250000e+01
1.875000e+01
2.500000e+01
3.125000e+01
3.750000e+01
4.375000e+01
5.000000e+01
5.625000e+01
6.250000e+01
6.875000e+01
7.500000e+01
8.125000e+01
8.750000e+01
9.375000e+01
1.000000e+02
1.062500e+02
1.125000e+02
1.187500e+02
1.250000e+02
1.312500e+02
1.375000e+02
1.437500e+02
1.500000e+02
1.562500e+02
1.625000e+02
1.687500e+02
1.750000e+02
1.812500e+02
1.875000e+02
1.937500e+02
2.000000e+02
0.000000e+00
6.250000e+00
1.250000e+01
1.875000e+01
2.500000e+01
3.125000e+01
3.750000e+01
4.375000e+01
5.000000e+01
5.625000e+01
6.250000e+01
6.875000e+01
7.500000e+01
8.125000e+01
8.750000e+01
9.375000e+01
1.000000e+02
1.062500e+02
1.125000e+02
1.187500e+02
1.250000e+02
1.312500e+02
1.375000e+02
1.437500e+02
1.500000e+02
1.562500e+02
1.625000e+02
1.687500e+02
1.750000e+02
1.812500e+02
1.875000e+02
1.937500e+02
2.000000e+02
0.000000e+00
6.250000e+00
1.250000e+01
1.875000e+01
2.500000e+01
3.125000e+01
3.750000e+01
4.375000e+01
5.000000e+01
5.625000e+01
6.250000e+01
6.875000e+01
7.500000e+01
8.125000e+01
8.750000e+01
9.375000e+01
1.000000e+02
1.062500e+02
1.125000e+02
1.187500e+02
1.250000e+02
1.312500e+02
1.375000e+02
1.437500e+02
1.500000e+02
1.562500e+02
1.625000e+02
1.687500e+02
1.750000e+02
1.812500e+02
1.875000e+02
1.937500e+02
2.000000e+02
0.000000e+00
6.250000e+00
1.250000e+01
1.875000e+01
2.500000e+01
3.125000e+01
3.750000e+01
4.375000e+01
5.000000e+01
5.625000e+01
6.250000e+01
6.875000e+01
7.500000e+01
8.125000e+01
8.750000e+01
9.375000e+01
1.000000e+02
1.062500e+02
1.125000e+02
1.187500e+02
1.250000e+02
1.312500e+02
1.375000e+02
1.437500e+02
1.500000e+02
1.562500e+02
1.625000e+02
1.687500e+02
1.750000e+02
1.812500e+02
1.875000e+02
1.937500e+02
2.000000e+02
0.000000e+00
6.250000e+00
1.250000e+01
1.875000e+01
2.500000e+01
3.125000e+01
3.750000e+01
4.375000e+01
5.000000e+01
5.625000e+01
6.250000e+01
6.875000e+01
7.500000e+01
8.125000e+01
8.750000e+01
9.375000e+01
1.000000e+02
1.062500e+02
1.125000e+02
1.187500e+02
1.250000e+02
1.312500e+02
1.375000e+02
1.437500e+02
1.500000e+02
1.562500e+02
1.625000e+02
1.687500e+02
1.750000e+02
1.812500e+02
1.875000e+02
1.937500e+02
2.000000e+02
0.000000e+00
6.250000e+00
1.250000e+01
1.875000e+01
2.500000e+01
3.125000e+01
3.750000e+01
4.375000e+01
5.000000e+01
5.625000e+01
6.250000e+01
6.875000e+01
7.500000e+01
8.125000e+01
8.750000e+01
9.375000e+01
1.000000e+02
1.062500e+02
1.125000e+02
1.187500e+02
1.250000e+02
1.312500e+02
1.375000e+02
1.437500e+02
1.500000e+02
1.562500e+02
1.625000e+02
1.687500e+02
1.750000e+02
1.812500e+02
1.875000e+02
1.937500e+02
2.000000e+02
0.000000e+00
6.250000e+00
1.250000e+01
1.875000e+01
2.500000e+01
3.125000e+01
3.750000e+01
4.375000e+01
5.000000e+01
5.625000e+01
6.250000e+01
6.875000e+01
7.500000e+01
8.125000e+01
8.750000e+01
9.375000e+01
1.000000e+02
1.062500e+02
1.125000e+02
1.187500e+02
1.250000e+02
1.312500e+02
1.375000e+02
1.437500e+02
1.500000e+02
1.562500e+02
1.625000e+02
1.687500e+02
1.750000e+02
1.812500e+02
1.875000e+02
1.937500e+02
2.000000e+02
0.000000e+00
6.250000e+00
1.250000e+01
1.875000e+01
2.500000e+01
3.125000e+01
3.750000e+01
4.375000e+01
5.000000e+01
5.625000e+01
6.250000e+01
6.875000e+01
7.500000e+01
8.125000e+01
8.750000e+01
9.375000e+01
1.000000e+02
1.062500e+02
1.125000e+02
1.187500e+02
1.250000e+02
1.312500e+02
1.375000e+02
1.437500e+02
1.500000e+02
1.562500e+02
1.625000e+02
1.687500e+02
1.750000e+02
1.812500e+02
1.875000e+02
1.937500e+02
2.000000e+02
0.000000e+00
6.250000e+00
1.250000e+01
1.875000e+01
2.500000e+01
3.125000e+01
3.750000e+01
4.375000e+01
5.000000e+01
5.625000e+01
6.250000e+01
6.875000e+01
7.500000e+01
8.125000e+01
8.750000e+01
9.375000e+01
1.000000e+02
1.062500e+02
1.125000e+02
1.187500e+02
1.250000e+02
1.312500e+02
1.375000e+02
1.437500e+02
1.500000e+02
1.562500e+02
1.625000e+02
1.687500e+02
1.750000e+02
1.812500e+02
1.875000e+02
1.937500e+02
2.000000e+02
0.000000e+00
6.250000e+00
1.250000e+01
1.875000e+01
2.500000e+01
3.125000e+01
3.750000e+01
4.375000e+01
5.000000e+01
5.625000e+01
6.250000e+01
6.875000e+01
7.500000e+01
8.125000e+01
8.750000e+01
9.375000e+01
1.000000e+02
1.062500e+02
1.125000e+02
1.187500e+02
1.250000e+02
1.312500e+02
1.375000e+02
1.437500e+02
1.500000e+02
1.562500e+02
1.625000e+02
1.687500e+02
1.750000e+02
1.812500e+02
1.875000e+02
1.937500e+02
2.000000e+02
0.000000e+00
6.250000e+00
1.250000e+01
1.875000e+01
2.500000e+01
3.125000e+01
3.750000e+01
4.375000e+01
5.000000e+01
5.625000e+01
6.250000e+01
6.875000e+01
7.500000e+01
8.125000e+01
8.750000e+01
9.375000e+01
1.000000e+02
1.062500e+02
1.125000e+02
1.187500e+02
1.250000e+02
1.312500e+02
1.375000e+02
1.437500e+02
1.500000e+02
1.562500e+02
1.625000e+02
1.687500e+02
1.750000e+02
1.812500e+02
1.875000e+02
1.937500e+02
2.000000e+02
0.000000e+00
6.250000e+00
1.250000e+01
1.875000e+01
2.500000e+01
3.125000e+01
3.750000e+01
4.375000e+01
5.000000e+01
5.625000e+01
6.250000e+01
6.875000e+01
7.500000e+01
8.125000e+01
8.750000e+01
9.375000e+01
1.000000e+02
1.062500e+02
1.125000e+02
1.187500e+02
1.250000e+02
1.312500e+02
1.375000e+02
1.437500e+02
1.500000e+02
1.562500e+02
1.625000e+02
1.687500e+02
1.750000e+02
1.812500e+02
1.875000e+02
1.937500e+02
2.000000e+02
0.000000e+00
6.250000e+00
1.250000e+01
1.875000e+01
2.500000e+01
3.125000e+01
3.750000e+01
4.375000e+01
5.000000e+01
5.625000e+01
6.250000e+01
6.875000e+01
7.500000e+01
8.125000e+01
8.750000e+01
9.375000e+01
1.000000e+02
1.062500e+02
1.125000e+02
1.187500e+02
1.250000e+02
1.312500e+02
1.375000e+02
1.437500e+02
1.500000e+02
1.562500e+02
1.625000e+02
1.687500e+02
1.750000e+02
1.812500e+02
1.875000e+02
1.937500e+02
2.000000e+02
0.000000e+00
6.250000e+00
1.250000e+01
1.875000e+01
2.500000e+01
3.125000e+01
3.750000e+01
4.375000e+01
5.000000e+01
5.625000e+01
6.250000e+01
6.875000e+01
7.500000e+01
8.125000e+01
8.750000e+01
9.375000e+01
1.000000e+02
1.062500e+02
1.125000e+02
1.187500e+02
1.250000e+02
1.312500e+02
1.375000e+02
1.437500e+02
1.500000e+02
1.562500e+02
1.625000e+02
1.687500e+02
1.750000e+02
1.812500e+02
1.875000e+02
1.937500e+02
2.000000e+02
0.000000e+00
0.000000e+00
0.000000e+00
0.000000e+00
0.000000e+00
0.000000e+00
0.000000e+00
0.000000e+00
0.000000e+00
0.000000e+00
0.000000e+00
0.000000e+00
0.000000e+00
0.000000e+00
0.000000e+00
0.000000e+00
0.000000e+00
0.000000e+00
0.000000e+00
0.000000e+00
0.000000e+00
0.000000e+00
0.000000e+00
0.000000e+00
0.000000e+00
0.000000e+00
0.000000e+00
0.000000e+00
0.000000e+00
0.000000e+00
0.000000e+00
0.000000e+00
0.000000e+00
6.250000e+00
6.250000e+00
6.250000e+00
6.250000e+00
6.250000e+00
6.250000e+00
6.250000e+00
6.250000e+00
6.250000e+00
6.250000e+00
6.250000e+00
6.250000e+00
6.250000e+00
6.250000e+00
6.250000e+00
6.250000e+00
6.250000e+00
6.250000e+00
6.250000e+00
6.250000e+00
6.250000e+00
6.250000e+00
6.250000e+00
6.250000e+00
6.250000e+00
6.250000e+00
6.250000e+00
6.250000e+00
6.250000e+00
6.250000e+00
6.250000e+00
6.250000e+00
6.250000e+00
1.250000e+01
1.250000e+01
1.250000e+01
1.250000e+01
1.250000e+01
1.250000e+01
1.250000e+01
1.250000e+01
1.250000e+01
1.250000e+01
1.250000e+01
1.250000e+01
1.250000e+01
1.250000e+01
1.250000e+01
1.250000e+01
1.250000e+01
1.250000e+01
1.250000e+01
1.250000e+01
1.250000e+01
1.250000e+01
1.250000e+01
1.250000e+01
1.250000e+01
1.250000e+01
1.250000e+01
1.250000e+01
1.250000e+01
1.250000e+01
1.250000e+01
1.250000e+01
1.250000e+01
1.875000e+01
1.875000e+01
1.875000e+01
1.875000e+01
1.875000e+01
1.875000e+01
1.875000e+01
1.875000e+01
1.875000e+01
1.875000e+01
1.875000e+01
1.875000e+01
1.875000e+01
1.875000e+01
1.875000e+01
1.875000e+01
1.875000e+01
1.875000e+01
1.875000e+01
1.875000e+01
1.875000e+01
1.875000e+01
1.875000e+01
1.875000e+01
1.875000e+01
1.875000e+01
1.875000e+01
1.875000e+01
1.875000e+01
1.875000e+01
1.875000e+01
1.875000e+01
1.875000e+01
2.500000e+01
2.500000e+01
2.500000e+01
2.500000e+01
2.500000e+01
2.500000e+01
2.500000e+01
2.500000e+01
2.500000e+01
2.500000e+01
2.500000e+01
2.500000e+01
2.500000e+01
2.500000e+01
2.500000e+01
2.500000e+01
2.500000e+01
2.500000e+01
2.500000e+01
2.500000e+01
2.500000e+01
2.500000e+01
2.500000e+01
2.500000e+01
2.500000e+01
2.500000e+01
2.500000e+01
2.500000e+01
2.500000e+01
2.500000e+01
2.500000e+01
2.500000e+01
2.500000e+01
3.125000e+01
3.125000e+01
3.125000e+01
3.125000e+01
3.125000e+01
3.125000e+01
3.125000e+01
3.125000e+01
3.125000e+01
3.125000e+01
3.125000e+01
3.125000e+01
3.125000e+01
3.125000e+01
3.125000e+01
3.125000e+01
3.125000e+01
3.125000e+01
3.125000e+01
3.125000e+01
3.125000e+01
3.125000e+01
3.125000e+01
3.125000e+01
3.125000e+01
3.125000e+01
3.125000e+01
3.125000e+01
3.125000e+01
3.125000e+01
3.125000e+01
3.125000e+01
3.125000e+01
3.750000e+01
3.750000e+01
3.750000e+01
3.750000e+01
3.750000e+01
3.750000e+01
3.750000e+01
3.750000e+01
3.750000e+01
3.750000e+01
3.750000e+01
3.750000e+01
3.750000e+01
3.750000e+01
3.750000e+01
3.750000e+01
3.750000e+01
3.750000e+01
3.750000e+01
3.750000e+01
3.750000e+01
3.750000e+01
3.750000e+01
3.750000e+01
3.750000e+01
3.750000e+01
3.750000e+01
3.750000e+01
3.750000e+01
3.750000e+01
3.750000e+01
3.750000e+01
3.750000e+01
4.375000e+01
4.375000e+01
4.375000e+01
4.375000e+01
4.375000e+01
4.375000e+01
4.375000e+01
4.375000e+01
4.375000e+01
4.375000e+01
4.375000e+01
4.375000e+01
4.375000e+01
4.375000e+01
4.375000e+01
4.375000e+01
4.375000e+01
4.375000e+01
4.375000e+01
4.375000e+01
4.375000e+01
4.375000e+01
4.375000e+01
4.375000e+01
4.375000e+01
4.375000e+01
4.375000e+01
4.375000e+01
4.375000e+01
4.375000e+01
4.375000e+01
4.375000e+01
4.375000e+01
5.000000e+01
5.000000e+01
5.000000e+01
5.000000e+01
5.000000e+01
5.000000e+01
5.000000e+01
5.000000e+01
5.000000e+01
5.000000e+01
5.000000e+01
5.000000e+01
5.000000e+01
5.000000e+01
5.000000e+01
5.000000e+01
5.000000e+01
5.000000e+01
5.000000e+01
5.000000e+01
5.000000e+01
5.000000e+01
5.000000e+01
5.000000e+01
5.000000e+01
5.000000e+01
5.000000e+01
5.000000e+01
5.000000e+01
5.000000e+01
5.000000e+01
5.000000e+01
5.000000e+01
5.625000e+01
5.625000e+01
5.625000e+01
5.625000e+01
5.625000e+01
5.625000e+01
5.625000e+01
5.625000e+01
5.625000e+01
5.625000e+01
5.625000e+01
5.625000e+01
5.625000e+01
5.625000e+01
5.625000e+01
5.625000e+01
5.625000e+01
5.625000e+01
5.625000e+01
5.625000e+01
5.625000e+01
5.625000e+01
5.625000e+01
5.625000e+01
5.625000e+01
5.625000e+01
5.625000e+01
5.625000e+01
5.625000e+01
5.625000e+01
5.625000e+01
5.625000e+01
5.625000e+01
6.250000e+01
6.250000e+01
6.250000e+01
6.250000e+01
6.250000e+01
6.250000e+01
6.250000e+01
6.250000e+01
6.250000e+01
6.250000e+01
6.250000e+01
6.250000e+01
6.250000e+01
6.250000e+01
6.250000e+01
6.250000e+01
6.250000e+01
6.250000e+01
6.250000e+01
6.250000e+01
6.250000e+01
6.250000e+01
6.250000e+01
6.250000e+01
6.250000e+01
6.250000e+01
6.250000e+01
6.250000e+01
6.250000e+01
6.250000e+01
6.250000e+01
6.250000e+01
6.250000e+01
6.875000e+01
6.875000e+01
6.875000e+01
6.875000e+01
6.875000e+01
6.875000e+01
6.875000e+01
6.875000e+01
6.875000e+01
6.875000e+01
6.875000e+01
6.875000e+01
6.875000e+01
6.875000e+01
6.875000e+01
6.875000e+01
6.875000e+01
6.875000e+01
6.875000e+01
6.875000e+01
6.875000e+01
6.875000e+01
6.875000e+01
6.875000e+01
6.875000e+01
6.875000e+01
6.875000e+01
6.875000e+01
6.875000e+01
6.875000e+01
6.875000e+01
6.875000e+01
6.875000e+01
7.500000e+01
7.500000e+01
7.500000e+01
7.500000e+01
7.500000e+01
7.500000e+01
7.500000e+01
7.500000e+01
7.500000e+01
7.500000e+01
7.500000e+01
7.500000e+01
7.500000e+01
7.500000e+01
7.500000e+01
7.500000e+01
7.500000e+01
7.500000e+01
7.500000e+01
7.500000e+01
7.500000e+01
7.500000e+01
7.500000e+01
7.500000e+01
7.500000e+01
7.500000e+01
7.500000e+01
7.500000e+01
7.500000e+01
7.500000e+01
7.500000e+01
7.500000e+01
7.500000e+01
8.125000e+01
8.125000e+01
8.125000e+01
8.125000e+01
8.125000e+01
8.125000e+01
8.125000e+01
8.125000e+01
8.125000e+01
8.125000e+01
8.125000e+01
8.125000e+01
8.125000e+01
8.125000e+01
8.125000e+01
8.125000e+01
8.125000e+01
8.125000e+01
8.125000e+01
8.125000e+01
8.125000e+01
8.125000e+01
8.125000e+01
8.125000e+01
8.125000e+01
8.125000e+01
8.125000e+01
8.125000e+01
8.125000e+01
8.125000e+01
8.125000e+01
8.125000e+01
8.125000e+01
8.750000e+01
8.750000e+01
8.750000e+01
8.750000e+01
8.750000e+01
8.750000e+01
8.750000e+01
8.750000e+01
8.750000e+01
8.750000e+01
8.750000e+01
8.750000e+01
8.750000e+01
8.750000e+01
8.750000e+01
8.750000e+01
8.750000e+01
8.750000e+01
8.750000e+01
8.750000e+01
8.750000e+01
8.750000e+01
8.750000e+01
8.750000e+01
8.750000e+01
8.750000e+01
8.750000e+01
8.750000e+01
8.750000e+01
8.750000e+01
8.750000e+01
8.750000e+01
8.750000e+01
9.375000e+01
9.375000e+01
9.375000e+01
9.375000e+01
9.375000e+01
9.375000e+01
9.375000e+01
9.375000e+01
9.375000e+01
9.375000e+01
9.375000e+01
9.375000e+01
9.375000e+01
9.375000e+01
9.375000e+01
9.375000e+01
9.375000e+01
9.375000e+01
9.375000e+01
9.375000e+01
9.375000e+01
9.375000e+01
9.375000e+01
9.375000e+01
9.375000e+01
9.375000e+01
9.375000e+01
9.375000e+01
9.375000e+01
9.375000e+01
9.375000e+01
9.375000e+01
9.375000e+01
1.000000e+02
1.000000e+02
1.000000e+02
1.000000e+02
1.000000e+02
1.000000e+02
1.000000e+02
1.000000e+02
1.000000e+02
1.000000e+02
1.000000e+02
1.000000e+02
1.000000e+02
1.000000e+02
1.000000e+02
1.000000e+02
1.000000e+02
1.000000e+02
1.000000e+02
1.000000e+02
1.000000e+02
1.000000e+02
1.000000e+02
1.000000e+02
1.000000e+02
1.000000e+02
1.000000e+02
1.000000e+02
1.000000e+02
1.000000e+02
1.000000e+02
1.000000e+02
1.000000e+02
0.000000e+00
-4.505974e-01
-7.601036e-01
-1.091417e+00
-1.397205e+00
-1.694890e+00
-2.003862e+00
-2.298830e+00
-2.599698e+00
-2.898928e+00
-3.197041e+00
-3.497559e+00
-3.796541e+00
-4.096101e+00
-4.396198e+00
-4.695627e+00
-4.995643e+00
-5.295517e+00
-5.595291e+00
-5.895425e+00
-6.195311e+00
-6.495612e+00
-6.795354e+00
-7.095746e+00
-7.398161e+00
-7.701880e+00
-8.015661e+00
-8.337395e+00
-8.665746e+00
-9.041622e+00
-9.507284e+00
-9.921903e+00
-1.012916e+01
0.000000e+00
-2.334592e-01
-4.764348e-01
-7.404635e-01
-1.007437e+00
-1.261364e+00
-1.530011e+00
-1.790340e+00
-2.052359e+00
-2.316808e+00
-2.577075e+00
-2.840824e+00
-3.102380e+00
-3.364197e+00
-3.626610e+00
-3.887789e+00
-4.149726e+00
-4.411059e+00
-4.672257e+00
-4.933492e+00
-5.194231e+00
-5.455282e+00
-5.715651e+00
-5.976534e+00
-6.237542e+00
-6.497108e+00
-6.759444e+00
-7.019237e+00
-7.274443e+00
-7.538918e+00
-7.776970e+00
-7.871832e+00
-7.977221e+00
0.000000e+00
-1.202505e-01
-2.716093e-01
-4.693470e-01
-6.827022e-01
-8.883772e-01
-1.113590e+00
-1.335008e+00
-1.558164e+00
-1.784819e+00
-2.007429e+00
-2.233282e+00
-2.457464e+00
-2.681861e+00
-2.906841e+00
-3.130953e+00
-3.355810e+00
-3.580347e+00
-3.804898e+00
-4.029523e+00
-4.253740e+00
-4.478084e+00
-4.701736e+00
-4.924633e+00
-5.145150e+00
-5.359857e+00
-5.566981e+00
-5.760760e+00
-5.935298e+00
-6.080781e+00
-6.154986e+00
-6.157603e+00
-6.250183e+00
0.000000e+00
-1.025144e-01
-1.951306e-01
-3.400265e-01
-4.694966e-01
-6.277265e-01
-8.018698e-01
-9.753107e-01
-1.158494e+00
-1.341024e+00
-1.525534e+00
-1.711777e+00
-1.898349e+00
-2.085847e+00
-2.274252e+00
-2.462973e+00
-2.652674e+00
-2.842817e+00
-3.033261e+00
-3.223951e+00
-3.413997e+00
-3.603129e+00
-3.789757e+00
-3.971868e+00
-4.146882e+00
-4.309985e+00
-4.457313e+00
-4.583438e+00
-4.679740e+00
-4.735143e+00
-4.743537e+00
-4.756275e+00
-4.837694e+00
0.000000e+00
-9.052101e-02
-1.799147e-01
-2.729655e-01
-3.820055e-01
-5.001418e-01
-6.305191e-01
-7.655879e-01
-9.075956e-01
-1.051643e+00
-1.197427e+00
-1.345613e+00
-1.493395e+00
-1.642794e+00
-1.792218e+00
-1.941911e+00
-2.092101e+00
-2.241771e+00
-2.391239e+00
-2.539477e+00
-2.685690e+00
-2.828793e+00
-2.966802e+00
-3.097697e+00
-3.218595e+00
-3.326205e+00
-3.416509e+00
-3.484723e+00
-3.526038e+00
-3.539765e+00
-3.534300e+00
-3.562944e+00
-3.638435e+00
0.000000e+00
-7.222599e-02
-1.423769e-01
-2.161719e-01
-2.966890e-01
-3.844728e-01
-4.786644e-01
-5.790694e-01
-6.828668e-01
-7.898754e-01
-8.984319e-01
-1.007828e+00
-1.118032e+00
-1.228178e+00
-1.338481e+00
-1.448515e+00
-1.558032e+00
-1.666837e+00
-1.774260e+00
-1.879701e+00
-1.982044e+00
-2.079865e+00
-2.171436e+00
-2.254604e+00
-2.327118e+00
-2.386557e+00
-2.430446e+00
-2.456436e+00
-2.464208e+00
-2.454202e+00
-2.448905e+00
-2.479036e+00
-2.548734e+00
0.000000e+00
-4.978596e-02
-9.916940e-02
-1.499472e-01
-2.041645e-01
-2.624164e-01
-3.248231e-01
-3.907032e-01
-4.593651e-01
-5.298090e-01
-6.013573e-01
-6.734067e-01
-7.455126e-01
-8.174342e-01
-8.888717e-01
-9.596293e-01
-1.029430e+00
-1.097917e+00
-1.164615e+00
-1.228787e+00
-1.289424e+00
-1.345166e+00
-1.394373e+00
-1.435242e+00
-1.465941e+00
-1.484795e+00
-1.490594e+00
-1.482254e+00
-1.459247e+00
-1.430708e+00
-1.421427e+00
-1.451448e+00
-1.521088e+00
0.000000e+00
-2.609437e-02
-5.209819e-02
-7.871211e-02
-1.066676e-01
-1.364122e-01
-1.679504e-01
-2.010640e-01
-2.353097e-01
-2.702423e-01
-3.054042e-01
-3.404296e-01
-3.750299e-01
-4.089589e-01
-4.420139e-01
-4.739708e-01
-5.045880e-01
-5.335686e-01
-5.605145e-01
-5.848639e-01
-6.057937e-01
-6.221749e-01
-6.326345e-01
-6.357371e-01
-6.300510e-01
-6.142637e-01
-5.868046e-01
-5.463508e-01
-4.996846e-01
-4.579049e-01
-4.449983e-01
-4.760386e-01
-5.465858e-01
0.000000e+00
-1.691416e-03
-3.420967e-03
-5.128639e-03
-6.750371e-03
-8.211064e-03
-9.423637e-03
-1.028832e-02
-1.069750e-02
-1.053631e-02
-9.684489e-03
-8.017314e-03
-5.405421e-03
-1.710255e-03
3.225829e-03
9.584173e-03
1.756812e-02
2.740173e-02
3.934357e-02
5.373295e-02
7.108079e-02
9.215277e-02
1.179862e-01
1.497085e-01
1.883879e-01
2.359680e-01
2.942764e-01
3.597963e-01
4.214435e-01
4.636543e-01
4.724726e-01
4.386783e-01
3.683181e-01
0.000000e+00
2.277749e-02
4.538927e-02
6.865495e-02
9.343836e-02
1.203349e-01
1.495313e-01
1.810058e-01
2.145239e-01
2.498497e-01
2.867398e-01
3.250467e-01
3.647103e-01
4.057434e-01
4.482478e-01
4.923616e-01
5.382606e-01
5.861339e-01
6.361710e-01
6.885693e-01
7.435664e-01
8.015258e-01
8.629701e-01
9.287907e-01
1.000704e+00
1.079287e+00
1.161515e+00
1.241119e+00
1.305802e+00
1.343012e+00
1.343713e+00
1.307968e+00
1.248712e+00
0.000000e+00
4.666137e-02
9.283672e-02
1.404629e-01
1.916995e-01
2.473176e-01
3.076258e-01
3.721701e-01
4.404438e-01
5.116265e-01
5.851898e-01
6.606532e-01
7.377007e-01
8.162446e-01
8.962202e-01
9.777254e-01
1.060875e+00
1.145867e+00
1.233001e+00
1.322622e+00
1.415109e+00
1.510573e+00
1.608971e+00
1.710313e+00
1.813764e+00
1.917287e+00
2.015586e+00
2.099524e+00
2.160743e+00
2.191565e+00
2.190049e+00
2.161661e+00
2.118159e+00
0.000000e+00
6.939732e-02
1.366275e-01
2.075179e-01
2.853492e-01
3.707386e-01
4.632132e-01
5.627620e-01
6.668050e-01
7.753169e-01
8.867683e-01
1.000499e+00
1.116453e+00
1.233831e+00
1.352841e+00
1.473171e+00
1.594664e+00
1.717437e+00
1.841619e+00
1.967943e+00
2.097331e+00
2.230067e+00
2.364757e+00
2.498151e+00
2.627142e+00
2.748358e+00
2.855979e+00
2.942918e+00
3.003238e+00
3.035251e+00
3.040065e+00
3.022749e+00
2.994717e+00
0.000000e+00
8.813905e-02
1.748729e-01
2.654021e-01
3.716983e-01
4.877991e-01
6.167043e-01
7.513680e-01
8.941766e-01
1.040560e+00
1.190301e+00
1.344052e+00
1.499274e+00
1.657728e+00
1.818055e+00
1.980227e+00
2.144217e+00
2.309082e+00
2.474820e+00
2.641153e+00
2.807973e+00
2.973854e+00
3.137070e+00
3.295215e+00
3.444469e+00
3.580618e+00
3.698396e+00
3.792441e+00
3.860025e+00
3.900004e+00
3.913917e+00
3.907577e+00
3.892700e+00
0.000000e+00
1.007445e-01
1.918092e-01
3.338240e-01
4.609482e-01
6.167331e-01
7.893306e-01
9.620578e-01
1.145667e+00
1.330027e+00
1.518017e+00
1.709293e+00
1.902756e+00
2.099273e+00
2.298823e+00
2.500693e+00
2.705203e+00
2.911701e+00
3.119220e+00
3.326944e+00
3.532161e+00
3.731969e+00
3.924835e+00
4.109494e+00
4.282512e+00
4.438072e+00
4.570700e+00
4.676281e+00
4.753084e+00
4.801517e+00
4.824212e+00
4.827211e+00
4.822248e+00
0.000000e+00
1.202721e-01
2.713367e-01
4.677740e-01
6.788487e-01
8.824289e-01
1.105680e+00
1.325653e+00
1.547948e+00
1.774685e+00
1.998192e+00
2.225967e+00
2.453101e+00
2.681701e+00
2.912302e+00
3.143032e+00
3.375406e+00
3.608260e+00
3.841367e+00
4.074671e+00
4.305559e+00
4.532019e+00
4.754284e+00
4.970531e+00
5.172645e+00
5.350734e+00
5.498205e+00
5.613034e+00
5.696001e+00
5.749567e+00
5.777813e+00
5.787082e+00
5.788150e+00
0.000000e+00
2.336631e-01
4.768338e-01
7.408357e-01
1.007604e+00
1.261389e+00
1.529668e+00
1.789614e+00
2.051269e+00
2.315170e+00
2.574820e+00
2.837846e+00
3.098487e+00
3.359150e+00
3.620202e+00
3.879534e+00
4.139162e+00
4.397631e+00
4.654743e+00
4.911313e+00
5.165807e+00
5.418540e+00
5.671403e+00
5.919573e+00
6.148148e+00
6.343577e+00
6.500249e+00
6.617873e+00
6.699257e+00
6.749446e+00
6.775245e+00
6.784651e+00
6.786945e+00
0.000000e+00
4.503529e-01
7.605428e-01
1.092919e+00
1.400608e+00
1.700357e+00
2.011127e+00
2.307513e+00
2.609522e+00
2.908865e+00
3.206365e+00
3.505373e+00
3.801524e+00
4.096968e+00
4.391249e+00
4.683204e+00
4.974316e+00
5.263774e+00
5.551164e+00
5.838190e+00
6.124207e+00
6.411087e+00
6.699380e+00
6.979231e+00
7.230125e+00
7.437474e+00
7.596275e+00
7.706896e+00
7.773472e+00
7.803808e+00
7.809508e+00
7.805039e+00
7.802482e+00
0.000000e+00
-2.693682e-01
-5.569417e-01
-9.202393e-01
-1.320124e+00
-1.760389e+00
-2.242687e+00
-2.758547e+00
-3.313012e+00
-3.903122e+00
-4.529732e+00
-5.194369e+00
-5.895631e+00
-6.635085e+00
-7.412198e+00
-8.227189e+00
-9.080505e+00
-9.971845e+00
-1.090168e+01
-1.187006e+01
-1.287731e+01
-1.392374e+01
-1.500953e+01
-1.613530e+01
-1.730147e+01
-1.851050e+01
-1.976697e+01
-2.107626e+01
-2.245041e+01
-2.390696e+01
-2.546289e+01
-2.727975e+01
-2.983622e+01
0.000000e+00
-1.717256e-01
-4.768573e-01
-8.329417e-01
-1.237744e+00
-1.675887e+00
-2.158251e+00
-2.675300e+00
-3.228599e+00
-3.819434e+00
-4.445713e+00
-5.110307e+00
-5.811808e+00
-6.551061e+00
-7.328315e+00
-8.143309e+00
-8.996611e+00
-9.888032e+00
-1.081784e+01
-1.178626e+01
-1.279346e+01
-1.383993e+01
-1.492570e+01
-1.605124e+01
-1.721748e+01
-1.842565e+01
-1.968087e+01
-2.099019e+01
-2.236158e+01
-2.381236e+01
-2.538927e+01
-2.718972e+01
-2.945924e+01
0.000000e+00
-1.457903e-01
-4.190031e-01
-7.739849e-01
-1.171204e+00
-1.607319e+00
-2.088160e+00
-2.604133e+00
-3.157122e+00
-3.747659e+00
-4.373971e+00
-5.038432e+00
-5.740126e+00
-6.479300e+00
-7.256715e+00
-8.071730e+00
-8.925088e+00
-9.816624e+00
-1.074647e+01
-1.171503e+01
-1.272225e+01
-1.376885e+01
-1.485475e+01
-1.598071e+01
-1.714814e+01
-1.835785e+01
-1.961566e+01
-2.092847e+01
-2.230506e+01
-2.377689e+01
-2.539018e+01
-2.708473e+01
-2.884867e+01
0.000000e+00
-1.758247e-01
-4.124836e-01
-7.582506e-01
-1.132531e+00
-1.561665e+00
-2.038447e+00
-2.548849e+00
-3.101576e+00
-3.690288e+00
-4.316088e+00
-4.980519e+00
-5.681711e+00
-6.421064e+00
-7.198415e+00
-8.013383e+00
-8.866920e+00
-9.758476e+00
-1.068858e+01
-1.165750e+01
-1.266516e+01
-1.371249e+01
-1.479953e+01
-1.592734e+01
-1.709768e+01
-1.831186e+01
-1.957507e+01
-2.089407e+01
-2.228076e+01
-2.376817e+01
-2.537433e+01
-2.693180e+01
-2.834525e+01
0.000000e+00
-1.945142e-01
-4.400203e-01
-7.580513e-01
-1.126579e+00
-1.541707e+00
-2.009722e+00
-2.514298e+00
-3.063077e+00
-3.649791e+00
-4.273984e+00
-4.938149e+00
-5.638681e+00
-6.378211e+00
-7.155525e+00
-7.970617e+00
-8.824479e+00
-9.716292e+00
-1.064704e+01
-1.161676e+01
-1.262571e+01
-1.367476e+01
-1.476419e+01
-1.589516e+01
-1.706917e+01
-1.828831e+01
-1.955673e+01
-2.088035e+01
-2.226898e+01
-2.374489e+01
-2.528673e+01
-2.672820e+01
-2.798664e+01
0.000000e+00
-2.024775e-01
-4.547711e-01
-7.629252e-01
-1.123296e+00
-1.533005e+00
-1.990769e+00
-2.492330e+00
-3.036177e+00
-3.620765e+00
-4.244398e+00
-4.907232e+00
-5.608379e+00
-6.347801e+00
-7.125537e+00
-7.941367e+00
-8.795674e+00
-9.688543e+00
-1.062036e+01
-1.159163e+01
-1.260279e+01
-1.365449e+01
-1.474730e+01
-1.588195e+01
-1.705957e+01
-1.828197e+01
-1.955257e+01
-2.087504e+01
-2.225069e+01
-2.368976e+01
-2.513869e+01
-2.649931e+01
-2.768108e+01
0.000000e+00
-2.063820e-01
-4.608530e-01
-7.661039e-01
-1.122058e+00
-1.527300e+00
-1.980028e+00
-2.477994e+00
-3.019226e+00
-3.602024e+00
-4.225156e+00
-4.887751e+00
-5.589244e+00
-6.329292e+00
-7.107723e+00
-7.924531e+00
-8.779839e+00
-9.673933e+00
-1.060726e+01
-1.158041e+01
-1.259406e+01
-1.364881e+01
-1.474511e+01
-1.588324e+01
-1.706353e+01
-1.828671e+01
-1.955480e+01
-2.086906e+01
-2.221859e+01
-2.360695e+01
-2.497965e+01
-2.626885e+01
-2.739017e+01
0.000000e+00
-2.079035e-01
-4.632410e-01
-7.676450e-01
-1.121585e+00
-1.524404e+00
-1.974715e+00
-2.470740e+00
-3.010660e+00
-3.592841e+00
-4.215941e+00
-4.878965e+00
-5.581195e+00
-6.322185e+00
-7.101700e+00
-7.919681e+00
-8.776240e+00
-9.671666e+00
-1.060648e+01
-1.158143e+01
-1.259733e+01
-1.365485e+01
-1.475416e+01
-1.589490e+01
-1.707632e+01
-1.829750e+01
-1.955795e+01
-2.085574e+01
-2.217307e+01
-2.350931e+01
-2.481900e+01
-2.604160e+01
-2.710422e+01
0.000000e+00
-2.082293e-01
-4.638184e-01
-7.681105e-01
-1.121642e+00
-1.523971e+00
-1.973890e+00
-2.469763e+00
-3.009848e+00
-3.592524e+00
-4.216426e+00
-4.880478e+00
-5.583898e+00
-6.326176e+00
-7.107034e+00
-7.926378e+00
-8.784266e+00
-9.680959e+00
-1.061699e+01
-1.159322e+01
-1.261068e+01
-1.367016e+01
-1.477153e+01
-1.591342e+01
-1.709372e+01
-1.830926e+01
-1.955686e+01
-2.083237e+01
-2.211962e+01
-2.340451e+01
-2.465570e+01
-2.581121e+01
-2.681060e+01
0.000000e+00
-2.076989e-01
-4.630700e-01
-7.677478e-01
-1.122216e+00
-1.525849e+00
-1.977289e+00
-2.474780e+00
-3.016510e+00
-3.600834e+00
-4.226372e+00
-4.892056e+00
-5.597083e+00
-6.340935e+00
-7.123329e+00
-7.944135e+00
-8.803341e+00
-9.701117e+00
-1.063794e+01
-1.161472e+01
-1.263272e+01
-1.369289e+01
-1.479483e+01
-1.593563e+01
-1.711094e+01
-1.831731e+01
-1.955005e+01
-2.080296e+01
-2.206041e+01
-2.330199e+01
-2.449764e+01
-2.559774e+01
-2.655712e+01
0.000000e+00
-2.059679e-01
-4.605050e-01
-7.662957e-01
-1.123287e+00
-1.530142e+00
-1.985127e+00
-2.486024e+00
-3.030859e+00
-3.617906e+00
-4.245844e+00
-4.913655e+00
-5.620597e+00
-6.366194e+00
-7.150186e+00
-7.972423e+00
-8.832799e+00
-9.731376e+00
-1.066850e+01
-1.164507e+01
-1.266247e+01
-1.372167e+01
-1.482151e+01
-1.595765e+01
-1.712523e+01
-1.832130e+01
-1.954049e+01
-2.077223e+01
-2.200169e+01
-2.320595e+01
-2.435819e+01
-2.542350e+01
-2.636745e+01
0.000000e+00
-2.018329e-01
-4.542117e-01
-7.631714e-01
-1.125023e+00
-1.537112e+00
-1.998288e+00
-2.504254e+00
-3.053496e+00
-3.644404e+00
-4.275140e+00
-4.945579e+00
-5.654602e+00
-6.401942e+00
-7.187517e+00
-8.010883e+00
-8.872039e+00
-9.770871e+00
-1.070758e+01
-1.168312e+01
-1.269875e+01
-1.375453e+01
-1.484889e+01
-1.597816e+01
-1.713818e+01
-1.832543e+01
-1.953257e+01
-2.074658e+01
-2.195073e+01
-2.312543e+01
-2.424819e+01
-2.529484e+01
-2.624012e+01
0.000000e+00
-1.935706e-01
-4.391606e-01
-7.582687e-01
-1.128490e+00
-1.546821e+00
-2.019398e+00
-2.529878e+00
-3.085849e+00
-3.680958e+00
-4.314504e+00
-4.988493e+00
-5.699203e+00
-6.448655e+00
-7.235690e+00
-8.059778e+00
-8.921281e+00
-9.819472e+00
-1.075478e+01
-1.172812e+01
-1.274030e+01
-1.379032e+01
-1.487740e+01
-1.600007e+01
-1.715469e+01
-1.833574e+01
-1.953317e+01
-2.073164e+01
-2.191501e+01
-2.306665e+01
-2.416979e+01
-2.520826e+01
-2.616648e+01
0.000000e+00
-1.744946e-01
-4.115149e-01
-7.578590e-01
-1.134341e+00
-1.567139e+00
-2.049598e+00
-2.567210e+00
-3.128838e+00
-3.727778e+00
-4.364880e+00
-5.041177e+00
-5.754424e+00
-6.505543e+00
-7.294032e+00
-8.118808e+00
-8.980180e+00
-9.877500e+00
-1.081071e+01
-1.178093e+01
-1.278806e+01
-1.383127e+01
-1.491155e+01
-1.602965e+01
-1.718171e+01
-1.835841e+01
-1.954670e+01
-2.073100e+01
-2.189688e+01
-2.303062e+01
-2.412009e+01
-2.515630e+01
-2.613407e+01
0.000000e+00
-1.448994e-01
-4.180063e-01
-7.733597e-01
-1.172474e+00
-1.612526e+00
-2.099415e+00
-2.623296e+00
-3.186004e+00
-3.787773e+00
-4.426302e+00
-5.103717e+00
-5.818518e+00
-6.570495e+00
-7.359861e+00
-8.185038e+00
-9.046343e+00
-9.943137e+00
-1.087492e+01
-1.184242e+01
-1.284506e+01
-1.388290e+01
-1.495882e+01
-1.607464e+01
-1.722425e+01
-1.839507e+01
-1.957287e+01
-2.074393e+01
-2.189523e+01
-2.301496e+01
-2.409428e+01
-2.513013e+01
-2.612808e+01
0.000000e+00
-1.710592e-01
-4.757237e-01
-8.320697e-01
-1.238649e+00
-1.680808e+00
-2.169293e+00
-2.694478e+00
-3.257772e+00
-3.860139e+00
-4.498947e+00
-5.176836e+00
-5.891795e+00
-6.644173e+00
-7.433551e+00
-8.258698e+00
-9.119788e+00
-1.001602e+01
-1.094702e+01
-1.191287e+01
-1.291310e+01
-1.394884e+01
-1.502343e+01
-1.613697e+01
-1.728098e+01
-1.844237e+01
-1.960843e+01
-2.076693e+01
-2.190587e+01
-2.301453e+01
-2.408592e+01
-2.512066e+01
-2.613258e+01
0.000000e+00
-2.687864e-01
-5.559558e-01
-9.195494e-01
-1.321328e+00
-1.765572e+00
-2.253928e+00
-2.777913e+00
-3.342311e+00
-3.943811e+00
-4.582886e+00
-5.260668e+00
-5.975207e+00
-6.727571e+00
-7.516479e+00
-8.341300e+00
-9.202034e+00
-1.009766e+01
-1.102814e+01
-1.199333e+01
-1.299286e+01
-1.402870e+01