TITLE = "Solution"
VARIABLES = x, y, u, v, psiu, psiv, t, stress
ZONE T="structure" N=561 E=512 F=FEBLOCK ET=QUADRILATERAL VARLOCATION=([7,8]=cellcentered)
0.000000e+00
6.250000e+00
1.250000e+01
1.875000e+01
2.500000e+01
3.125000e+01
3.750000e+01
4.375000e+01
5.000000e+01
5.625000e+01
6.250000e+01
6.875000e+01
7.500000e+01
8.125000e+01
8.750000e+01
9.375000e+01
1.000000e+02
1.062500e+02
1.125000e+02
1.187500e+02
1.250000e+02
1.312500e+02
1.375000e+02
1.437500e+02
1.500000e+02
1.562500e+02
1.625000e+02
1.687500e+02
1.750000e+02
1.812500e+02
1.875000e+02
1.937500e+02
2.000000e+02
0.000000e+00
6.250000e+00
1.250000e+01
1.875000e+01
2.500000e+01
3.125000e+01
3.750000e+01
4.375000e+01
5.000000e+01
5.625000e+01
6.250000e+01
6.875000e+01
7.500000e+01
8.125000e+01
8.750000e+01
9.375000e+01
1.000000e+02
1.062500e+02
1.125000e+02
1.187500e+02
1.250000e+02
1.312500e+02
1.375000e+02
1.437500e+02
1.500000e+02
1.562500e+02
1.625000e+02
1.687500e+02
1.750000e+02
1.812500e+02
1.875000e+02
1.937500e+02
2.000000e+02
0.000000e+00
6.250000e+00
1.250000e+01
1.875000e+01
2.500000e+01
3.125000e+01
3.750000e+01
4.375000e+01
5.000000e+01
5.625000e+01
6.250000e+01
6.875000e+01
7.500000e+01
8.125000e+01
8.750000e+01
9.375000e+01
1.000000e+02
1.062500e+02
1.125000e+02
1.187500e+02
1.250000e+02
1.312500e+02
1.375000e+02
1.437500e+02
1.500000e+02
1.562500e+02
1.625000e+02
1.687500e+02
1.750000e+02
1.812500e+02
1.875000e+02
1.937500e+02
2.000000e+02
0.000000e+00
6.250000e+00
1.250000e+01
1.875000e+01
2.500000e+01
3.125000e+01
3.750000e+01
4.375000e+01
5.000000e+01
5.625000e+01
6.250000e+01
6.875000e+01
7.500000e+01
8.125000e+01
8.750000e+01
9.375000e+01
1.000000e+02
1.062500e+02
1.125000e+02
1.187500e+02
1.250000e+02
1.312500e+02
1.375000e+02
1.437500e+02
1.500000e+02
1.562500e+02
1.625000e+02
1.687500e+02
1.750000e+02
1.812500e+02
1.875000e+02
1.937500e+02
2.000000e+02
0.000000e+00
6.250000e+00
1.250000e+01
1.875000e+01
2.500000e+01
3.125000e+01
3.750000e+01
4.375000e+01
5.000000e+01
5.625000e+01
6.250000e+01
6.875000e+01
7.500000e+01
8.125000e+01
8.750000e+01
9.375000e+01
1.000000e+02
1.062500e+02
1.125000e+02
1.187500e+02
1.250000e+02
1.312500e+02
1.375000e+02
1.437500e+02
1.500000e+02
1.562500e+02
1.625000e+02
1.687500e+02
1.750000e+02
1.812500e+02
1.875000e+02
1.937500e+02
2.000000e+02
0.000000e+00
6.250000e+00
1.250000e+01
1.875000e+01
2.500000e+01
3.125000e+01
3.750000e+01
4.375000e+01
5.000000e+01
5.625000e+01
6.250000e+01
6.875000e+01
7.500000e+01
8.125000e+01
8.750000e+01
9.375000e+01
1.000000e+02
1.062500e+02
1.125000e+02
1.187500e+02
1.250000e+02
1.312500e+02
1.375000e+02
1.437500e+02
1.500000e+02
1.562500e+02
1.625000e+02
1.687500e+02
1.750000e+02
1.812500e+02
1.875000e+02
1.937500e+02
2.000000e+02
0.000000e+00
6.250000e+00
1.250000e+01
1.875000e+01
2.500000e+01
3.125000e+01
3.750000e+01
4.375000e+01
5.000000e+01
5.625000e+01
6.250000e+01
6.875000e+01
7.500000e+01
8.125000e+01
8.750000e+01
9.375000e+01
1.000000e+02
1.062500e+02
1.125000e+02
1.187500e+02
1.250000e+02
1.312500e+02
1.375000e+02
1.437500e+02
1.500000e+02
1.562500e+02
1.625000e+02
1.687500e+02
1.750000e+02
1.812500e+02
1.875000e+02
1.937500e+02
2.000000e+02
0.000000e+00
6.250000e+00
1.250000e+01
1.875000e+01
2.500000e+01
3.125000e+01
3.750000e+01
4.375000e+01
5.000000e+01
5.625000e+01
6.250000e+01
6.875000e+01
7.500000e+01
8.125000e+01
8.750000e+01
9.375000e+01
1.000000e+02
1.062500e+02
1.125000e+02
1.187500e+02
1.250000e+02
1.312500e+02
1.375000e+02
1.437500e+02
1.500000e+02
1.562500e+02
1.625000e+02
1.687500e+02
1.750000e+02
1.812500e+02
1.875000e+02
1.937500e+02
2.000000e+02
0.000000e+00
6.250000e+00
1.250000e+01
1.875000e+01
2.500000e+01
3.125000e+01
3.750000e+01
4.375000e+01
5.000000e+01
5.625000e+01
6.250000e+01
6.875000e+01
7.500000e+01
8.125000e+01
8.750000e+01
9.375000e+01
1.000000e+02
1.062500e+02
1.125000e+02
1.187500e+02
1.250000e+02
1.312500e+02
1.375000e+02
1.437500e+02
1.500000e+02
1.562500e+02
1.625000e+02
1.687500e+02
1.750000e+02
1.812500e+02
1.875000e+02
1.937500e+02
2.000000e+02
0.000000e+00
6.250000e+00
1.250000e+01
1.875000e+01
2.500000e+01
3.125000e+01
3.750000e+01
4.375000e+01
5.000000e+01
5.625000e+01
6.250000e+01
6.875000e+01
7.500000e+01
8.125000e+01
8.750000e+01
9.375000e+01
1.000000e+02
1.062500e+02
1.125000e+02
1.187500e+02
1.250000e+02
1.312500e+02
1.375000e+02
1.437500e+02
1.500000e+02
1.562500e+02
1.625000e+02
1.687500e+02
1.750000e+02
1.812500e+02
1.875000e+02
1.937500e+02
2.000000e+02
0.000000e+00
6.250000e+00
1.250000e+01
1.875000e+01
2.500000e+01
3.125000e+01
3.750000e+01
4.375000e+01
5.000000e+01
5.625000e+01
6.250000e+01
6.875000e+01
7.500000e+01
8.125000e+01
8.750000e+01
9.375000e+01
1.000000e+02
1.062500e+02
1.125000e+02
1.187500e+02
1.250000e+02
1.312500e+02
1.375000e+02
1.437500e+02
1.500000e+02
1.562500e+02
1.625000e+02
1.687500e+02
1.750000e+02
1.812500e+02
1.875000e+02
1.937500e+02
2.000000e+02
0.000000e+00
6.250000e+00
1.250000e+01
1.875000e+01
2.500000e+01
3.125000e+01
3.750000e+01
4.375000e+01
5.000000e+01
5.625000e+01
6.250000e+01
6.875000e+01
7.500000e+01
8.125000e+01
8.750000e+01
9.375000e+01
1.000000e+02
1.062500e+02
1.125000e+02
1.187500e+02
1.250000e+02
1.312500e+02
1.375000e+02
1.437500e+02
1.500000e+02
1.562500e+02
1.625000e+02
1.687500e+02
1.750000e+02
1.812500e+02
1.875000e+02
1.937500e+02
2.000000e+02
0.000000e+00
6.250000e+00
1.250000e+01
1.875000e+01
2.500000e+01
3.125000e+01
3.750000e+01
4.375000e+01
5.000000e+01
5.625000e+01
6.250000e+01
6.875000e+01
7.500000e+01
8.125000e+01
8.750000e+01
9.375000e+01
1.000000e+02
1.062500e+02
1.125000e+02
1.187500e+02
1.250000e+02
1.312500e+02
1.375000e+02
1.437500e+02
1.500000e+02
1.562500e+02
1.625000e+02
1.687500e+02
1.750000e+02
1.812500e+02
1.875000e+02
1.937500e+02
2.000000e+02
0.000000e+00
6.250000e+00
1.250000e+01
1.875000e+01
2.500000e+01
3.125000e+01
3.750000e+01
4.375000e+01
5.000000e+01
5.625000e+01
6.250000e+01
6.875000e+01
7.500000e+01
8.125000e+01
8.750000e+01
9.375000e+01
1.000000e+02
1.062500e+02
1.125000e+02
1.187500e+02
1.250000e+02
1.312500e+02
1.375000e+02
1.437500e+02
1.500000e+02
1.562500e+02
1.625000e+02
1.687500e+02
1.750000e+02
1.812500e+02
1.875000e+02
1.937500e+02
2.000000e+02
0.000000e+00
6.250000e+00
1.250000e+01
1.875000e+01
2.500000e+01
3.125000e+01
3.750000e+01
4.375000e+01
5.000000e+01
5.625000e+01
6.250000e+01
6.875000e+01
7.500000e+01
8.125000e+01
8.750000e+01
9.375000e+01
1.000000e+02
1.062500e+02
1.125000e+02
1.187500e+02
1.250000e+02
1.312500e+02
1.375000e+02
1.437500e+02
1.500000e+02
1.562500e+02
1.625000e+02
1.687500e+02
1.750000e+02
1.812500e+02
1.875000e+02
1.937500e+02
2.000000e+02
0.000000e+00
6.250000e+00
1.250000e+01
1.875000e+01
2.500000e+01
3.125000e+01
3.750000e+01
4.375000e+01
5.000000e+01
5.625000e+01
6.250000e+01
6.875000e+01
7.500000e+01
8.125000e+01
8.750000e+01
9.375000e+01
1.000000e+02
1.062500e+02
1.125000e+02
1.187500e+02
1.250000e+02
1.312500e+02
1.375000e+02
1.437500e+02
1.500000e+02
1.562500e+02
1.625000e+02
1.687500e+02
1.750000e+02
1.812500e+02
1.875000e+02
1.937500e+02
2.000000e+02
0.000000e+00
6.250000e+00
1.250000e+01
1.875000e+01
2.500000e+01
3.125000e+01
3.750000e+01
4.375000e+01
5.000000e+01
5.625000e+01
6.250000e+01
6.875000e+01
7.500000e+01
8.125000e+01
8.750000e+01
9.375000e+01
1.000000e+02
1.062500e+02
1.125000e+02
1.187500e+02
1.250000e+02
1.312500e+02
1.375000e+02
1.437500e+02
1.500000e+02
1.562500e+02
1.625000e+02
1.687500e+02
1.750000e+02
1.812500e+02
1.875000e+02
1.937500e+02
2.000000e+02
0.000000e+00
0.000000e+00
0.000000e+00
0.000000e+00
0.000000e+00
0.000000e+00
0.000000e+00
0.000000e+00
0.000000e+00
0.000000e+00
0.000000e+00
0.000000e+00
0.000000e+00
0.000000e+00
0.000000e+00
0.000000e+00
0.000000e+00
0.000000e+00
0.000000e+00
0.000000e+00
0.000000e+00
0.000000e+00
0.000000e+00
0.000000e+00
0.000000e+00
0.000000e+00
0.000000e+00
0.000000e+00
0.000000e+00
0.000000e+00
0.000000e+00
0.000000e+00
0.000000e+00
6.250000e+00
6.250000e+00
6.250000e+00
6.250000e+00
6.250000e+00
6.250000e+00
6.250000e+00
6.250000e+00
6.250000e+00
6.250000e+00
6.250000e+00
6.250000e+00
6.250000e+00
6.250000e+00
6.250000e+00
6.250000e+00
6.250000e+00
6.250000e+00
6.250000e+00
6.250000e+00
6.250000e+00
6.250000e+00
6.250000e+00
6.250000e+00
6.250000e+00
6.250000e+00
6.250000e+00
6.250000e+00
6.250000e+00
6.250000e+00
6.250000e+00
6.250000e+00
6.250000e+00
1.250000e+01
1.250000e+01
1.250000e+01
1.250000e+01
1.250000e+01
1.250000e+01
1.250000e+01
1.250000e+01
1.250000e+01
1.250000e+01
1.250000e+01
1.250000e+01
1.250000e+01
1.250000e+01
1.250000e+01
1.250000e+01
1.250000e+01
1.250000e+01
1.250000e+01
1.250000e+01
1.250000e+01
1.250000e+01
1.250000e+01
1.250000e+01
1.250000e+01
1.250000e+01
1.250000e+01
1.250000e+01
1.250000e+01
1.250000e+01
1.250000e+01
1.250000e+01
1.250000e+01
1.875000e+01
1.875000e+01
1.875000e+01
1.875000e+01
1.875000e+01
1.875000e+01
1.875000e+01
1.875000e+01
1.875000e+01
1.875000e+01
1.875000e+01
1.875000e+01
1.875000e+01
1.875000e+01
1.875000e+01
1.875000e+01
1.875000e+01
1.875000e+01
1.875000e+01
1.875000e+01
1.875000e+01
1.875000e+01
1.875000e+01
1.875000e+01
1.875000e+01
1.875000e+01
1.875000e+01
1.875000e+01
1.875000e+01
1.875000e+01
1.875000e+01
1.875000e+01
1.875000e+01
2.500000e+01
2.500000e+01
2.500000e+01
2.500000e+01
2.500000e+01
2.500000e+01
2.500000e+01
2.500000e+01
2.500000e+01
2.500000e+01
2.500000e+01
2.500000e+01
2.500000e+01
2.500000e+01
2.500000e+01
2.500000e+01
2.500000e+01
2.500000e+01
2.500000e+01
2.500000e+01
2.500000e+01
2.500000e+01
2.500000e+01
2.500000e+01
2.500000e+01
2.500000e+01
2.500000e+01
2.500000e+01
2.500000e+01
2.500000e+01
2.500000e+01
2.500000e+01
2.500000e+01
3.125000e+01
3.125000e+01
3.125000e+01
3.125000e+01
3.125000e+01
3.125000e+01
3.125000e+01
3.125000e+01
3.125000e+01
3.125000e+01
3.125000e+01
3.125000e+01
3.125000e+01
3.125000e+01
3.125000e+01
3.125000e+01
3.125000e+01
3.125000e+01
3.125000e+01
3.125000e+01
3.125000e+01
3.125000e+01
3.125000e+01
3.125000e+01
3.125000e+01
3.125000e+01
3.125000e+01
3.125000e+01
3.125000e+01
3.125000e+01
3.125000e+01
3.125000e+01
3.125000e+01
3.750000e+01
3.750000e+01
3.750000e+01
3.750000e+01
3.750000e+01
3.750000e+01
3.750000e+01
3.750000e+01
3.750000e+01
3.750000e+01
3.750000e+01
3.750000e+01
3.750000e+01
3.750000e+01
3.750000e+01
3.750000e+01
3.750000e+01
3.750000e+01
3.750000e+01
3.750000e+01
3.750000e+01
3.750000e+01
3.750000e+01
3.750000e+01
3.750000e+01
3.750000e+01
3.750000e+01
3.750000e+01
3.750000e+01
3.750000e+01
3.750000e+01
3.750000e+01
3.750000e+01
4.375000e+01
4.375000e+01
4.375000e+01
4.375000e+01
4.375000e+01
4.375000e+01
4.375000e+01
4.375000e+01
4.375000e+01
4.375000e+01
4.375000e+01
4.375000e+01
4.375000e+01
4.375000e+01
4.375000e+01
4.375000e+01
4.375000e+01
4.375000e+01
4.375000e+01
4.375000e+01
4.375000e+01
4.375000e+01
4.375000e+01
4.375000e+01
4.375000e+01
4.375000e+01
4.375000e+01
4.375000e+01
4.375000e+01
4.375000e+01
4.375000e+01
4.375000e+01
4.375000e+01
5.000000e+01
5.000000e+01
5.000000e+01
5.000000e+01
5.000000e+01
5.000000e+01
5.000000e+01
5.000000e+01
5.000000e+01
5.000000e+01
5.000000e+01
5.000000e+01
5.000000e+01
5.000000e+01
5.000000e+01
5.000000e+01
5.000000e+01
5.000000e+01
5.000000e+01
5.000000e+01
5.000000e+01
5.000000e+01
5.000000e+01
5.000000e+01
5.000000e+01
5.000000e+01
5.000000e+01
5.000000e+01
5.000000e+01
5.000000e+01
5.000000e+01
5.000000e+01
5.000000e+01
5.625000e+01
5.625000e+01
5.625000e+01
5.625000e+01
5.625000e+01
5.625000e+01
5.625000e+01
5.625000e+01
5.625000e+01
5.625000e+01
5.625000e+01
5.625000e+01
5.625000e+01
5.625000e+01
5.625000e+01
5.625000e+01
5.625000e+01
5.625000e+01
5.625000e+01
5.625000e+01
5.625000e+01
5.625000e+01
5.625000e+01
5.625000e+01
5.625000e+01
5.625000e+01
5.625000e+01
5.625000e+01
5.625000e+01
5.625000e+01
5.625000e+01
5.625000e+01
5.625000e+01
6.250000e+01
6.250000e+01
6.250000e+01
6.250000e+01
6.250000e+01
6.250000e+01
6.250000e+01
6.250000e+01
6.250000e+01
6.250000e+01
6.250000e+01
6.250000e+01
6.250000e+01
6.250000e+01
6.250000e+01
6.250000e+01
6.250000e+01
6.250000e+01
6.250000e+01
6.250000e+01
6.250000e+01
6.250000e+01
6.250000e+01
6.250000e+01
6.250000e+01
6.250000e+01
6.250000e+01
6.250000e+01
6.250000e+01
6.250000e+01
6.250000e+01
6.250000e+01
6.250000e+01
6.875000e+01
6.875000e+01
6.875000e+01
6.875000e+01
6.875000e+01
6.875000e+01
6.875000e+01
6.875000e+01
6.875000e+01
6.875000e+01
6.875000e+01
6.875000e+01
6.875000e+01
6.875000e+01
6.875000e+01
6.875000e+01
6.875000e+01
6.875000e+01
6.875000e+01
6.875000e+01
6.875000e+01
6.875000e+01
6.875000e+01
6.875000e+01
6.875000e+01
6.875000e+01
6.875000e+01
6.875000e+01
6.875000e+01
6.875000e+01
6.875000e+01
6.875000e+01
6.875000e+01
7.500000e+01
7.500000e+01
7.500000e+01
7.500000e+01
7.500000e+01
7.500000e+01
7.500000e+01
7.500000e+01
7.500000e+01
7.500000e+01
7.500000e+01
7.500000e+01
7.500000e+01
7.500000e+01
7.500000e+01
7.500000e+01
7.500000e+01
7.500000e+01
7.500000e+01
7.500000e+01
7.500000e+01
7.500000e+01
7.500000e+01
7.500000e+01
7.500000e+01
7.500000e+01
7.500000e+01
7.500000e+01
7.500000e+01
7.500000e+01
7.500000e+01
7.500000e+01
7.500000e+01
8.125000e+01
8.125000e+01
8.125000e+01
8.125000e+01
8.125000e+01
8.125000e+01
8.125000e+01
8.125000e+01
8.125000e+01
8.125000e+01
8.125000e+01
8.125000e+01
8.125000e+01
8.125000e+01
8.125000e+01
8.125000e+01
8.125000e+01
8.125000e+01
8.125000e+01
8.125000e+01
8.125000e+01
8.125000e+01
8.125000e+01
8.125000e+01
8.125000e+01
8.125000e+01
8.125000e+01
8.125000e+01
8.125000e+01
8.125000e+01
8.125000e+01
8.125000e+01
8.125000e+01
8.750000e+01
8.750000e+01
8.750000e+01
8.750000e+01
8.750000e+01
8.750000e+01
8.750000e+01
8.750000e+01
8.750000e+01
8.750000e+01
8.750000e+01
8.750000e+01
8.750000e+01
8.750000e+01
8.750000e+01
8.750000e+01
8.750000e+01
8.750000e+01
8.750000e+01
8.750000e+01
8.750000e+01
8.750000e+01
8.750000e+01
8.750000e+01
8.750000e+01
8.750000e+01
8.750000e+01
8.750000e+01
8.750000e+01
8.750000e+01
8.750000e+01
8.750000e+01
8.750000e+01
9.375000e+01
9.375000e+01
9.375000e+01
9.375000e+01
9.375000e+01
9.375000e+01
9.375000e+01
9.375000e+01
9.375000e+01
9.375000e+01
9.375000e+01
9.375000e+01
9.375000e+01
9.375000e+01
9.375000e+01
9.375000e+01
9.375000e+01
9.375000e+01
9.375000e+01
9.375000e+01
9.375000e+01
9.375000e+01
9.375000e+01
9.375000e+01
9.375000e+01
9.375000e+01
9.375000e+01
9.375000e+01
9.375000e+01
9.375000e+01
9.375000e+01
9.375000e+01
9.375000e+01
1.000000e+02
1.000000e+02
1.000000e+02
1.000000e+02
1.000000e+02
1.000000e+02
1.000000e+02
1.000000e+02
1.000000e+02
1.000000e+02
1.000000e+02
1.000000e+02
1.000000e+02
1.000000e+02
1.000000e+02
1.000000e+02
1.000000e+02
1.000000e+02
1.000000e+02
1.000000e+02
1.000000e+02
1.000000e+02
1.000000e+02
1.000000e+02
1.000000e+02
1.000000e+02
1.000000e+02
1.000000e+02
1.000000e+02
1.000000e+02
1.000000e+02
1.000000e+02
1.000000e+02
0.000000e+00
-4.689360e-01
-7.797592e-01
-1.118644e+00
-1.421141e+00
-1.714379e+00
-2.024582e+00
-2.313636e+00
-2.614440e+00
-2.908338e+00
-3.206550e+00
-3.504912e+00
-3.803502e+00
-4.104647e+00
-4.403983e+00
-4.706268e+00
-5.007405e+00
-5.309474e+00
-5.611825e+00
-5.913199e+00
-6.215833e+00
-6.517413e+00
-6.819316e+00
-7.117916e+00
-7.413784e+00
-7.717683e+00
-8.019574e+00
-8.347515e+00
-8.669537e+00
-9.025978e+00
-9.509668e+00
-9.926180e+00
-1.013102e+01
0.000000e+00
-2.331131e-01
-4.711149e-01
-7.361927e-01
-1.002408e+00
-1.255466e+00
-1.525039e+00
-1.785441e+00
-2.047877e+00
-2.312964e+00
-2.573108e+00
-2.838307e+00
-3.098849e+00
-3.362318e+00
-3.624176e+00
-3.885944e+00
-4.148450e+00
-4.409526e+00
-4.671696e+00
-4.932728e+00
-5.194263e+00
-5.455004e+00
-5.716429e+00
-5.976534e+00
-6.238169e+00
-6.498706e+00
-6.758768e+00
-7.022266e+00
-7.277551e+00
-7.536090e+00
-7.787101e+00
-7.887167e+00
-7.992941e+00
0.000000e+00
-1.049998e-01
-2.428021e-01
-4.388892e-01
-6.560999e-01
-8.633477e-01
-1.090307e+00
-1.316042e+00
-1.542080e+00
-1.773116e+00
-1.995986e+00
-2.224426e+00
-2.446930e+00
-2.671415e+00
-2.894973e+00
-3.117171e+00
-3.340673e+00
-3.562837e+00
-3.786283e+00
-4.009674e+00
-4.233529e+00
-4.457111e+00
-4.681762e+00
-4.908745e+00
-5.137098e+00
-5.358971e+00
-5.571364e+00
-5.769163e+00
-5.948506e+00
-6.097592e+00
-6.182930e+00
-6.187980e+00
-6.280844e+00
0.000000e+00
-1.024840e-01
-1.868186e-01
-3.389975e-01
-4.619628e-01
-6.183802e-01
-7.950664e-01
-9.646629e-01
-1.155139e+00
-1.333663e+00
-1.519019e+00
-1.702530e+00
-1.885825e+00
-2.070564e+00
-2.254882e+00
-2.440908e+00
-2.627165e+00
-2.815552e+00
-3.005309e+00
-3.196515e+00
-3.389463e+00
-3.581984e+00
-3.775406e+00
-3.967812e+00
-4.152440e+00
-4.325762e+00
-4.476577e+00
-4.608643e+00
-4.709699e+00
-4.772206e+00
-4.786796e+00
-4.803590e+00
-4.884288e+00
0.000000e+00
-9.246513e-02
-1.834399e-01
-2.743226e-01
-3.865339e-01
-5.025676e-01
-6.343930e-01
-7.685995e-01
-9.123699e-01
-1.054563e+00
-1.199745e+00
-1.346189e+00
-1.490553e+00
-1.638516e+00
-1.784254e+00
-1.932479e+00
-2.080585e+00
-2.229581e+00
-2.379345e+00
-2.528556e+00
-2.677628e+00
-2.824025e+00
-2.967299e+00
-3.103983e+00
-3.231533e+00
-3.345298e+00
-3.442116e+00
-3.516143e+00
-3.564419e+00
-3.587983e+00
-3.590293e+00
-3.620062e+00
-3.692085e+00
0.000000e+00
-7.394894e-02
-1.450735e-01
-2.197746e-01
-3.008419e-01
-3.897851e-01
-4.843232e-01
-5.854008e-01
-6.890376e-01
-7.964336e-01
-9.041321e-01
-1.012674e+00
-1.121690e+00
-1.230165e+00
-1.339362e+00
-1.448086e+00
-1.557080e+00
-1.665653e+00
-1.773532e+00
-1.880082e+00
-1.984153e+00
-2.084629e+00
-2.179364e+00
-2.266575e+00
-2.343716e+00
-2.408773e+00
-2.459665e+00
-2.494407e+00
-2.515290e+00
-2.514309e+00
-2.509745e+00
-2.536823e+00
-2.603236e+00
0.000000e+00
-5.096595e-02
-1.014189e-01
-1.530249e-01
-2.081528e-01
-2.671713e-01
-3.303120e-01
-3.965765e-01
-4.655790e-01
-5.360800e-01
-6.075326e-01
-6.792032e-01
-7.507699e-01
-8.221439e-01
-8.930783e-01
-9.636454e-01
-1.033514e+00
-1.102459e+00
-1.169969e+00
-1.235354e+00
-1.297668e+00
-1.355566e+00
-1.407615e+00
-1.452127e+00
-1.487617e+00
-1.511955e+00
-1.525026e+00
-1.528437e+00
-1.511664e+00
-1.482666e+00
-1.471965e+00
-1.496648e+00
-1.561851e+00
0.000000e+00
-2.684367e-02
-5.354926e-02
-8.082896e-02
-1.093888e-01
-1.396906e-01
-1.716493e-01
-2.050834e-01
-2.395354e-01
-2.746374e-01
-3.099029e-01
-3.450108e-01
-3.796993e-01
-4.137871e-01
-4.471875e-01
-4.797375e-01
-5.112307e-01
-5.413263e-01
-5.696592e-01
-5.957389e-01
-6.188030e-01
-6.378379e-01
-6.516093e-01
-6.592332e-01
-6.592272e-01
-6.516409e-01
-6.341933e-01
-5.959369e-01
-5.469566e-01
-4.972624e-01
-4.730190e-01
-4.974424e-01
-5.651128e-01
0.000000e+00
-1.928142e-03
-3.904353e-03
-5.845804e-03
-7.652615e-03
-9.213600e-03
-1.044887e-02
-1.130993e-02
-1.178171e-02
-1.182309e-02
-1.137518e-02
-1.033967e-02
-8.586488e-03
-5.950127e-03
-2.274793e-03
2.577815e-03
8.872487e-03
1.694061e-02
2.693076e-02
3.888838e-02
5.311127e-02
7.031992e-02
9.123616e-02
1.175882e-01
1.490879e-01
1.894818e-01
2.472919e-01
3.179889e-01
3.899144e-01
4.399530e-01
4.549012e-01
4.227621e-01
3.452682e-01
0.000000e+00
2.312132e-02
4.602491e-02
6.957935e-02
9.470735e-02
1.220909e-01
1.518236e-01
1.837389e-01
2.173927e-01
2.523771e-01
2.883151e-01
3.250050e-01
3.624613e-01
4.009406e-01
4.407921e-01
4.823416e-01
5.259750e-01
5.718237e-01
6.197743e-01
6.694082e-01
7.203410e-01
7.728255e-01
8.279040e-01
8.864957e-01
9.546691e-01
1.037506e+00
1.126108e+00
1.215563e+00
1.288896e+00
1.332296e+00
1.330874e+00
1.287395e+00
1.225023e+00
0.000000e+00
4.760663e-02
9.468624e-02
1.430421e-01
1.952799e-01
2.520883e-01
3.137206e-01
3.792729e-01
4.479703e-01
5.186080e-01
5.903468e-01
6.625208e-01
7.349604e-01
8.080876e-01
8.826651e-01
9.599486e-01
1.040455e+00
1.123721e+00
1.208875e+00
1.295931e+00
1.384880e+00
1.475272e+00
1.568010e+00
1.669233e+00
1.776939e+00
1.887855e+00
1.996777e+00
2.086447e+00
2.150729e+00
2.178387e+00
2.171687e+00
2.141624e+00
2.097519e+00
0.000000e+00
7.102283e-02
1.393623e-01
2.116380e-01
2.908174e-01
3.787981e-01
4.735044e-01
5.748481e-01
6.798440e-01
7.879773e-01
8.970636e-01
1.006739e+00
1.116772e+00
1.226843e+00
1.337795e+00
1.449887e+00
1.564901e+00
1.682026e+00
1.801116e+00
1.923256e+00
2.050873e+00
2.186909e+00
2.328592e+00
2.469887e+00
2.606725e+00
2.734582e+00
2.846722e+00
2.936542e+00
2.993315e+00
3.022107e+00
3.025714e+00
3.007770e+00
2.980078e+00
0.000000e+00
8.981576e-02
1.782032e-01
2.676310e-01
3.800169e-01
4.981991e-01
6.308027e-01
7.692162e-01
9.132755e-01
1.058841e+00
1.205678e+00
1.353826e+00
1.502115e+00
1.653949e+00
1.805807e+00
1.961323e+00
2.118729e+00
2.279477e+00
2.443610e+00
2.609497e+00
2.778060e+00
2.948575e+00
3.117803e+00
3.281816e+00
3.435436e+00
3.575468e+00
3.694764e+00
3.786986e+00
3.854268e+00
3.893832e+00
3.907019e+00
3.900547e+00
3.885989e+00
0.000000e+00
9.927651e-02
1.810437e-01
3.308446e-01
4.558124e-01
6.169687e-01
7.988212e-01
9.709535e-01
1.164559e+00
1.344325e+00
1.530269e+00
1.712553e+00
1.896655e+00
2.086495e+00
2.280806e+00
2.480845e+00
2.683294e+00
2.888943e+00
3.098746e+00
3.311195e+00
3.521271e+00
3.725164e+00
3.920117e+00
4.104246e+00
4.279058e+00
4.436964e+00
4.572262e+00
4.679144e+00
4.755913e+00
4.804002e+00
4.826387e+00
4.829272e+00
4.824521e+00
0.000000e+00
1.031937e-01
2.372418e-01
4.269041e-01
6.421272e-01
8.493437e-01
1.079323e+00
1.308849e+00
1.537952e+00
1.772644e+00
1.997876e+00
2.225511e+00
2.448360e+00
2.674598e+00
2.903767e+00
3.135043e+00
3.367207e+00
3.597923e+00
3.829896e+00
4.062568e+00
4.296303e+00
4.524693e+00
4.746128e+00
4.966419e+00
5.175730e+00
5.360733e+00
5.510558e+00
5.625739e+00
5.708478e+00
5.761562e+00
5.789409e+00
5.798526e+00
5.799651e+00
0.000000e+00
2.336581e-01
4.723767e-01
7.369192e-01
1.002612e+00
1.255229e+00
1.524065e+00
1.784426e+00
2.046421e+00
2.310896e+00
2.570806e+00
2.834767e+00
3.094569e+00
3.356251e+00
3.616330e+00
3.876125e+00
4.135880e+00
4.393449e+00
4.651013e+00
4.905493e+00
5.160585e+00
5.414056e+00
5.667699e+00
5.925050e+00
6.165582e+00
6.365859e+00
6.523634e+00
6.640869e+00
6.721414e+00
6.770823e+00
6.796076e+00
6.805227e+00
6.807477e+00
0.000000e+00
4.701090e-01
7.856984e-01
1.129403e+00
1.435216e+00
1.728459e+00
2.037335e+00
2.323457e+00
2.621723e+00
2.912296e+00
3.207623e+00
3.505550e+00
3.802457e+00
4.100135e+00
4.392527e+00
4.683255e+00
4.972746e+00
5.262333e+00
5.551936e+00
5.840302e+00
6.126632e+00
6.416046e+00
6.706728e+00
6.998536e+00
7.260851e+00
7.471496e+00
7.630102e+00
7.739439e+00
7.804613e+00
7.833860e+00
7.838954e+00
7.834298e+00
7.831729e+00
0.000000e+00
-2.781047e-01
-5.857652e-01
-9.783742e-01
-1.406988e+00
-1.873676e+00
-2.380765e+00
-2.918692e+00
-3.493097e+00
-4.099763e+00
-4.741130e+00
-5.418725e+00
-6.132005e+00
-6.883774e+00
-7.672565e+00
-8.500323e+00
-9.366666e+00
-1.027204e+01
-1.121691e+01
-1.220086e+01
-1.322453e+01
-1.428824e+01
-1.539258e+01
-1.653702e+01
-1.772002e+01
-1.894273e+01
-2.020958e+01
-2.152954e+01
-2.291065e+01
-2.437255e+01
-2.593220e+01
-2.774091e+01
-3.028147e+01
0.000000e+00
-1.791592e-01
-5.053842e-01
-8.906502e-01
-1.325716e+00
-1.789292e+00
-2.296370e+00
-2.835976e+00
-3.408778e+00
-4.016596e+00
-4.656897e+00
-5.335036e+00
-6.047962e+00
-6.799710e+00
-7.588704e+00
-8.416102e+00
-9.282731e+00
-1.018789e+01
-1.113287e+01
-1.211682e+01
-1.314043e+01
-1.420398e+01
-1.530845e+01
-1.645325e+01
-1.763619e+01
-1.885849e+01
-2.012380e+01
-2.144235e+01
-2.282404e+01
-2.427781e+01
-2.585700e+01
-2.765233e+01
-2.990558e+01
0.000000e+00
-1.574803e-01
-4.468066e-01
-8.339177e-01
-1.258952e+00
-1.720348e+00
-2.225734e+00
-2.763375e+00
-3.337021e+00
-3.943972e+00
-4.584979e+00
-5.263135e+00
-5.976655e+00
-6.728301e+00
-7.517807e+00
-8.345264e+00
-9.211922e+00
-1.011726e+01
-1.106202e+01
-1.204603e+01
-1.306965e+01
-1.413265e+01
-1.523634e+01
-1.638040e+01
-1.756418e+01
-1.878893e+01
-2.005630e+01
-2.137957e+01
-2.276545e+01
-2.423966e+01
-2.586102e+01
-2.754668e+01
-2.929666e+01
0.000000e+00
-2.010686e-01
-4.465224e-01
-8.289250e-01
-1.223167e+00
-1.674610e+00
-2.178187e+00
-2.704608e+00
-3.282776e+00
-3.885104e+00
-4.527904e+00
-5.206249e+00
-5.919361e+00
-6.672288e+00
-7.461020e+00
-8.289389e+00
-9.155489e+00
-1.006091e+01
-1.100552e+01
-1.198910e+01
-1.301314e+01
-1.407552e+01
-1.517864e+01
-1.632295e+01
-1.750876e+01
-1.873909e+01
-2.001256e+01
-2.134292e+01
-2.273796e+01
-2.423066e+01
-2.584532e+01
-2.739552e+01
-2.879596e+01
0.000000e+00
-2.177945e-01
-4.837028e-01
-8.254835e-01
-1.220952e+00
-1.654988e+00
-2.149160e+00
-2.670235e+00
-3.243302e+00
-3.845486e+00
-4.486721e+00
-5.166504e+00
-5.878847e+00
-6.633204e+00
-7.421494e+00
-8.250289e+00
-9.116364e+00
-1.002146e+01
-1.096624e+01
-1.194962e+01
-1.297396e+01
-1.403693e+01
-1.514112e+01
-1.628694e+01
-1.747610e+01
-1.870994e+01
-1.999084e+01
-2.132536e+01
-2.272265e+01
-2.420961e+01
-2.574669e+01
-2.719397e+01
-2.845871e+01
0.000000e+00
-2.249437e-01
-4.998068e-01
-8.312800e-01
-1.215600e+00
-1.648059e+00
-2.128067e+00
-2.650456e+00
-3.214916e+00
-3.818057e+00
-4.458537e+00
-5.137106e+00
-5.852090e+00
-6.604921e+00
-7.395222e+00
-8.223485e+00
-9.090309e+00
-9.995909e+00
-1.094103e+01
-1.192585e+01
-1.295094e+01
-1.401636e+01
-1.512288e+01
-1.627152e+01
-1.746324e+01
-1.869908e+01
-1.998217e+01
-2.131659e+01
-2.270213e+01
-2.414958e+01
-2.559206e+01
-2.695944e+01
-2.816059e+01
0.000000e+00
-2.286616e-01
-5.059397e-01
-8.345045e-01
-1.213933e+00
-1.642254e+00
-2.117376e+00
-2.636851e+00
-3.198594e+00
-3.800455e+00
-4.441077e+00
-5.119559e+00
-5.835521e+00
-6.588897e+00
-7.379870e+00
-8.208846e+00
-9.076309e+00
-9.982871e+00
-1.092908e+01
-1.191550e+01
-1.294254e+01
-1.401053e+01
-1.511988e+01
-1.627104e+01
-1.746466e+01
-1.870078e+01
-1.997985e+01
-2.131014e+01
-2.266478e+01
-2.406078e+01
-2.543625e+01
-2.673509e+01
-2.787447e+01
0.000000e+00
-2.300551e-01
-5.082393e-01
-8.359759e-01
-1.213435e+00
-1.639566e+00
-2.112642e+00
-2.630601e+00
-3.191354e+00
-3.792978e+00
-4.433908e+00
-5.113101e+00
-5.829923e+00
-6.584164e+00
-7.375934e+00
-8.205673e+00
-9.074021e+00
-9.981621e+00
-1.092911e+01
-1.191713e+01
-1.294622e+01
-1.401665e+01
-1.512827e+01
-1.628119e+01
-1.747517e+01
-1.871076e+01
-1.998151e+01
-2.129266e+01
-2.261360e+01
-2.395648e+01
-2.528290e+01
-2.652315e+01
-2.760614e+01
0.000000e+00
-2.303348e-01
-5.088119e-01
-8.365623e-01
-1.213840e+00
-1.639834e+00
-2.112947e+00
-2.631187e+00
-3.192491e+00
-3.794931e+00
-4.436902e+00
-5.117225e+00
-5.835191e+00
-6.590467e+00
-7.383093e+00
-8.213606e+00
-9.082874e+00
-9.991556e+00
-1.094013e+01
-1.192932e+01
-1.295997e+01
-1.403214e+01
-1.514531e+01
-1.629831e+01
-1.749224e+01
-1.872230e+01
-1.997827e+01
-2.126082e+01
-2.255720e+01
-2.384967e+01
-2.511695e+01
-2.628324e+01
-2.727895e+01
0.000000e+00
-2.298638e-01
-5.082304e-01
-8.365864e-01
-1.215190e+00
-1.642992e+00
-2.118143e+00
-2.638454e+00
-3.201751e+00
-3.806071e+00
-4.449752e+00
-5.131593e+00
-5.850916e+00
-6.607411e+00
-7.400947e+00
-8.232158e+00
-9.102458e+00
-1.001230e+01
-1.096168e+01
-1.195118e+01
-1.298228e+01
-1.405528e+01
-1.516778e+01
-1.632175e+01
-1.750830e+01
-1.872677e+01
-1.996608e+01
-2.122566e+01
-2.249306e+01
-2.374809e+01
-2.495235e+01
-2.605378e+01
-2.701331e+01
0.000000e+00
-2.283388e-01
-5.059676e-01
-8.357392e-01
-1.217510e+00
-1.649266e+00
-2.128611e+00
-2.652766e+00
-3.219436e+00
-3.826505e+00
-4.472370e+00
-5.155816e+00
-5.876457e+00
-6.634239e+00
-7.428730e+00
-8.260905e+00
-9.132549e+00
-1.004371e+01
-1.099354e+01
-1.198252e+01
-1.301230e+01
-1.408414e+01
-1.519462e+01
-1.634245e+01
-1.751922e+01
-1.872340e+01
-1.995143e+01
-2.118983e+01
-2.243075e+01
-2.364597e+01
-2.480460e+01
-2.587331e+01
-2.682118e+01
0.000000e+00
-2.245560e-01
-4.999607e-01
-8.331736e-01
-1.221075e+00
-1.659207e+00
-2.145434e+00
-2.675047e+00
-3.246442e+00
-3.856911e+00
-4.504939e+00
-5.189958e+00
-5.911270e+00
-6.670037e+00
-7.465508e+00
-8.299274e+00
-9.172780e+00
-1.008464e+01
-1.103440e+01
-1.202211e+01
-1.304874e+01
-1.411626e+01
-1.522062e+01
-1.635897e+01
-1.752656e+01
-1.872113e+01
-1.993752e+01
-2.116273e+01
-2.237661e+01
-2.356213e+01
-2.469156e+01
-2.574392e+01
-2.669531e+01
0.000000e+00
-2.172003e-01
-4.839443e-01
-8.282344e-01
-1.228461e+00
-1.671751e+00
-2.172689e+00
-2.705287e+00
-3.284937e+00
-3.897447e+00
-4.547552e+00
-5.234432e+00
-5.955058e+00
-6.715987e+00
-7.511865e+00
-8.348609e+00
-9.222865e+00
-1.013393e+01
-1.108203e+01
-1.206646e+01
-1.308922e+01
-1.415008e+01
-1.524627e+01
-1.637575e+01
-1.753665e+01
-1.872707e+01
-1.993689e+01
-2.114748e+01
-2.234141e+01
-2.350192e+01
-2.461260e+01
-2.565789e+01
-2.662379e+01
0.000000e+00
-1.995902e-01
-4.462110e-01
-8.322701e-01
-1.234203e+00
-1.696162e+00
-2.210943e+00
-2.747696e+00
-3.335575e+00
-3.947653e+00
-4.599994e+00
-5.286275e+00
-6.008738e+00
-6.771063e+00
-7.569985e+00
-8.408321e+00
-9.282183e+00
-1.019158e+01
-1.113671e+01
-1.211746e+01
-1.313486e+01
-1.418809e+01
-1.527561e+01
-1.639876e+01
-1.756032e+01
-1.875008e+01
-1.995296e+01
-2.114807e+01
-2.232360e+01
-2.346571e+01
-2.456286e+01
-2.560667e+01
-2.659285e+01
0.000000e+00
-1.546381e-01
-4.446258e-01
-8.359996e-01
-1.270998e+00
-1.744383e+00
-2.262670e+00
-2.811249e+00
-3.395336e+00
-4.011349e+00
-4.660809e+00
-5.347277e+00
-6.071020e+00
-6.834467e+00
-7.636022e+00
-8.473961e+00
-9.347329e+00
-1.025517e+01
-1.119873e+01
-1.217668e+01
-1.318942e+01
-1.423616e+01
-1.531715e+01
-1.644112e+01
-1.760435e+01
-1.879072e+01
-1.998066e+01
-2.116187e+01
-2.232206e+01
-2.345000e+01
-2.453717e+01
-2.558100e+01
-2.658761e+01
0.000000e+00
-1.759189e-01
-5.024714e-01
-8.926176e-01
-1.337951e+00
-1.814329e+00
-2.334283e+00
-2.885621e+00
-3.468554e+00
-4.085523e+00
-4.733521e+00
-5.420026e+00
-6.143659e+00
-6.907809e+00
-7.709655e+00
-8.547204e+00
-9.419584e+00
-1.032627e+01
-1.126871e+01
-1.224529e+01
-1.325605e+01
-1.429994e+01
-1.538124e+01
-1.650586e+01
-1.766506e+01
-1.883989e+01
-2.001689e+01
-2.118499e+01
-2.233263e+01
-2.344946e+01
-2.452884e+01
-2.557176e+01
-2.659231e+01
0.000000e+00
-2.755451e-01
-5.837779e-01
-9.810641e-01
-1.419536e+00
-1.898611e+00
-2.418420e+00
-2.968041e+00
-3.552600e+00
-4.168283e+00
-4.817526e+00
-5.503714e+00
-6.227430e+00
-6.991226e+00
-7.792200e+00
-8.629424e+00
-9.501128e+00
-1.040754e+01
-1.134912e+01
-1.232526e+01
-1.333542e+01
-1.437981e+01