TITLE = "Solution"
VARIABLES = x, y, u, v, psiu, psiv, t, stress
ZONE T="structure" N=561 E=512 F=FEBLOCK ET=QUADRILATERAL VARLOCATION=([7,8]=cellcentered)
0.000000e+00
6.250000e+00
1.250000e+01
1.875000e+01
2.500000e+01
3.125000e+01
3.750000e+01
4.375000e+01
5.000000e+01
5.625000e+01
6.250000e+01
6.875000e+01
7.500000e+01
8.125000e+01
8.750000e+01
9.375000e+01
1.000000e+02
1.062500e+02
1.125000e+02
1.187500e+02
1.250000e+02
1.312500e+02
1.375000e+02
1.437500e+02
1.500000e+02
1.562500e+02
1.625000e+02
1.687500e+02
1.750000e+02
1.812500e+02
1.875000e+02
1.937500e+02
2.000000e+02
0.000000e+00
6.250000e+00
1.250000e+01
1.875000e+01
2.500000e+01
3.125000e+01
3.750000e+01
4.375000e+01
5.000000e+01
5.625000e+01
6.250000e+01
6.875000e+01
7.500000e+01
8.125000e+01
8.750000e+01
9.375000e+01
1.000000e+02
1.062500e+02
1.125000e+02
1.187500e+02
1.250000e+02
1.312500e+02
1.375000e+02
1.437500e+02
1.500000e+02
1.562500e+02
1.625000e+02
1.687500e+02
1.750000e+02
1.812500e+02
1.875000e+02
1.937500e+02
2.000000e+02
0.000000e+00
6.250000e+00
1.250000e+01
1.875000e+01
2.500000e+01
3.125000e+01
3.750000e+01
4.375000e+01
5.000000e+01
5.625000e+01
6.250000e+01
6.875000e+01
7.500000e+01
8.125000e+01
8.750000e+01
9.375000e+01
1.000000e+02
1.062500e+02
1.125000e+02
1.187500e+02
1.250000e+02
1.312500e+02
1.375000e+02
1.437500e+02
1.500000e+02
1.562500e+02
1.625000e+02
1.687500e+02
1.750000e+02
1.812500e+02
1.875000e+02
1.937500e+02
2.000000e+02
0.000000e+00
6.250000e+00
1.250000e+01
1.875000e+01
2.500000e+01
3.125000e+01
3.750000e+01
4.375000e+01
5.000000e+01
5.625000e+01
6.250000e+01
6.875000e+01
7.500000e+01
8.125000e+01
8.750000e+01
9.375000e+01
1.000000e+02
1.062500e+02
1.125000e+02
1.187500e+02
1.250000e+02
1.312500e+02
1.375000e+02
1.437500e+02
1.500000e+02
1.562500e+02
1.625000e+02
1.687500e+02
1.750000e+02
1.812500e+02
1.875000e+02
1.937500e+02
2.000000e+02
0.000000e+00
6.250000e+00
1.250000e+01
1.875000e+01
2.500000e+01
3.125000e+01
3.750000e+01
4.375000e+01
5.000000e+01
5.625000e+01
6.250000e+01
6.875000e+01
7.500000e+01
8.125000e+01
8.750000e+01
9.375000e+01
1.000000e+02
1.062500e+02
1.125000e+02
1.187500e+02
1.250000e+02
1.312500e+02
1.375000e+02
1.437500e+02
1.500000e+02
1.562500e+02
1.625000e+02
1.687500e+02
1.750000e+02
1.812500e+02
1.875000e+02
1.937500e+02
2.000000e+02
0.000000e+00
6.250000e+00
1.250000e+01
1.875000e+01
2.500000e+01
3.125000e+01
3.750000e+01
4.375000e+01
5.000000e+01
5.625000e+01
6.250000e+01
6.875000e+01
7.500000e+01
8.125000e+01
8.750000e+01
9.375000e+01
1.000000e+02
1.062500e+02
1.125000e+02
1.187500e+02
1.250000e+02
1.312500e+02
1.375000e+02
1.437500e+02
1.500000e+02
1.562500e+02
1.625000e+02
1.687500e+02
1.750000e+02
1.812500e+02
1.875000e+02
1.937500e+02
2.000000e+02
0.000000e+00
6.250000e+00
1.250000e+01
1.875000e+01
2.500000e+01
3.125000e+01
3.750000e+01
4.375000e+01
5.000000e+01
5.625000e+01
6.250000e+01
6.875000e+01
7.500000e+01
8.125000e+01
8.750000e+01
9.375000e+01
1.000000e+02
1.062500e+02
1.125000e+02
1.187500e+02
1.250000e+02
1.312500e+02
1.375000e+02
1.437500e+02
1.500000e+02
1.562500e+02
1.625000e+02
1.687500e+02
1.750000e+02
1.812500e+02
1.875000e+02
1.937500e+02
2.000000e+02
0.000000e+00
6.250000e+00
1.250000e+01
1.875000e+01
2.500000e+01
3.125000e+01
3.750000e+01
4.375000e+01
5.000000e+01
5.625000e+01
6.250000e+01
6.875000e+01
7.500000e+01
8.125000e+01
8.750000e+01
9.375000e+01
1.000000e+02
1.062500e+02
1.125000e+02
1.187500e+02
1.250000e+02
1.312500e+02
1.375000e+02
1.437500e+02
1.500000e+02
1.562500e+02
1.625000e+02
1.687500e+02
1.750000e+02
1.812500e+02
1.875000e+02
1.937500e+02
2.000000e+02
0.000000e+00
6.250000e+00
1.250000e+01
1.875000e+01
2.500000e+01
3.125000e+01
3.750000e+01
4.375000e+01
5.000000e+01
5.625000e+01
6.250000e+01
6.875000e+01
7.500000e+01
8.125000e+01
8.750000e+01
9.375000e+01
1.000000e+02
1.062500e+02
1.125000e+02
1.187500e+02
1.250000e+02
1.312500e+02
1.375000e+02
1.437500e+02
1.500000e+02
1.562500e+02
1.625000e+02
1.687500e+02
1.750000e+02
1.812500e+02
1.875000e+02
1.937500e+02
2.000000e+02
0.000000e+00
6.250000e+00
1.250000e+01
1.875000e+01
2.500000e+01
3.125000e+01
3.750000e+01
4.375000e+01
5.000000e+01
5.625000e+01
6.250000e+01
6.875000e+01
7.500000e+01
8.125000e+01
8.750000e+01
9.375000e+01
1.000000e+02
1.062500e+02
1.125000e+02
1.187500e+02
1.250000e+02
1.312500e+02
1.375000e+02
1.437500e+02
1.500000e+02
1.562500e+02
1.625000e+02
1.687500e+02
1.750000e+02
1.812500e+02
1.875000e+02
1.937500e+02
2.000000e+02
0.000000e+00
6.250000e+00
1.250000e+01
1.875000e+01
2.500000e+01
3.125000e+01
3.750000e+01
4.375000e+01
5.000000e+01
5.625000e+01
6.250000e+01
6.875000e+01
7.500000e+01
8.125000e+01
8.750000e+01
9.375000e+01
1.000000e+02
1.062500e+02
1.125000e+02
1.187500e+02
1.250000e+02
1.312500e+02
1.375000e+02
1.437500e+02
1.500000e+02
1.562500e+02
1.625000e+02
1.687500e+02
1.750000e+02
1.812500e+02
1.875000e+02
1.937500e+02
2.000000e+02
0.000000e+00
6.250000e+00
1.250000e+01
1.875000e+01
2.500000e+01
3.125000e+01
3.750000e+01
4.375000e+01
5.000000e+01
5.625000e+01
6.250000e+01
6.875000e+01
7.500000e+01
8.125000e+01
8.750000e+01
9.375000e+01
1.000000e+02
1.062500e+02
1.125000e+02
1.187500e+02
1.250000e+02
1.312500e+02
1.375000e+02
1.437500e+02
1.500000e+02
1.562500e+02
1.625000e+02
1.687500e+02
1.750000e+02
1.812500e+02
1.875000e+02
1.937500e+02
2.000000e+02
0.000000e+00
6.250000e+00
1.250000e+01
1.875000e+01
2.500000e+01
3.125000e+01
3.750000e+01
4.375000e+01
5.000000e+01
5.625000e+01
6.250000e+01
6.875000e+01
7.500000e+01
8.125000e+01
8.750000e+01
9.375000e+01
1.000000e+02
1.062500e+02
1.125000e+02
1.187500e+02
1.250000e+02
1.312500e+02
1.375000e+02
1.437500e+02
1.500000e+02
1.562500e+02
1.625000e+02
1.687500e+02
1.750000e+02
1.812500e+02
1.875000e+02
1.937500e+02
2.000000e+02
0.000000e+00
6.250000e+00
1.250000e+01
1.875000e+01
2.500000e+01
3.125000e+01
3.750000e+01
4.375000e+01
5.000000e+01
5.625000e+01
6.250000e+01
6.875000e+01
7.500000e+01
8.125000e+01
8.750000e+01
9.375000e+01
1.000000e+02
1.062500e+02
1.125000e+02
1.187500e+02
1.250000e+02
1.312500e+02
1.375000e+02
1.437500e+02
1.500000e+02
1.562500e+02
1.625000e+02
1.687500e+02
1.750000e+02
1.812500e+02
1.875000e+02
1.937500e+02
2.000000e+02
0.000000e+00
6.250000e+00
1.250000e+01
1.875000e+01
2.500000e+01
3.125000e+01
3.750000e+01
4.375000e+01
5.000000e+01
5.625000e+01
6.250000e+01
6.875000e+01
7.500000e+01
8.125000e+01
8.750000e+01
9.375000e+01
1.000000e+02
1.062500e+02
1.125000e+02
1.187500e+02
1.250000e+02
1.312500e+02
1.375000e+02
1.437500e+02
1.500000e+02
1.562500e+02
1.625000e+02
1.687500e+02
1.750000e+02
1.812500e+02
1.875000e+02
1.937500e+02
2.000000e+02
0.000000e+00
6.250000e+00
1.250000e+01
1.875000e+01
2.500000e+01
3.125000e+01
3.750000e+01
4.375000e+01
5.000000e+01
5.625000e+01
6.250000e+01
6.875000e+01
7.500000e+01
8.125000e+01
8.750000e+01
9.375000e+01
1.000000e+02
1.062500e+02
1.125000e+02
1.187500e+02
1.250000e+02
1.312500e+02
1.375000e+02
1.437500e+02
1.500000e+02
1.562500e+02
1.625000e+02
1.687500e+02
1.750000e+02
1.812500e+02
1.875000e+02
1.937500e+02
2.000000e+02
0.000000e+00
6.250000e+00
1.250000e+01
1.875000e+01
2.500000e+01
3.125000e+01
3.750000e+01
4.375000e+01
5.000000e+01
5.625000e+01
6.250000e+01
6.875000e+01
7.500000e+01
8.125000e+01
8.750000e+01
9.375000e+01
1.000000e+02
1.062500e+02
1.125000e+02
1.187500e+02
1.250000e+02
1.312500e+02
1.375000e+02
1.437500e+02
1.500000e+02
1.562500e+02
1.625000e+02
1.687500e+02
1.750000e+02
1.812500e+02
1.875000e+02
1.937500e+02
2.000000e+02
0.000000e+00
0.000000e+00
0.000000e+00
0.000000e+00
0.000000e+00
0.000000e+00
0.000000e+00
0.000000e+00
0.000000e+00
0.000000e+00
0.000000e+00
0.000000e+00
0.000000e+00
0.000000e+00
0.000000e+00
0.000000e+00
0.000000e+00
0.000000e+00
0.000000e+00
0.000000e+00
0.000000e+00
0.000000e+00
0.000000e+00
0.000000e+00
0.000000e+00
0.000000e+00
0.000000e+00
0.000000e+00
0.000000e+00
0.000000e+00
0.000000e+00
0.000000e+00
0.000000e+00
6.250000e+00
6.250000e+00
6.250000e+00
6.250000e+00
6.250000e+00
6.250000e+00
6.250000e+00
6.250000e+00
6.250000e+00
6.250000e+00
6.250000e+00
6.250000e+00
6.250000e+00
6.250000e+00
6.250000e+00
6.250000e+00
6.250000e+00
6.250000e+00
6.250000e+00
6.250000e+00
6.250000e+00
6.250000e+00
6.250000e+00
6.250000e+00
6.250000e+00
6.250000e+00
6.250000e+00
6.250000e+00
6.250000e+00
6.250000e+00
6.250000e+00
6.250000e+00
6.250000e+00
1.250000e+01
1.250000e+01
1.250000e+01
1.250000e+01
1.250000e+01
1.250000e+01
1.250000e+01
1.250000e+01
1.250000e+01
1.250000e+01
1.250000e+01
1.250000e+01
1.250000e+01
1.250000e+01
1.250000e+01
1.250000e+01
1.250000e+01
1.250000e+01
1.250000e+01
1.250000e+01
1.250000e+01
1.250000e+01
1.250000e+01
1.250000e+01
1.250000e+01
1.250000e+01
1.250000e+01
1.250000e+01
1.250000e+01
1.250000e+01
1.250000e+01
1.250000e+01
1.250000e+01
1.875000e+01
1.875000e+01
1.875000e+01
1.875000e+01
1.875000e+01
1.875000e+01
1.875000e+01
1.875000e+01
1.875000e+01
1.875000e+01
1.875000e+01
1.875000e+01
1.875000e+01
1.875000e+01
1.875000e+01
1.875000e+01
1.875000e+01
1.875000e+01
1.875000e+01
1.875000e+01
1.875000e+01
1.875000e+01
1.875000e+01
1.875000e+01
1.875000e+01
1.875000e+01
1.875000e+01
1.875000e+01
1.875000e+01
1.875000e+01
1.875000e+01
1.875000e+01
1.875000e+01
2.500000e+01
2.500000e+01
2.500000e+01
2.500000e+01
2.500000e+01
2.500000e+01
2.500000e+01
2.500000e+01
2.500000e+01
2.500000e+01
2.500000e+01
2.500000e+01
2.500000e+01
2.500000e+01
2.500000e+01
2.500000e+01
2.500000e+01
2.500000e+01
2.500000e+01
2.500000e+01
2.500000e+01
2.500000e+01
2.500000e+01
2.500000e+01
2.500000e+01
2.500000e+01
2.500000e+01
2.500000e+01
2.500000e+01
2.500000e+01
2.500000e+01
2.500000e+01
2.500000e+01
3.125000e+01
3.125000e+01
3.125000e+01
3.125000e+01
3.125000e+01
3.125000e+01
3.125000e+01
3.125000e+01
3.125000e+01
3.125000e+01
3.125000e+01
3.125000e+01
3.125000e+01
3.125000e+01
3.125000e+01
3.125000e+01
3.125000e+01
3.125000e+01
3.125000e+01
3.125000e+01
3.125000e+01
3.125000e+01
3.125000e+01
3.125000e+01
3.125000e+01
3.125000e+01
3.125000e+01
3.125000e+01
3.125000e+01
3.125000e+01
3.125000e+01
3.125000e+01
3.125000e+01
3.750000e+01
3.750000e+01
3.750000e+01
3.750000e+01
3.750000e+01
3.750000e+01
3.750000e+01
3.750000e+01
3.750000e+01
3.750000e+01
3.750000e+01
3.750000e+01
3.750000e+01
3.750000e+01
3.750000e+01
3.750000e+01
3.750000e+01
3.750000e+01
3.750000e+01
3.750000e+01
3.750000e+01
3.750000e+01
3.750000e+01
3.750000e+01
3.750000e+01
3.750000e+01
3.750000e+01
3.750000e+01
3.750000e+01
3.750000e+01
3.750000e+01
3.750000e+01
3.750000e+01
4.375000e+01
4.375000e+01
4.375000e+01
4.375000e+01
4.375000e+01
4.375000e+01
4.375000e+01
4.375000e+01
4.375000e+01
4.375000e+01
4.375000e+01
4.375000e+01
4.375000e+01
4.375000e+01
4.375000e+01
4.375000e+01
4.375000e+01
4.375000e+01
4.375000e+01
4.375000e+01
4.375000e+01
4.375000e+01
4.375000e+01
4.375000e+01
4.375000e+01
4.375000e+01
4.375000e+01
4.375000e+01
4.375000e+01
4.375000e+01
4.375000e+01
4.375000e+01
4.375000e+01
5.000000e+01
5.000000e+01
5.000000e+01
5.000000e+01
5.000000e+01
5.000000e+01
5.000000e+01
5.000000e+01
5.000000e+01
5.000000e+01
5.000000e+01
5.000000e+01
5.000000e+01
5.000000e+01
5.000000e+01
5.000000e+01
5.000000e+01
5.000000e+01
5.000000e+01
5.000000e+01
5.000000e+01
5.000000e+01
5.000000e+01
5.000000e+01
5.000000e+01
5.000000e+01
5.000000e+01
5.000000e+01
5.000000e+01
5.000000e+01
5.000000e+01
5.000000e+01
5.000000e+01
5.625000e+01
5.625000e+01
5.625000e+01
5.625000e+01
5.625000e+01
5.625000e+01
5.625000e+01
5.625000e+01
5.625000e+01
5.625000e+01
5.625000e+01
5.625000e+01
5.625000e+01
5.625000e+01
5.625000e+01
5.625000e+01
5.625000e+01
5.625000e+01
5.625000e+01
5.625000e+01
5.625000e+01
5.625000e+01
5.625000e+01
5.625000e+01
5.625000e+01
5.625000e+01
5.625000e+01
5.625000e+01
5.625000e+01
5.625000e+01
5.625000e+01
5.625000e+01
5.625000e+01
6.250000e+01
6.250000e+01
6.250000e+01
6.250000e+01
6.250000e+01
6.250000e+01
6.250000e+01
6.250000e+01
6.250000e+01
6.250000e+01
6.250000e+01
6.250000e+01
6.250000e+01
6.250000e+01
6.250000e+01
6.250000e+01
6.250000e+01
6.250000e+01
6.250000e+01
6.250000e+01
6.250000e+01
6.250000e+01
6.250000e+01
6.250000e+01
6.250000e+01
6.250000e+01
6.250000e+01
6.250000e+01
6.250000e+01
6.250000e+01
6.250000e+01
6.250000e+01
6.250000e+01
6.875000e+01
6.875000e+01
6.875000e+01
6.875000e+01
6.875000e+01
6.875000e+01
6.875000e+01
6.875000e+01
6.875000e+01
6.875000e+01
6.875000e+01
6.875000e+01
6.875000e+01
6.875000e+01
6.875000e+01
6.875000e+01
6.875000e+01
6.875000e+01
6.875000e+01
6.875000e+01
6.875000e+01
6.875000e+01
6.875000e+01
6.875000e+01
6.875000e+01
6.875000e+01
6.875000e+01
6.875000e+01
6.875000e+01
6.875000e+01
6.875000e+01
6.875000e+01
6.875000e+01
7.500000e+01
7.500000e+01
7.500000e+01
7.500000e+01
7.500000e+01
7.500000e+01
7.500000e+01
7.500000e+01
7.500000e+01
7.500000e+01
7.500000e+01
7.500000e+01
7.500000e+01
7.500000e+01
7.500000e+01
7.500000e+01
7.500000e+01
7.500000e+01
7.500000e+01
7.500000e+01
7.500000e+01
7.500000e+01
7.500000e+01
7.500000e+01
7.500000e+01
7.500000e+01
7.500000e+01
7.500000e+01
7.500000e+01
7.500000e+01
7.500000e+01
7.500000e+01
7.500000e+01
8.125000e+01
8.125000e+01
8.125000e+01
8.125000e+01
8.125000e+01
8.125000e+01
8.125000e+01
8.125000e+01
8.125000e+01
8.125000e+01
8.125000e+01
8.125000e+01
8.125000e+01
8.125000e+01
8.125000e+01
8.125000e+01
8.125000e+01
8.125000e+01
8.125000e+01
8.125000e+01
8.125000e+01
8.125000e+01
8.125000e+01
8.125000e+01
8.125000e+01
8.125000e+01
8.125000e+01
8.125000e+01
8.125000e+01
8.125000e+01
8.125000e+01
8.125000e+01
8.125000e+01
8.750000e+01
8.750000e+01
8.750000e+01
8.750000e+01
8.750000e+01
8.750000e+01
8.750000e+01
8.750000e+01
8.750000e+01
8.750000e+01
8.750000e+01
8.750000e+01
8.750000e+01
8.750000e+01
8.750000e+01
8.750000e+01
8.750000e+01
8.750000e+01
8.750000e+01
8.750000e+01
8.750000e+01
8.750000e+01
8.750000e+01
8.750000e+01
8.750000e+01
8.750000e+01
8.750000e+01
8.750000e+01
8.750000e+01
8.750000e+01
8.750000e+01
8.750000e+01
8.750000e+01
9.375000e+01
9.375000e+01
9.375000e+01
9.375000e+01
9.375000e+01
9.375000e+01
9.375000e+01
9.375000e+01
9.375000e+01
9.375000e+01
9.375000e+01
9.375000e+01
9.375000e+01
9.375000e+01
9.375000e+01
9.375000e+01
9.375000e+01
9.375000e+01
9.375000e+01
9.375000e+01
9.375000e+01
9.375000e+01
9.375000e+01
9.375000e+01
9.375000e+01
9.375000e+01
9.375000e+01
9.375000e+01
9.375000e+01
9.375000e+01
9.375000e+01
9.375000e+01
9.375000e+01
1.000000e+02
1.000000e+02
1.000000e+02
1.000000e+02
1.000000e+02
1.000000e+02
1.000000e+02
1.000000e+02
1.000000e+02
1.000000e+02
1.000000e+02
1.000000e+02
1.000000e+02
1.000000e+02
1.000000e+02
1.000000e+02
1.000000e+02
1.000000e+02
1.000000e+02
1.000000e+02
1.000000e+02
1.000000e+02
1.000000e+02
1.000000e+02
1.000000e+02
1.000000e+02
1.000000e+02
1.000000e+02
1.000000e+02
1.000000e+02
1.000000e+02
1.000000e+02
1.000000e+02
0.000000e+00
-3.856296e-01
-6.902597e-01
-9.898138e-01
-1.294691e+00
-1.588335e+00
-1.883652e+00
-2.180372e+00
-2.474420e+00
-2.767970e+00
-3.061650e+00
-3.354460e+00
-3.646401e+00
-3.937667e+00
-4.228031e+00
-4.517255e+00
-4.805169e+00
-5.091523e+00
-5.375971e+00
-5.658022e+00
-5.936892e+00
-6.211468e+00
-6.480577e+00
-6.743497e+00
-7.000489e+00
-7.253144e+00
-7.504564e+00
-7.759599e+00
-8.025741e+00
-8.314497e+00
-8.632649e+00
-8.961854e+00
-9.149995e+00
0.000000e+00
-2.387943e-01
-4.932568e-01
-7.513467e-01
-1.016703e+00
-1.273266e+00
-1.531361e+00
-1.791120e+00
-2.048644e+00
-2.305569e+00
-2.562572e+00
-2.818781e+00
-3.074143e+00
-3.328841e+00
-3.582695e+00
-3.835482e+00
-4.087041e+00
-4.337133e+00
-4.585418e+00
-4.831398e+00
-5.074260e+00
-5.312787e+00
-5.545513e+00
-5.771092e+00
-5.988672e+00
-6.198091e+00
-6.399815e+00
-6.594628e+00
-6.782431e+00
-6.956518e+00
-7.089350e+00
-7.155759e+00
-7.241835e+00
0.000000e+00
-1.710885e-01
-3.556977e-01
-5.636461e-01
-7.828549e-01
-9.994178e-01
-1.219363e+00
-1.441362e+00
-1.662422e+00
-1.883440e+00
-2.104593e+00
-2.325192e+00
-2.545129e+00
-2.764420e+00
-2.982838e+00
-3.200125e+00
-3.416019e+00
-3.630155e+00
-3.842028e+00
-4.050933e+00
-4.255846e+00
-4.455357e+00
-4.647757e+00
-4.831234e+00
-5.004067e+00
-5.164635e+00
-5.311159e+00
-5.440970e+00
-5.548698e+00
-5.622284e+00
-5.645162e+00
-5.641245e+00
-5.725469e+00
0.000000e+00
-1.289404e-01
-2.678875e-01
-4.268957e-01
-5.985013e-01
-7.741611e-01
-9.550613e-01
-1.138540e+00
-1.322649e+00
-1.507464e+00
-1.692568e+00
-1.877396e+00
-2.061744e+00
-2.245411e+00
-2.428086e+00
-2.609433e+00
-2.789055e+00
-2.966422e+00
-3.140842e+00
-3.311400e+00
-3.476897e+00
-3.635809e+00
-3.786316e+00
-3.926371e+00
-4.053749e+00
-4.165991e+00
-4.260165e+00
-4.332442e+00
-4.377616e+00
-4.390181e+00
-4.377263e+00
-4.380729e+00
-4.456591e+00
0.000000e+00
-1.048410e-01
-2.135121e-01
-3.335109e-01
-4.621329e-01
-5.982158e-01
-7.393492e-01
-8.834659e-01
-1.029521e+00
-1.176724e+00
-1.324398e+00
-1.472081e+00
-1.619417e+00
-1.766050e+00
-1.911612e+00
-2.055687e+00
-2.197768e+00
-2.337212e+00
-2.473207e+00
-2.604731e+00
-2.730521e+00
-2.849049e+00
-2.958513e+00
-3.056855e+00
-3.141774e+00
-3.210731e+00
-3.260969e+00
-3.289739e+00
-3.295341e+00
-3.281157e+00
-3.267007e+00
-3.290836e+00
-3.365943e+00
0.000000e+00
-7.962265e-02
-1.617916e-01
-2.487169e-01
-3.421642e-01
-4.411777e-01
-5.444918e-01
-6.508383e-01
-7.592077e-01
-8.687952e-01
-9.789685e-01
-1.089246e+00
-1.199219e+00
-1.308500e+00
-1.416685e+00
-1.523313e+00
-1.627831e+00
-1.729551e+00
-1.827629e+00
-1.921038e+00
-2.008551e+00
-2.088734e+00
-2.159941e+00
-2.220341e+00
-2.267975e+00
-2.300900e+00
-2.317502e+00
-2.317245e+00
-2.302426e+00
-2.282001e+00
-2.277227e+00
-2.310683e+00
-2.386011e+00
0.000000e+00
-5.338806e-02
-1.081757e-01
-1.656981e-01
-2.267879e-01
-2.914977e-01
-3.591974e-01
-4.291547e-01
-5.006700e-01
-5.731333e-01
-6.460471e-01
-7.190024e-01
-7.916357e-01
-8.635924e-01
-9.344927e-01
-1.003897e+00
-1.071273e+00
-1.135969e+00
-1.197193e+00
-1.254002e+00
-1.305299e+00
-1.349844e+00
-1.386281e+00
-1.413207e+00
-1.429310e+00
-1.433625e+00
-1.426031e+00
-1.408143e+00
-1.384869e+00
-1.366707e+00
-1.369965e+00
-1.407923e+00
-1.478894e+00
0.000000e+00
-2.677839e-02
-5.425187e-02
-8.293148e-02
-1.132228e-01
-1.451923e-01
-1.786368e-01
-2.132085e-01
-2.485435e-01
-2.843049e-01
-3.201975e-01
-3.559580e-01
-3.913353e-01
-4.260678e-01
-4.598587e-01
-4.923520e-01
-5.231084e-01
-5.515846e-01
-5.771205e-01
-5.989363e-01
-6.161469e-01
-6.277970e-01
-6.329287e-01
-6.306978e-01
-6.205662e-01
-6.026147e-01
-5.780376e-01
-5.498742e-01
-5.239494e-01
-5.095218e-01
-5.177206e-01
-5.551840e-01
-6.173171e-01
0.000000e+00
-1.397380e-04
-2.465757e-04
-3.116119e-04
-3.196268e-04
-2.504415e-04
-7.919306e-05
2.245125e-04
6.983319e-04
1.389620e-03
2.358620e-03
3.682564e-03
5.461160e-03
7.824071e-03
1.094087e-02
1.503353e-02
2.039100e-02
2.738335e-02
3.647061e-02
4.819780e-02
6.316668e-02
8.197549e-02
1.051198e-01
1.328463e-01
1.649459e-01
2.004662e-01
2.373339e-01
2.719220e-01
2.987376e-01
3.107082e-01
3.011591e-01
2.679752e-01
2.171180e-01
0.000000e+00
2.649500e-02
5.374751e-02
8.228723e-02
1.125504e-01
1.446434e-01
1.784111e-01
2.135648e-01
2.498137e-01
2.869132e-01
3.246845e-01
3.630134e-01
4.018400e-01
4.411491e-01
4.809641e-01
5.213446e-01
5.623901e-01
6.042478e-01
6.471194e-01
6.912535e-01
7.369085e-01
7.842759e-01
8.333661e-01
8.838621e-01
9.349416e-01
9.850691e-01
1.031777e+00
1.071516e+00
1.099755e+00
1.111685e+00
1.103980e+00
1.077382e+00
1.038474e+00
0.000000e+00
5.309249e-02
1.076370e-01
1.649903e-01
2.260164e-01
2.908046e-01
3.587682e-01
4.292285e-01
5.015527e-01
5.752143e-01
6.498216e-01
7.250985e-01
8.008488e-01
8.769288e-01
9.532251e-01
1.029635e+00
1.106057e+00
1.182385e+00
1.258522e+00
1.334368e+00
1.409785e+00
1.484516e+00
1.558081e+00
1.629669e+00
1.698017e+00
1.761310e+00
1.817094e+00
1.862309e+00
1.893582e+00
1.908000e+00
1.904494e+00
1.885498e+00
1.857942e+00
0.000000e+00
7.930657e-02
1.611957e-01
2.479064e-01
3.412342e-01
4.402524e-01
5.437292e-01
6.504409e-01
7.594332e-01
8.699713e-01
9.815108e-01
1.093677e+00
1.206194e+00
1.318831e+00
1.431375e+00
1.543592e+00
1.655199e+00
1.765847e+00
1.875120e+00
1.982529e+00
2.087477e+00
2.189192e+00
2.286678e+00
2.378677e+00
2.463648e+00
2.539743e+00
2.604812e+00
2.656490e+00
2.692519e+00
2.711412e+00
2.713508e+00
2.702174e+00
2.684623e+00
0.000000e+00
1.044987e-01
2.128514e-01
3.325865e-01
4.610239e-01
5.970186e-01
7.381789e-01
8.824667e-01
1.028878e+00
1.176673e+00
1.325239e+00
1.474190e+00
1.623255e+00
1.772179e+00
1.920699e+00
2.068507e+00
2.215196e+00
2.360229e+00
2.502902e+00
2.642306e+00
2.777280e+00
2.906407e+00
3.028075e+00
3.140577e+00
3.242191e+00
3.331219e+00
3.405993e+00
3.464952e+00
3.506864e+00
3.531321e+00
3.539515e+00
3.535248e+00
3.525945e+00
0.000000e+00
1.286002e-01
2.672202e-01
4.259562e-01
5.973367e-01
7.728255e-01
9.536180e-01
1.137058e+00
1.321217e+00
1.506203e+00
1.691634e+00
1.876980e+00
2.062078e+00
2.246768e+00
2.430766e+00
2.613733e+00
2.795232e+00
2.974648e+00
3.151084e+00
3.323200e+00
3.489124e+00
3.646566e+00
3.793109e+00
3.926518e+00
4.044925e+00
4.146868e+00
4.231273e+00
4.297446e+00
4.345186e+00
4.375053e+00
4.388866e+00
4.390532e+00
4.387405e+00
0.000000e+00
1.708637e-01
3.552577e-01
5.630205e-01
7.820600e-01
9.984575e-01
1.218253e+00
1.440105e+00
1.661012e+00
1.881882e+00
2.102898e+00
2.323360e+00
2.543152e+00
2.762273e+00
2.980451e+00
3.197326e+00
3.412494e+00
3.625395e+00
3.835083e+00
4.039855e+00
4.237027e+00
4.423208e+00
4.594940e+00
4.749295e+00
4.884169e+00
4.998296e+00
5.091167e+00
5.162978e+00
5.214642e+00
5.247868e+00
5.265304e+00
5.270978e+00
5.271619e+00
0.000000e+00
2.387822e-01
4.932289e-01
7.513075e-01
1.016637e+00
1.273148e+00
1.531188e+00
1.790868e+00
2.048256e+00
2.304988e+00
2.561720e+00
2.817539e+00
3.072336e+00
3.326237e+00
3.578957e+00
3.830091e+00
4.079252e+00
4.325929e+00
4.569136e+00
4.806814e+00
5.035457e+00
5.250519e+00
5.447408e+00
5.622377e+00
5.772907e+00
5.897705e+00
5.996600e+00
6.070519e+00
6.121543e+00
6.152941e+00
6.169043e+00
6.174901e+00
6.176328e+00
0.000000e+00
3.858608e-01
6.906875e-01
9.904510e-01
1.295502e+00
1.589293e+00
1.884776e+00
2.181653e+00
2.475823e+00
2.769459e+00
3.063170e+00
3.355903e+00
3.647601e+00
3.938390e+00
4.227927e+00
4.515770e+00
4.801490e+00
5.084464e+00
5.363414e+00
5.635693e+00
5.896908e+00
6.141472e+00
6.363798e+00
6.559298e+00
6.724788e+00
6.858492e+00
6.960016e+00
7.030480e+00
7.072819e+00
7.092124e+00
7.095818e+00
7.093066e+00
7.091476e+00
0.000000e+00
-2.358798e-01
-4.448242e-01
-6.970262e-01
-9.818206e-01
-1.300069e+00
-1.655939e+00
-2.047663e+00
-2.475427e+00
-2.940412e+00
-3.442538e+00
-3.981764e+00
-4.558332e+00
-5.172282e+00
-5.823513e+00
-6.511922e+00
-7.237344e+00
-7.999504e+00
-8.798027e+00
-9.632393e+00
-1.050191e+01
-1.140580e+01
-1.234339e+01
-1.331448e+01
-1.431976e+01
-1.536140e+01
-1.644367e+01
-1.757392e+01
-1.876365e+01
-2.003166e+01
-2.142356e+01
-2.307223e+01
-2.532497e+01
0.000000e+00
-1.465232e-01
-3.653231e-01
-6.132516e-01
-8.986431e-01
-1.217879e+00
-1.572953e+00
-1.964770e+00
-2.392950e+00
-2.857931e+00
-3.360153e+00
-3.899638e+00
-4.476438e+00
-5.090630e+00
-5.742181e+00
-6.430975e+00
-7.156850e+00
-7.919562e+00
-8.718768e+00
-9.554019e+00
-1.042474e+01
-1.133021e+01
-1.226977e+01
-1.324305e+01
-1.425049e+01
-1.529393e+01
-1.637735e+01
-1.750794e+01
-1.869763e+01
-1.996783e+01
-2.136414e+01
-2.298427e+01
-2.504587e+01
0.000000e+00
-1.108513e-01
-3.049077e-01
-5.477036e-01
-8.303547e-01
-1.148406e+00
-1.502469e+00
-1.893783e+00
-2.321854e+00
-2.786774e+00
-3.289029e+00
-3.828689e+00
-4.405734e+00
-5.020234e+00
-5.672184e+00
-6.361482e+00
-7.087981e+00
-7.851466e+00
-8.651644e+00
-9.488140e+00
-1.036047e+01
-1.126802e+01
-1.221016e+01
-1.318647e+01
-1.419730e+01
-1.524436e+01
-1.633164e+01
-1.746675e+01
-1.866355e+01
-1.994636e+01
-2.134491e+01
-2.286830e+01
-2.449336e+01
0.000000e+00
-1.012188e-01
-2.745092e-01
-5.043302e-01
-7.800584e-01
-1.094044e+00
-1.445763e+00
-1.835565e+00
-2.262784e+00
-2.727310e+00
-3.229432e+00
-3.769169e+00
-4.346482e+00
-4.961408e+00
-5.613940e+00
-6.304001e+00
-7.031471e+00
-7.796175e+00
-8.597874e+00
-9.436254e+00
-1.031090e+01
-1.122126e+01
-1.216675e+01
-1.314698e+01
-1.416226e+01
-1.521423e+01
-1.630682e+01
-1.744769e+01
-1.865054e+01
-1.993578e+01
-2.130520e+01
-2.270616e+01
-2.400316e+01
0.000000e+00
-1.036253e-01
-2.649318e-01
-4.823072e-01
-7.477973e-01
-1.055652e+00
-1.403508e+00
-1.790667e+00
-2.216295e+00
-2.680010e+00
-3.181775e+00
-3.721504e+00
-4.299118e+00
-4.914603e+00
-5.567936e+00
-6.259059e+00
-6.987884e+00
-7.754277e+00
-8.558043e+00
-9.398903e+00
-1.027647e+01
-1.119022e+01
-1.213958e+01
-1.312416e+01
-1.414416e+01
-1.520094e+01
-1.629781e+01
-1.744101e+01
-1.864069e+01
-1.990679e+01
-2.122069e+01
-2.250287e+01
-2.364630e+01
0.000000e+00
-1.045364e-01
-2.615523e-01
-4.705521e-01
-7.280898e-01
-1.029907e+00
-1.373696e+00
-1.757991e+00
-2.181798e+00
-2.644530e+00
-3.145858e+00
-3.685572e+00
-4.263540e+00
-4.879698e+00
-5.534005e+00
-6.226422e+00
-6.956891e+00
-7.725313e+00
-8.531520e+00
-9.375244e+00
-1.025608e+01
-1.117348e+01
-1.212681e+01
-1.311555e+01
-1.413956e+01
-1.519955e+01
-1.629743e+01
-1.743666e+01
-1.862145e+01
-1.985067e+01
-2.109311e+01
-2.227852e+01
-2.332208e+01
0.000000e+00
-1.045337e-01
-2.594092e-01
-4.639675e-01
-7.162542e-01
-1.013696e+00
-1.354141e+00
-1.736054e+00
-2.158323e+00
-2.620195e+00
-3.121176e+00
-3.660953e+00
-4.239340e+00
-4.856239e+00
-5.511606e+00
-6.205420e+00
-6.937653e+00
-7.708235e+00
-8.517010e+00
-9.363695e+00
-1.024783e+01
-1.116878e+01
-1.212572e+01
-1.311781e+01
-1.414435e+01
-1.520495e+01
-1.629962e+01
-1.742834e+01
-1.858934e+01
-1.977286e+01
-2.094562e+01
-2.205057e+01
-2.302242e+01
0.000000e+00
-1.044185e-01
-2.581390e-01
-4.604734e-01
-7.100027e-01
-1.004863e+00
-1.343257e+00
-1.723689e+00
-2.145013e+00
-2.606394e+00
-3.107257e+00
-3.647232e+00
-4.226101e+00
-4.843756e+00
-5.500163e+00
-6.195327e+00
-6.929249e+00
-7.701885e+00
-8.513086e+00
-9.362536e+00
-1.024969e+01
-1.117372e+01
-1.213353e+01
-1.312777e+01
-1.415492e+01
-1.521331e+01
-1.630084e+01
-1.741425e+01
-1.854708e+01
-1.968499e+01
-2.079733e+01
-2.183906e+01
-2.276136e+01
0.000000e+00
-1.043943e-01
-2.577781e-01
-4.594742e-01
-7.081978e-01
-1.002295e+00
-1.340095e+00
-1.720144e+00
-2.141294e+00
-2.602693e+00
-3.103750e+00
-3.644086e+00
-4.223484e+00
-4.841849e+00
-5.499174e+00
-6.195493e+00
-6.930844e+00
-7.705213e+00
-8.518455e+00
-9.370216e+00
-1.025983e+01
-1.118623e+01
-1.214792e+01
-1.314293e+01
-1.416880e+01
-1.522252e+01
-1.630009e+01
-1.739573e+01
-1.850012e+01
-1.959735e+01
-2.066103e+01
-2.165639e+01
-2.254698e+01
0.000000e+00
-1.045117e-01
-2.583372e-01
-4.608087e-01
-7.105213e-01
-1.005622e+00
-1.344321e+00
-1.725135e+00
-2.146931e+00
-2.608892e+00
-3.110467e+00
-3.651315e+00
-4.231255e+00
-4.850229e+00
-5.508262e+00
-6.205427e+00
-6.941803e+00
-7.717408e+00
-8.532116e+00
-9.385537e+00
-1.027688e+01
-1.120479e+01
-1.216731e+01
-1.316177e+01
-1.418479e+01
-1.523209e+01
-1.629821e+01
-1.737569e+01
-1.845394e+01
-1.951746e+01
-2.054437e+01
-2.150811e+01
-2.238133e+01
0.000000e+00
-1.047051e-01
-2.597780e-01
-4.646011e-01
-7.172454e-01
-1.015155e+00
-1.356195e+00
-1.738850e+00
-2.162036e+00
-2.625032e+00
-3.127390e+00
-3.668853e+00
-4.249304e+00
-4.868737e+00
-5.527216e+00
-6.224853e+00
-6.961760e+00
-7.737999e+00
-8.553478e+00
-9.407796e+00
-1.030004e+01
-1.122857e+01
-1.219092e+01
-1.318375e+01
-1.420277e+01
-1.524271e+01
-1.629703e+01
-1.735742e+01
-1.841310e+01
-1.945001e+01
-2.045053e+01
-2.139463e+01
-2.226182e+01
0.000000e+00
-1.047546e-01
-2.620363e-01
-4.714122e-01
-7.294639e-01
-1.031952e+00
-1.376592e+00
-1.761948e+00
-2.187059e+00
-2.651389e+00
-3.154671e+00
-3.696769e+00
-4.277646e+00
-4.897358e+00
-5.556011e+00
-6.253738e+00
-6.990675e+00
-7.766925e+00
-8.582450e+00
-9.436872e+00
-1.032918e+01
-1.125746e+01
-1.221877e+01
-1.320909e+01
-1.422340e+01
-1.525568e+01
-1.629869e+01
-1.734383e+01
-1.838075e+01
-1.939727e+01
-2.037957e+01
-2.131301e+01
-2.218289e+01
0.000000e+00
-1.038420e-01
-2.654509e-01
-4.832946e-01
-7.494299e-01
-1.058119e+00
-1.407032e+00
-1.795506e+00
-2.222747e+00
-2.688432e+00
-3.192600e+00
-3.735252e+00
-4.316418e+00
-4.936221e+00
-5.594806e+00
-6.292305e+00
-7.028852e+00
-7.804574e+00
-8.619494e+00
-9.473280e+00
-1.036485e+01
-1.129204e+01
-1.225145e+01
-1.323852e+01
-1.424768e+01
-1.527237e+01
-1.630503e+01
-1.733703e+01
-1.835875e+01
-1.935981e+01
-2.032972e+01
-2.125862e+01
-2.213748e+01
0.000000e+00
-1.013742e-01
-2.749840e-01
-5.053404e-01
-7.818101e-01
-1.096743e+00
-1.449657e+00
-1.840945e+00
-2.269981e+00
-2.736723e+00
-3.241546e+00
-3.784561e+00
-4.365839e+00
-4.985565e+00
-5.643904e+00
-6.340971e+00
-7.076870e+00
-7.851717e+00
-8.665565e+00
-9.518099e+00
-1.040816e+01
-1.133335e+01
-1.228992e+01
-1.327296e+01
-1.427654e+01
-1.529384e+01
-1.631718e+01
-1.733810e+01
-1.834764e+01
-1.933694e+01
-2.029826e+01
-2.122609e+01
-2.211752e+01
0.000000e+00
-1.109268e-01
-3.053192e-01
-5.486810e-01
-8.321192e-01
-1.151171e+00
-1.506492e+00
-1.899370e+00
-2.329353e+00
-2.796605e+00
-3.301702e+00
-3.844804e+00
-4.426008e+00
-5.045524e+00
-5.703516e+00
-6.400067e+00
-7.135243e+00
-7.909114e+00
-8.721670e+00
-9.572502e+00
-1.046030e+01
-1.138246e+01
-1.233507e+01
-1.331307e+01
-1.431046e+01
-1.532040e+01
-1.633528e+01
-1.734685e+01
-1.834666e+01
-1.932693e+01
-2.028192e+01
-2.120970e+01
-2.211385e+01
0.000000e+00
-1.465708e-01
-3.657125e-01
-6.142101e-01
-9.003973e-01
-1.220648e+00
-1.576997e+00
-1.970395e+00
-2.400507e+00
-2.867845e+00
-3.372935e+00
-3.915892e+00
-4.496876e+00
-5.116104e+00
-5.773693e+00
-6.469703e+00
-7.204177e+00
-7.977115e+00
-8.788334e+00
-9.637151e+00
-1.052196e+01
-1.144000e+01
-1.238732e+01
-1.335902e+01
-1.434927e+01
-1.535146e+01
-1.635818e+01
-1.736147e+01
-1.835331e+01
-1.932657e+01
-2.027661e+01
-2.120376e+01
-2.211666e+01
0.000000e+00
-2.359728e-01
-4.452431e-01
-6.980146e-01
-9.835959e-01
-1.302861e+00
-1.660009e+00
-2.053307e+00
-2.482997e+00
-2.950329e+00
-3.455307e+00
-3.997971e+00
-4.578677e+00
-5.197592e+00
-5.854748e+00
-6.550197e+00
-7.283971e+00
-8.055971e+00
-8.865755e+00
-9.712204e+00
-1.059329e+01
-1.150604e+01
-1.244667e+01