TITLE = "Solution"
VARIABLES = x, y, u, v, psiu, psiv, t, stress
ZONE T="structure" N=561 E=512 F=FEBLOCK ET=QUADRILATERAL VARLOCATION=([7,8]=cellcentered)
0.000000e+00
6.250000e+00
1.250000e+01
1.875000e+01
2.500000e+01
3.125000e+01
3.750000e+01
4.375000e+01
5.000000e+01
5.625000e+01
6.250000e+01
6.875000e+01
7.500000e+01
8.125000e+01
8.750000e+01
9.375000e+01
1.000000e+02
1.062500e+02
1.125000e+02
1.187500e+02
1.250000e+02
1.312500e+02
1.375000e+02
1.437500e+02
1.500000e+02
1.562500e+02
1.625000e+02
1.687500e+02
1.750000e+02
1.812500e+02
1.875000e+02
1.937500e+02
2.000000e+02
0.000000e+00
6.250000e+00
1.250000e+01
1.875000e+01
2.500000e+01
3.125000e+01
3.750000e+01
4.375000e+01
5.000000e+01
5.625000e+01
6.250000e+01
6.875000e+01
7.500000e+01
8.125000e+01
8.750000e+01
9.375000e+01
1.000000e+02
1.062500e+02
1.125000e+02
1.187500e+02
1.250000e+02
1.312500e+02
1.375000e+02
1.437500e+02
1.500000e+02
1.562500e+02
1.625000e+02
1.687500e+02
1.750000e+02
1.812500e+02
1.875000e+02
1.937500e+02
2.000000e+02
0.000000e+00
6.250000e+00
1.250000e+01
1.875000e+01
2.500000e+01
3.125000e+01
3.750000e+01
4.375000e+01
5.000000e+01
5.625000e+01
6.250000e+01
6.875000e+01
7.500000e+01
8.125000e+01
8.750000e+01
9.375000e+01
1.000000e+02
1.062500e+02
1.125000e+02
1.187500e+02
1.250000e+02
1.312500e+02
1.375000e+02
1.437500e+02
1.500000e+02
1.562500e+02
1.625000e+02
1.687500e+02
1.750000e+02
1.812500e+02
1.875000e+02
1.937500e+02
2.000000e+02
0.000000e+00
6.250000e+00
1.250000e+01
1.875000e+01
2.500000e+01
3.125000e+01
3.750000e+01
4.375000e+01
5.000000e+01
5.625000e+01
6.250000e+01
6.875000e+01
7.500000e+01
8.125000e+01
8.750000e+01
9.375000e+01
1.000000e+02
1.062500e+02
1.125000e+02
1.187500e+02
1.250000e+02
1.312500e+02
1.375000e+02
1.437500e+02
1.500000e+02
1.562500e+02
1.625000e+02
1.687500e+02
1.750000e+02
1.812500e+02
1.875000e+02
1.937500e+02
2.000000e+02
0.000000e+00
6.250000e+00
1.250000e+01
1.875000e+01
2.500000e+01
3.125000e+01
3.750000e+01
4.375000e+01
5.000000e+01
5.625000e+01
6.250000e+01
6.875000e+01
7.500000e+01
8.125000e+01
8.750000e+01
9.375000e+01
1.000000e+02
1.062500e+02
1.125000e+02
1.187500e+02
1.250000e+02
1.312500e+02
1.375000e+02
1.437500e+02
1.500000e+02
1.562500e+02
1.625000e+02
1.687500e+02
1.750000e+02
1.812500e+02
1.875000e+02
1.937500e+02
2.000000e+02
0.000000e+00
6.250000e+00
1.250000e+01
1.875000e+01
2.500000e+01
3.125000e+01
3.750000e+01
4.375000e+01
5.000000e+01
5.625000e+01
6.250000e+01
6.875000e+01
7.500000e+01
8.125000e+01
8.750000e+01
9.375000e+01
1.000000e+02
1.062500e+02
1.125000e+02
1.187500e+02
1.250000e+02
1.312500e+02
1.375000e+02
1.437500e+02
1.500000e+02
1.562500e+02
1.625000e+02
1.687500e+02
1.750000e+02
1.812500e+02
1.875000e+02
1.937500e+02
2.000000e+02
0.000000e+00
6.250000e+00
1.250000e+01
1.875000e+01
2.500000e+01
3.125000e+01
3.750000e+01
4.375000e+01
5.000000e+01
5.625000e+01
6.250000e+01
6.875000e+01
7.500000e+01
8.125000e+01
8.750000e+01
9.375000e+01
1.000000e+02
1.062500e+02
1.125000e+02
1.187500e+02
1.250000e+02
1.312500e+02
1.375000e+02
1.437500e+02
1.500000e+02
1.562500e+02
1.625000e+02
1.687500e+02
1.750000e+02
1.812500e+02
1.875000e+02
1.937500e+02
2.000000e+02
0.000000e+00
6.250000e+00
1.250000e+01
1.875000e+01
2.500000e+01
3.125000e+01
3.750000e+01
4.375000e+01
5.000000e+01
5.625000e+01
6.250000e+01
6.875000e+01
7.500000e+01
8.125000e+01
8.750000e+01
9.375000e+01
1.000000e+02
1.062500e+02
1.125000e+02
1.187500e+02
1.250000e+02
1.312500e+02
1.375000e+02
1.437500e+02
1.500000e+02
1.562500e+02
1.625000e+02
1.687500e+02
1.750000e+02
1.812500e+02
1.875000e+02
1.937500e+02
2.000000e+02
0.000000e+00
6.250000e+00
1.250000e+01
1.875000e+01
2.500000e+01
3.125000e+01
3.750000e+01
4.375000e+01
5.000000e+01
5.625000e+01
6.250000e+01
6.875000e+01
7.500000e+01
8.125000e+01
8.750000e+01
9.375000e+01
1.000000e+02
1.062500e+02
1.125000e+02
1.187500e+02
1.250000e+02
1.312500e+02
1.375000e+02
1.437500e+02
1.500000e+02
1.562500e+02
1.625000e+02
1.687500e+02
1.750000e+02
1.812500e+02
1.875000e+02
1.937500e+02
2.000000e+02
0.000000e+00
6.250000e+00
1.250000e+01
1.875000e+01
2.500000e+01
3.125000e+01
3.750000e+01
4.375000e+01
5.000000e+01
5.625000e+01
6.250000e+01
6.875000e+01
7.500000e+01
8.125000e+01
8.750000e+01
9.375000e+01
1.000000e+02
1.062500e+02
1.125000e+02
1.187500e+02
1.250000e+02
1.312500e+02
1.375000e+02
1.437500e+02
1.500000e+02
1.562500e+02
1.625000e+02
1.687500e+02
1.750000e+02
1.812500e+02
1.875000e+02
1.937500e+02
2.000000e+02
0.000000e+00
6.250000e+00
1.250000e+01
1.875000e+01
2.500000e+01
3.125000e+01
3.750000e+01
4.375000e+01
5.000000e+01
5.625000e+01
6.250000e+01
6.875000e+01
7.500000e+01
8.125000e+01
8.750000e+01
9.375000e+01
1.000000e+02
1.062500e+02
1.125000e+02
1.187500e+02
1.250000e+02
1.312500e+02
1.375000e+02
1.437500e+02
1.500000e+02
1.562500e+02
1.625000e+02
1.687500e+02
1.750000e+02
1.812500e+02
1.875000e+02
1.937500e+02
2.000000e+02
0.000000e+00
6.250000e+00
1.250000e+01
1.875000e+01
2.500000e+01
3.125000e+01
3.750000e+01
4.375000e+01
5.000000e+01
5.625000e+01
6.250000e+01
6.875000e+01
7.500000e+01
8.125000e+01
8.750000e+01
9.375000e+01
1.000000e+02
1.062500e+02
1.125000e+02
1.187500e+02
1.250000e+02
1.312500e+02
1.375000e+02
1.437500e+02
1.500000e+02
1.562500e+02
1.625000e+02
1.687500e+02
1.750000e+02
1.812500e+02
1.875000e+02
1.937500e+02
2.000000e+02
0.000000e+00
6.250000e+00
1.250000e+01
1.875000e+01
2.500000e+01
3.125000e+01
3.750000e+01
4.375000e+01
5.000000e+01
5.625000e+01
6.250000e+01
6.875000e+01
7.500000e+01
8.125000e+01
8.750000e+01
9.375000e+01
1.000000e+02
1.062500e+02
1.125000e+02
1.187500e+02
1.250000e+02
1.312500e+02
1.375000e+02
1.437500e+02
1.500000e+02
1.562500e+02
1.625000e+02
1.687500e+02
1.750000e+02
1.812500e+02
1.875000e+02
1.937500e+02
2.000000e+02
0.000000e+00
6.250000e+00
1.250000e+01
1.875000e+01
2.500000e+01
3.125000e+01
3.750000e+01
4.375000e+01
5.000000e+01
5.625000e+01
6.250000e+01
6.875000e+01
7.500000e+01
8.125000e+01
8.750000e+01
9.375000e+01
1.000000e+02
1.062500e+02
1.125000e+02
1.187500e+02
1.250000e+02
1.312500e+02
1.375000e+02
1.437500e+02
1.500000e+02
1.562500e+02
1.625000e+02
1.687500e+02
1.750000e+02
1.812500e+02
1.875000e+02
1.937500e+02
2.000000e+02
0.000000e+00
6.250000e+00
1.250000e+01
1.875000e+01
2.500000e+01
3.125000e+01
3.750000e+01
4.375000e+01
5.000000e+01
5.625000e+01
6.250000e+01
6.875000e+01
7.500000e+01
8.125000e+01
8.750000e+01
9.375000e+01
1.000000e+02
1.062500e+02
1.125000e+02
1.187500e+02
1.250000e+02
1.312500e+02
1.375000e+02
1.437500e+02
1.500000e+02
1.562500e+02
1.625000e+02
1.687500e+02
1.750000e+02
1.812500e+02
1.875000e+02
1.937500e+02
2.000000e+02
0.000000e+00
6.250000e+00
1.250000e+01
1.875000e+01
2.500000e+01
3.125000e+01
3.750000e+01
4.375000e+01
5.000000e+01
5.625000e+01
6.250000e+01
6.875000e+01
7.500000e+01
8.125000e+01
8.750000e+01
9.375000e+01
1.000000e+02
1.062500e+02
1.125000e+02
1.187500e+02
1.250000e+02
1.312500e+02
1.375000e+02
1.437500e+02
1.500000e+02
1.562500e+02
1.625000e+02
1.687500e+02
1.750000e+02
1.812500e+02
1.875000e+02
1.937500e+02
2.000000e+02
0.000000e+00
6.250000e+00
1.250000e+01
1.875000e+01
2.500000e+01
3.125000e+01
3.750000e+01
4.375000e+01
5.000000e+01
5.625000e+01
6.250000e+01
6.875000e+01
7.500000e+01
8.125000e+01
8.750000e+01
9.375000e+01
1.000000e+02
1.062500e+02
1.125000e+02
1.187500e+02
1.250000e+02
1.312500e+02
1.375000e+02
1.437500e+02
1.500000e+02
1.562500e+02
1.625000e+02
1.687500e+02
1.750000e+02
1.812500e+02
1.875000e+02
1.937500e+02
2.000000e+02
0.000000e+00
0.000000e+00
0.000000e+00
0.000000e+00
0.000000e+00
0.000000e+00
0.000000e+00
0.000000e+00
0.000000e+00
0.000000e+00
0.000000e+00
0.000000e+00
0.000000e+00
0.000000e+00
0.000000e+00
0.000000e+00
0.000000e+00
0.000000e+00
0.000000e+00
0.000000e+00
0.000000e+00
0.000000e+00
0.000000e+00
0.000000e+00
0.000000e+00
0.000000e+00
0.000000e+00
0.000000e+00
0.000000e+00
0.000000e+00
0.000000e+00
0.000000e+00
0.000000e+00
6.250000e+00
6.250000e+00
6.250000e+00
6.250000e+00
6.250000e+00
6.250000e+00
6.250000e+00
6.250000e+00
6.250000e+00
6.250000e+00
6.250000e+00
6.250000e+00
6.250000e+00
6.250000e+00
6.250000e+00
6.250000e+00
6.250000e+00
6.250000e+00
6.250000e+00
6.250000e+00
6.250000e+00
6.250000e+00
6.250000e+00
6.250000e+00
6.250000e+00
6.250000e+00
6.250000e+00
6.250000e+00
6.250000e+00
6.250000e+00
6.250000e+00
6.250000e+00
6.250000e+00
1.250000e+01
1.250000e+01
1.250000e+01
1.250000e+01
1.250000e+01
1.250000e+01
1.250000e+01
1.250000e+01
1.250000e+01
1.250000e+01
1.250000e+01
1.250000e+01
1.250000e+01
1.250000e+01
1.250000e+01
1.250000e+01
1.250000e+01
1.250000e+01
1.250000e+01
1.250000e+01
1.250000e+01
1.250000e+01
1.250000e+01
1.250000e+01
1.250000e+01
1.250000e+01
1.250000e+01
1.250000e+01
1.250000e+01
1.250000e+01
1.250000e+01
1.250000e+01
1.250000e+01
1.875000e+01
1.875000e+01
1.875000e+01
1.875000e+01
1.875000e+01
1.875000e+01
1.875000e+01
1.875000e+01
1.875000e+01
1.875000e+01
1.875000e+01
1.875000e+01
1.875000e+01
1.875000e+01
1.875000e+01
1.875000e+01
1.875000e+01
1.875000e+01
1.875000e+01
1.875000e+01
1.875000e+01
1.875000e+01
1.875000e+01
1.875000e+01
1.875000e+01
1.875000e+01
1.875000e+01
1.875000e+01
1.875000e+01
1.875000e+01
1.875000e+01
1.875000e+01
1.875000e+01
2.500000e+01
2.500000e+01
2.500000e+01
2.500000e+01
2.500000e+01
2.500000e+01
2.500000e+01
2.500000e+01
2.500000e+01
2.500000e+01
2.500000e+01
2.500000e+01
2.500000e+01
2.500000e+01
2.500000e+01
2.500000e+01
2.500000e+01
2.500000e+01
2.500000e+01
2.500000e+01
2.500000e+01
2.500000e+01
2.500000e+01
2.500000e+01
2.500000e+01
2.500000e+01
2.500000e+01
2.500000e+01
2.500000e+01
2.500000e+01
2.500000e+01
2.500000e+01
2.500000e+01
3.125000e+01
3.125000e+01
3.125000e+01
3.125000e+01
3.125000e+01
3.125000e+01
3.125000e+01
3.125000e+01
3.125000e+01
3.125000e+01
3.125000e+01
3.125000e+01
3.125000e+01
3.125000e+01
3.125000e+01
3.125000e+01
3.125000e+01
3.125000e+01
3.125000e+01
3.125000e+01
3.125000e+01
3.125000e+01
3.125000e+01
3.125000e+01
3.125000e+01
3.125000e+01
3.125000e+01
3.125000e+01
3.125000e+01
3.125000e+01
3.125000e+01
3.125000e+01
3.125000e+01
3.750000e+01
3.750000e+01
3.750000e+01
3.750000e+01
3.750000e+01
3.750000e+01
3.750000e+01
3.750000e+01
3.750000e+01
3.750000e+01
3.750000e+01
3.750000e+01
3.750000e+01
3.750000e+01
3.750000e+01
3.750000e+01
3.750000e+01
3.750000e+01
3.750000e+01
3.750000e+01
3.750000e+01
3.750000e+01
3.750000e+01
3.750000e+01
3.750000e+01
3.750000e+01
3.750000e+01
3.750000e+01
3.750000e+01
3.750000e+01
3.750000e+01
3.750000e+01
3.750000e+01
4.375000e+01
4.375000e+01
4.375000e+01
4.375000e+01
4.375000e+01
4.375000e+01
4.375000e+01
4.375000e+01
4.375000e+01
4.375000e+01
4.375000e+01
4.375000e+01
4.375000e+01
4.375000e+01
4.375000e+01
4.375000e+01
4.375000e+01
4.375000e+01
4.375000e+01
4.375000e+01
4.375000e+01
4.375000e+01
4.375000e+01
4.375000e+01
4.375000e+01
4.375000e+01
4.375000e+01
4.375000e+01
4.375000e+01
4.375000e+01
4.375000e+01
4.375000e+01
4.375000e+01
5.000000e+01
5.000000e+01
5.000000e+01
5.000000e+01
5.000000e+01
5.000000e+01
5.000000e+01
5.000000e+01
5.000000e+01
5.000000e+01
5.000000e+01
5.000000e+01
5.000000e+01
5.000000e+01
5.000000e+01
5.000000e+01
5.000000e+01
5.000000e+01
5.000000e+01
5.000000e+01
5.000000e+01
5.000000e+01
5.000000e+01
5.000000e+01
5.000000e+01
5.000000e+01
5.000000e+01
5.000000e+01
5.000000e+01
5.000000e+01
5.000000e+01
5.000000e+01
5.000000e+01
5.625000e+01
5.625000e+01
5.625000e+01
5.625000e+01
5.625000e+01
5.625000e+01
5.625000e+01
5.625000e+01
5.625000e+01
5.625000e+01
5.625000e+01
5.625000e+01
5.625000e+01
5.625000e+01
5.625000e+01
5.625000e+01
5.625000e+01
5.625000e+01
5.625000e+01
5.625000e+01
5.625000e+01
5.625000e+01
5.625000e+01
5.625000e+01
5.625000e+01
5.625000e+01
5.625000e+01
5.625000e+01
5.625000e+01
5.625000e+01
5.625000e+01
5.625000e+01
5.625000e+01
6.250000e+01
6.250000e+01
6.250000e+01
6.250000e+01
6.250000e+01
6.250000e+01
6.250000e+01
6.250000e+01
6.250000e+01
6.250000e+01
6.250000e+01
6.250000e+01
6.250000e+01
6.250000e+01
6.250000e+01
6.250000e+01
6.250000e+01
6.250000e+01
6.250000e+01
6.250000e+01
6.250000e+01
6.250000e+01
6.250000e+01
6.250000e+01
6.250000e+01
6.250000e+01
6.250000e+01
6.250000e+01
6.250000e+01
6.250000e+01
6.250000e+01
6.250000e+01
6.250000e+01
6.875000e+01
6.875000e+01
6.875000e+01
6.875000e+01
6.875000e+01
6.875000e+01
6.875000e+01
6.875000e+01
6.875000e+01
6.875000e+01
6.875000e+01
6.875000e+01
6.875000e+01
6.875000e+01
6.875000e+01
6.875000e+01
6.875000e+01
6.875000e+01
6.875000e+01
6.875000e+01
6.875000e+01
6.875000e+01
6.875000e+01
6.875000e+01
6.875000e+01
6.875000e+01
6.875000e+01
6.875000e+01
6.875000e+01
6.875000e+01
6.875000e+01
6.875000e+01
6.875000e+01
7.500000e+01
7.500000e+01
7.500000e+01
7.500000e+01
7.500000e+01
7.500000e+01
7.500000e+01
7.500000e+01
7.500000e+01
7.500000e+01
7.500000e+01
7.500000e+01
7.500000e+01
7.500000e+01
7.500000e+01
7.500000e+01
7.500000e+01
7.500000e+01
7.500000e+01
7.500000e+01
7.500000e+01
7.500000e+01
7.500000e+01
7.500000e+01
7.500000e+01
7.500000e+01
7.500000e+01
7.500000e+01
7.500000e+01
7.500000e+01
7.500000e+01
7.500000e+01
7.500000e+01
8.125000e+01
8.125000e+01
8.125000e+01
8.125000e+01
8.125000e+01
8.125000e+01
8.125000e+01
8.125000e+01
8.125000e+01
8.125000e+01
8.125000e+01
8.125000e+01
8.125000e+01
8.125000e+01
8.125000e+01
8.125000e+01
8.125000e+01
8.125000e+01
8.125000e+01
8.125000e+01
8.125000e+01
8.125000e+01
8.125000e+01
8.125000e+01
8.125000e+01
8.125000e+01
8.125000e+01
8.125000e+01
8.125000e+01
8.125000e+01
8.125000e+01
8.125000e+01
8.125000e+01
8.750000e+01
8.750000e+01
8.750000e+01
8.750000e+01
8.750000e+01
8.750000e+01
8.750000e+01
8.750000e+01
8.750000e+01
8.750000e+01
8.750000e+01
8.750000e+01
8.750000e+01
8.750000e+01
8.750000e+01
8.750000e+01
8.750000e+01
8.750000e+01
8.750000e+01
8.750000e+01
8.750000e+01
8.750000e+01
8.750000e+01
8.750000e+01
8.750000e+01
8.750000e+01
8.750000e+01
8.750000e+01
8.750000e+01
8.750000e+01
8.750000e+01
8.750000e+01
8.750000e+01
9.375000e+01
9.375000e+01
9.375000e+01
9.375000e+01
9.375000e+01
9.375000e+01
9.375000e+01
9.375000e+01
9.375000e+01
9.375000e+01
9.375000e+01
9.375000e+01
9.375000e+01
9.375000e+01
9.375000e+01
9.375000e+01
9.375000e+01
9.375000e+01
9.375000e+01
9.375000e+01
9.375000e+01
9.375000e+01
9.375000e+01
9.375000e+01
9.375000e+01
9.375000e+01
9.375000e+01
9.375000e+01
9.375000e+01
9.375000e+01
9.375000e+01
9.375000e+01
9.375000e+01
1.000000e+02
1.000000e+02
1.000000e+02
1.000000e+02
1.000000e+02
1.000000e+02
1.000000e+02
1.000000e+02
1.000000e+02
1.000000e+02
1.000000e+02
1.000000e+02
1.000000e+02
1.000000e+02
1.000000e+02
1.000000e+02
1.000000e+02
1.000000e+02
1.000000e+02
1.000000e+02
1.000000e+02
1.000000e+02
1.000000e+02
1.000000e+02
1.000000e+02
1.000000e+02
1.000000e+02
1.000000e+02
1.000000e+02
1.000000e+02
1.000000e+02
1.000000e+02
1.000000e+02
0.000000e+00
-3.636995e-01
-6.564543e-01
-9.393917e-01
-1.227507e+00
-1.511982e+00
-1.793584e+00
-2.074225e+00
-2.353425e+00
-2.630317e+00
-2.904441e+00
-3.175332e+00
-3.442291e+00
-3.704437e+00
-3.960778e+00
-4.210253e+00
-4.451802e+00
-4.684463e+00
-4.907487e+00
-5.120434e+00
-5.323249e+00
-5.516327e+00
-5.700565e+00
-5.877439e+00
-6.049099e+00
-6.218526e+00
-6.389775e+00
-6.568392e+00
-6.762225e+00
-6.982038e+00
-7.236442e+00
-7.516197e+00
-7.680966e+00
0.000000e+00
-2.348331e-01
-4.880705e-01
-7.383244e-01
-9.927941e-01
-1.243538e+00
-1.490933e+00
-1.737047e+00
-1.981686e+00
-2.224135e+00
-2.464040e+00
-2.701061e+00
-2.934639e+00
-3.164038e+00
-3.388417e+00
-3.606859e+00
-3.818432e+00
-4.022262e+00
-4.217633e+00
-4.404053e+00
-4.581313e+00
-4.749513e+00
-4.909067e+00
-5.060700e+00
-5.205423e+00
-5.344477e+00
-5.479211e+00
-5.610752e+00
-5.738984e+00
-5.858976e+00
-5.953757e+00
-6.005456e+00
-6.074166e+00
0.000000e+00
-1.801260e-01
-3.732054e-01
-5.809303e-01
-7.956149e-01
-1.009267e+00
-1.221375e+00
-1.432655e+00
-1.642668e+00
-1.850814e+00
-2.056736e+00
-2.260071e+00
-2.460307e+00
-2.656813e+00
-2.848863e+00
-3.035668e+00
-3.216412e+00
-3.390308e+00
-3.556657e+00
-3.714897e+00
-3.864624e+00
-4.005591e+00
-4.137674e+00
-4.260805e+00
-4.374857e+00
-4.479455e+00
-4.573645e+00
-4.655287e+00
-4.719893e+00
-4.759107e+00
-4.764931e+00
-4.755672e+00
-4.831241e+00
0.000000e+00
-1.423759e-01
-2.945907e-01
-4.590524e-01
-6.318697e-01
-8.068270e-01
-9.825208e-01
-1.158233e+00
-1.333152e+00
-1.506670e+00
-1.678345e+00
-1.847743e+00
-2.014363e+00
-2.177645e+00
-2.336963e+00
-2.491641e+00
-2.640970e+00
-2.784240e+00
-2.920771e+00
-3.049934e+00
-3.171150e+00
-3.283873e+00
-3.387534e+00
-3.481458e+00
-3.564736e+00
-3.636043e+00
-3.693405e+00
-3.733962e+00
-3.754079e+00
-3.751352e+00
-3.733828e+00
-3.734292e+00
-3.806310e+00
0.000000e+00
-1.131751e-01
-2.321640e-01
-3.590935e-01
-4.922176e-01
-6.291722e-01
-7.680984e-01
-9.077124e-01
-1.047080e+00
-1.185540e+00
-1.322568e+00
-1.457685e+00
-1.590413e+00
-1.720251e+00
-1.846661e+00
-1.969065e+00
-2.086848e+00
-2.199367e+00
-2.305967e+00
-2.405976e+00
-2.498705e+00
-2.583416e+00
-2.659286e+00
-2.725341e+00
-2.780389e+00
-2.822961e+00
-2.851354e+00
-2.863967e+00
-2.860492e+00
-2.845265e+00
-2.833991e+00
-2.855487e+00
-2.922388e+00
0.000000e+00
-8.474510e-02
-1.732406e-01
-2.663355e-01
-3.638993e-01
-4.647658e-01
-5.677085e-01
-6.716039e-01
-7.755996e-01
-8.790577e-01
-9.814629e-01
-1.082362e+00
-1.181326e+00
-1.277924e+00
-1.371700e+00
-1.462164e+00
-1.548784e+00
-1.630989e+00
-1.708161e+00
-1.779637e+00
-1.844698e+00
-1.902557e+00
-1.952345e+00
-1.993096e+00
-2.023772e+00
-2.043361e+00
-2.051161e+00
-2.047460e+00
-2.034966e+00
-2.021286e+00
-2.021237e+00
-2.050480e+00
-2.111299e+00
0.000000e+00
-5.640971e-02
-1.151039e-01
-1.765627e-01
-2.407664e-01
-3.072316e-01
-3.752392e-01
-4.440622e-01
-5.130778e-01
-5.817864e-01
-6.497750e-01
-7.166803e-01
-7.821600e-01
-8.458693e-01
-9.074425e-01
-9.664795e-01
-1.022537e+00
-1.075120e+00
-1.123682e+00
-1.167618e+00
-1.206268e+00
-1.238920e+00
-1.264829e+00
-1.283263e+00
-1.293599e+00
-1.295531e+00
-1.289455e+00
-1.277153e+00
-1.262794e+00
-1.253965e+00
-1.260875e+00
-1.291407e+00
-1.343687e+00
0.000000e+00
-2.821477e-02
-5.754452e-02
-8.818653e-02
-1.201396e-01
-1.532039e-01
-1.870598e-01
-2.213503e-01
-2.557461e-01
-2.899644e-01
-3.237599e-01
-3.569069e-01
-3.891825e-01
-4.203505e-01
-4.501493e-01
-4.782803e-01
-5.044002e-01
-5.281151e-01
-5.489791e-01
-5.664970e-01
-5.801359e-01
-5.893495e-01
-5.936252e-01
-5.925664e-01
-5.860357e-01
-5.743865e-01
-5.588138e-01
-5.418184e-01
-5.276511e-01
-5.222661e-01
-5.319202e-01
-5.598229e-01
-6.026034e-01
0.000000e+00
-1.314983e-04
-2.691402e-04
-4.071963e-04
-5.389028e-04
-6.558892e-04
-7.470310e-04
-7.967920e-04
-7.831430e-04
-6.749682e-04
-4.288087e-04
1.518899e-05
7.381482e-04
1.848039e-03
3.485636e-03
5.830274e-03
9.104465e-03
1.357607e-02
1.955610e-02
2.738935e-02
3.743373e-02
5.002248e-02
6.540101e-02
8.362781e-02
1.044283e-01
1.269951e-01
1.497475e-01
1.701143e-01
1.845073e-01
1.887848e-01
1.795607e-01
1.562561e-01
1.227483e-01
0.000000e+00
2.795740e-02
5.701749e-02
8.738902e-02
1.190838e-01
1.519179e-01
1.855927e-01
2.197805e-01
2.541937e-01
2.886082e-01
3.228607e-01
3.568381e-01
3.904700e-01
4.237235e-01
4.566016e-01
4.891440e-01
5.214274e-01
5.535651e-01
5.857020e-01
6.180020e-01
6.506229e-01
6.836744e-01
7.171522e-01
7.508431e-01
7.842013e-01
8.162057e-01
8.452332e-01
8.690215e-01
8.848523e-01
8.901113e-01
8.833148e-01
8.653655e-01
8.403449e-01
0.000000e+00
5.616931e-02
1.146108e-01
1.758161e-01
2.397767e-01
3.060229e-01
3.738527e-01
4.425635e-01
5.115676e-01
5.804142e-01
6.487580e-01
7.163283e-01
7.829079e-01
8.483179e-01
9.124097e-01
9.750610e-01
1.036175e+00
1.095680e+00
1.153527e+00
1.209674e+00
1.264071e+00
1.316616e+00
1.367103e+00
1.415139e+00
1.460058e+00
1.500827e+00
1.536005e+00
1.563802e+00
1.582325e+00
1.590103e+00
1.586859e+00
1.574347e+00
1.556836e+00
0.000000e+00
8.453362e-02
1.728055e-01
2.656757e-01
3.630221e-01
4.636881e-01
5.664589e-01
6.702284e-01
7.741688e-01
8.776767e-01
9.802836e-01
1.081599e+00
1.181278e+00
1.278998e+00
1.374448e+00
1.467320e+00
1.557314e+00
1.644141e+00
1.727524e+00
1.807201e+00
1.882908e+00
1.954353e+00
2.021179e+00
2.082903e+00
2.138859e+00
2.188151e+00
2.229647e+00
2.262074e+00
2.284253e+00
2.295528e+00
2.296363e+00
2.288995e+00
2.277912e+00
0.000000e+00
1.130066e-01
2.318151e-01
3.585632e-01
4.915079e-01
6.282900e-01
7.670572e-01
9.065345e-01
1.045800e+00
1.184211e+00
1.321266e+00
1.456513e+00
1.589509e+00
1.719796e+00
1.846889e+00
1.970271e+00
2.089404e+00
2.203745e+00
2.312760e+00
2.415941e+00
2.512804e+00
2.602884e+00
2.685708e+00
2.760765e+00
2.827472e+00
2.885154e+00
2.933059e+00
2.970444e+00
2.996754e+00
3.011940e+00
3.016916e+00
3.014150e+00
3.008304e+00
0.000000e+00
1.422679e-01
2.943638e-01
4.587062e-01
6.314004e-01
8.062292e-01
9.817941e-01
1.157380e+00
1.332173e+00
1.505568e+00
1.677124e+00
1.846399e+00
2.012882e+00
2.175984e+00
2.335033e+00
2.489283e+00
2.637924e+00
2.780121e+00
2.915048e+00
3.041924e+00
3.160032e+00
3.268726e+00
3.367431e+00
3.455625e+00
3.532833e+00
3.598631e+00
3.652676e+00
3.694765e+00
3.724956e+00
3.743754e+00
3.752414e+00
3.753450e+00
3.751504e+00
0.000000e+00
1.800962e-01
3.731394e-01
5.808280e-01
7.954717e-01
1.009068e+00
1.221113e+00
1.432324e+00
1.642250e+00
1.850280e+00
2.056038e+00
2.259129e+00
2.458992e+00
2.654904e+00
2.846002e+00
3.031295e+00
3.209681e+00
3.380007e+00
3.541127e+00
3.691957e+00
3.831520e+00
3.958960e+00
4.073563e+00
4.174754e+00
4.262124e+00
4.335457e+00
4.394782e+00
4.440443e+00
4.473172e+00
4.494158e+00
4.505149e+00
4.508728e+00
4.509149e+00
0.000000e+00
2.348812e-01
4.881635e-01
7.384755e-01
9.930110e-01
1.243807e+00
1.491253e+00
1.737425e+00
1.982112e+00
2.224582e+00
2.464455e+00
2.701348e+00
2.934622e+00
3.163412e+00
3.386665e+00
3.603149e+00
3.811482e+00
4.010197e+00
4.197827e+00
4.372978e+00
4.534377e+00
4.680910e+00
4.811638e+00
4.925825e+00
5.022986e+00
5.102962e+00
5.166017e+00
5.212958e+00
5.245249e+00
5.265059e+00
5.275191e+00
5.278867e+00
5.279766e+00
0.000000e+00
3.637634e-01
6.566355e-01
9.397351e-01
1.228038e+00
1.512703e+00
1.794521e+00
2.075416e+00
2.354906e+00
2.632111e+00
2.906557e+00
3.177740e+00
3.444881e+00
3.706952e+00
3.962713e+00
4.210716e+00
4.449335e+00
4.676841e+00
4.891487e+00
5.091583e+00
5.275546e+00
5.441932e+00
5.589455e+00
5.717033e+00
5.823857e+00
5.909515e+00
5.974175e+00
6.018815e+00
6.045482e+00
6.057537e+00
6.059759e+00
6.057971e+00
6.056957e+00
0.000000e+00
-2.251072e-01
-4.087165e-01
-6.211475e-01
-8.610426e-01
-1.131013e+00
-1.434353e+00
-1.772151e+00
-2.144465e+00
-2.551393e+00
-2.992908e+00
-3.468710e+00
-3.978284e+00
-4.520949e+00
-5.095856e+00
-5.701990e+00
-6.338192e+00
-7.003188e+00
-7.695641e+00
-8.414202e+00
-9.157590e+00
-9.924693e+00
-1.071470e+01
-1.152731e+01
-1.236301e+01
-1.322353e+01
-1.411252e+01
-1.503676e+01
-1.600826e+01
-1.704907e+01
-1.820720e+01
-1.959895e+01
-2.149521e+01
0.000000e+00
-1.403432e-01
-3.318636e-01
-5.412342e-01
-7.806905e-01
-1.051501e+00
-1.355349e+00
-1.693454e+00
-2.066297e+00
-2.473952e+00
-2.916320e+00
-3.393136e+00
-3.903943e+00
-4.448103e+00
-5.024794e+00
-5.633015e+00
-6.271596e+00
-6.939228e+00
-7.634504e+00
-8.355990e+00
-9.102301e+00
-9.872209e+00
-1.066478e+01
-1.147959e+01
-1.231697e+01
-1.317850e+01
-1.406767e+01
-1.499114e+01
-1.596100e+01
-1.700029e+01
-1.815540e+01
-1.952031e+01
-2.128216e+01
0.000000e+00
-1.045235e-01
-2.717862e-01
-4.762781e-01
-7.132102e-01
-9.835229e-01
-1.287382e+00
-1.625636e+00
-1.998854e+00
-2.407107e+00
-2.850240e+00
-3.327987e+00
-3.839925e+00
-4.385443e+00
-4.963745e+00
-5.573842e+00
-6.214566e+00
-6.884588e+00
-7.582468e+00
-8.306722e+00
-9.055909e+00
-9.828747e+00
-1.062426e+01
-1.144198e+01
-1.228224e+01
-1.314664e+01
-1.403881e+01
-1.496567e+01
-1.593990e+01
-1.698390e+01
-1.813070e+01
-1.940752e+01
-2.079666e+01
0.000000e+00
-8.825187e-02
-2.360859e-01
-4.289870e-01
-6.608060e-01
-9.285379e-01
-1.231288e+00
-1.569184e+00
-1.942482e+00
-2.351133e+00
-2.794920e+00
-3.273535e+00
-3.786546e+00
-4.333351e+00
-4.913163e+00
-5.525009e+00
-6.167728e+00
-6.839996e+00
-7.540370e+00
-8.267355e+00
-9.019503e+00
-9.795526e+00
-1.059445e+01
-1.141583e+01
-1.226003e+01
-1.312866e+01
-1.402531e+01
-1.495657e+01
-1.593363e+01
-1.697274e+01
-1.808362e+01
-1.924257e+01
-2.031655e+01
0.000000e+00
-8.076764e-02
-2.157361e-01
-3.981977e-01
-6.230505e-01
-8.867545e-01
-1.187379e+00
-1.524326e+00
-1.897348e+00
-2.306176e+00
-2.750483e+00
-3.229886e+00
-3.743909e+00
-4.291932e+00
-4.873172e+00
-5.486665e+00
-6.131269e+00
-6.805677e+00
-7.508468e+00
-8.238166e+00
-8.993337e+00
-9.772706e+00
-1.057530e+01
-1.140065e+01
-1.224905e+01
-1.312188e+01
-1.402209e+01
-1.495467e+01
-1.592682e+01
-1.694498e+01
-1.800074e+01
-1.904515e+01
-1.998240e+01
0.000000e+00
-7.591351e-02
-2.033465e-01
-3.783327e-01
-5.971938e-01
-8.567495e-01
-1.154952e+00
-1.490651e+00
-1.863177e+00
-2.272025e+00
-2.716733e+00
-3.196828e+00
-3.711775e+00
-4.260928e+00
-4.843499e+00
-5.458535e+00
-6.104913e+00
-6.781356e+00
-7.486470e+00
-8.218805e+00
-8.976938e+00
-9.759585e+00
-1.056572e+01
-1.139475e+01
-1.224667e+01
-1.312227e+01
-1.402323e+01
-1.495200e+01
-1.591065e+01
-1.689677e+01
-1.789181e+01
-1.885119e+01
-1.971112e+01
0.000000e+00
-7.268611e-02
-1.955999e-01
-3.658058e-01
-5.803967e-01
-8.367479e-01
-1.132873e+00
-1.467414e+00
-1.839438e+00
-2.248254e+00
-2.693281e+00
-3.173965e+00
-3.689722e+00
-4.239885e+00
-4.823659e+00
-5.440103e+00
-6.088117e+00
-6.766449e+00
-7.473730e+00
-8.208519e+00
-8.969382e+00
-9.754971e+00
-1.056413e+01
-1.139598e+01
-1.225004e+01
-1.312618e+01
-1.402450e+01
-1.494466e+01
-1.588429e+01
-1.683526e+01
-1.777720e+01
-1.867498e+01
-1.948561e+01
0.000000e+00
-7.085376e-02
-1.912722e-01
-3.588036e-01
-5.709258e-01
-8.253255e-01
-1.120124e+00
-1.453898e+00
-1.825598e+00
-2.234426e+00
-2.679725e+00
-3.160894e+00
-3.677322e+00
-4.228331e+00
-4.813133e+00
-5.430802e+00
-6.080255e+00
-6.760260e+00
-7.469456e+00
-8.206390e+00
-8.969570e+00
-9.757530e+00
-1.056889e+01
-1.140239e+01
-1.225690e+01
-1.313128e+01
-1.402403e+01
-1.493250e+01
-1.585137e+01
-1.677016e+01
-1.767016e+01
-1.852463e+01
-1.930379e+01
0.000000e+00
-7.025343e-02
-1.898679e-01
-3.565441e-01
-5.678777e-01
-8.216553e-01
-1.116041e+00
-1.449606e+00
-1.821273e+00
-2.230215e+00
-2.675760e+00
-3.157300e+00
-3.674229e+00
-4.225878e+00
-4.811479e+00
-5.430122e+00
-6.080743e+00
-6.762117e+00
-7.472873e+00
-8.211512e+00
-8.976450e+00
-9.766049e+00
-1.057864e+01
-1.141252e+01
-1.226588e+01
-1.313661e+01
-1.402188e+01
-1.491747e+01
-1.581658e+01
-1.670844e+01
-1.757707e+01
-1.840215e+01
-1.916208e+01
0.000000e+00
-7.082985e-02
-1.912467e-01
-3.588021e-01
-5.709779e-01
-8.254654e-01
-1.120393e+00
-1.454351e+00
-1.826304e+00
-2.235474e+00
-2.681232e+00
-3.163010e+00
-3.680235e+00
-4.232275e+00
-4.818387e+00
-5.437689e+00
-6.089127e+00
-6.771475e+00
-7.483331e+00
-8.223131e+00
-8.989166e+00
-9.779593e+00
-1.059243e+01
-1.142553e+01
-1.227645e+01
-1.314225e+01
-1.401918e+01
-1.490210e+01
-1.578379e+01
-1.665420e+01
-1.750016e+01
-1.830609e+01
-1.905575e+01
0.000000e+00
-7.263698e-02
-1.955466e-01
-3.657990e-01
-5.804931e-01
-8.370135e-01
-1.133389e+00
-1.468281e+00
-1.840790e+00
-2.250263e+00
-2.696169e+00
-3.178020e+00
-3.695305e+00
-4.247443e+00
-4.833731e+00
-5.453310e+00
-6.105140e+00
-6.787981e+00
-7.500389e+00
-8.240718e+00
-9.007125e+00
-9.797557e+00
-1.060974e+01
-1.144109e+01
-1.228865e+01
-1.314888e+01
-1.401741e+01
-1.488870e+01
-1.575569e+01
-1.660951e+01
-1.743950e+01
-1.823380e+01
-1.898006e+01
0.000000e+00
-7.583703e-02
-2.032619e-01
-3.783137e-01
-5.973208e-01
-8.571146e-01
-1.155668e+00
-1.491860e+00
-1.865065e+00
-2.274833e+00
-2.720770e+00
-3.202495e+00
-3.719577e+00
-4.271491e+00
-4.857578e+00
-5.477004e+00
-6.128733e+00
-6.811509e+00
-7.523842e+00
-8.264004e+00
-9.030019e+00
-9.819648e+00
-1.063035e+01
-1.145922e+01
-1.230287e+01
-1.315736e+01
-1.401795e+01
-1.487902e+01
-1.573394e+01
-1.657509e+01
-1.739409e+01
-1.818217e+01
-1.893038e+01
0.000000e+00
-8.066252e-02
-2.156184e-01
-3.981601e-01
-6.231914e-01
-8.871852e-01
-1.188235e+00
-1.525781e+00
-1.899627e+00
-2.309568e+00
-2.755363e+00
-3.236736e+00
-3.753339e+00
-4.304698e+00
-4.890188e+00
-5.508992e+00
-6.160077e+00
-6.842166e+00
-7.553727e+00
-8.292962e+00
-9.057789e+00
-9.845819e+00
-1.065431e+01
-1.148012e+01
-1.231957e+01
-1.316844e+01
-1.402182e+01
-1.487417e+01
-1.571933e+01
-1.655086e+01
-1.736235e+01
-1.814787e+01
-1.890192e+01
0.000000e+00
-8.812196e-02
-2.359411e-01
-4.289304e-01
-6.609474e-01
-9.290013e-01
-1.232223e+00
-1.570784e+00
-1.944996e+00
-2.354881e+00
-2.800315e+00
-3.281109e+00
-3.796969e+00
-4.347455e+00
-4.931954e+00
-5.549655e+00
-6.199516e+00
-6.880244e+00
-7.590276e+00
-8.327765e+00
-9.090563e+00
-9.876188e+00
-1.068178e+01
-1.150402e+01
-1.233908e+01
-1.318260e+01
-1.402959e+01
-1.487461e+01
-1.571197e+01
-1.653614e+01
-1.734238e+01
-1.812739e+01
-1.888949e+01
0.000000e+00
-1.043878e-01
-2.716343e-01
-4.762137e-01
-7.133496e-01
-9.839978e-01
-1.288350e+00
-1.627299e+00
-2.001473e+00
-2.411016e+00
-2.855868e+00
-3.335882e+00
-3.850779e+00
-4.400112e+00
-4.983255e+00
-5.599381e+00
-6.247433e+00
-6.926103e+00
-7.633811e+00
-8.368695e+00
-9.128583e+00
-9.910958e+00
-1.071291e+01
-1.153106e+01
-1.236153e+01
-1.319988e+01
-1.404117e+01
-1.488007e+01
-1.571120e+01
-1.652970e+01
-1.733202e+01
-1.811709e+01
-1.888729e+01
0.000000e+00
-1.402285e-01
-3.317266e-01
-5.411813e-01
-7.808406e-01
-1.051990e+00
-1.356338e+00
-1.695148e+00
-2.068959e+00
-2.477916e+00
-2.922015e+00
-3.401106e+00
-3.914870e+00
-4.462819e+00
-5.044286e+00
-5.658408e+00
-6.304099e+00
-6.980037e+00
-7.684643e+00
-8.416066e+00
-9.172148e+00
-9.950391e+00
-1.074789e+01
-1.156130e+01
-1.238675e+01
-1.321986e+01
-1.405576e+01
-1.488930e+01
-1.571535e+01
-1.652941e+01
-1.732865e+01
-1.811336e+01
-1.888911e+01
0.000000e+00
-2.250235e-01
-4.086122e-01
-6.211325e-01
-8.612317e-01
-1.131542e+00
-1.435390e+00
-1.773901e+00
-2.147188e+00
-2.555420e+00
-2.998661e+00
-3.476719e+00
-3.989201e+00
-4.535557e+00
-5.115062e+00
-5.726798e+00
-6.369643e+00
-7.042255e+00
-7.743064e+00
-8.470241e+00
-9.221667e+00
-9.994880e+00
-1.078703e+01