TITLE = "Solution"
VARIABLES = x, y, u, v, psiu, psiv, t, stress
ZONE T="structure" N=153 E=128 F=FEBLOCK ET=QUADRILATERAL VARLOCATION=([7,8]=cellcentered)
0.000000e+00
1.250000e+01
2.500000e+01
3.750000e+01
5.000000e+01
6.250000e+01
7.500000e+01
8.750000e+01
1.000000e+02
1.125000e+02
1.250000e+02
1.375000e+02
1.500000e+02
1.625000e+02
1.750000e+02
1.875000e+02
2.000000e+02
0.000000e+00
1.250000e+01
2.500000e+01
3.750000e+01
5.000000e+01
6.250000e+01
7.500000e+01
8.750000e+01
1.000000e+02
1.125000e+02
1.250000e+02
1.375000e+02
1.500000e+02
1.625000e+02
1.750000e+02
1.875000e+02
2.000000e+02
0.000000e+00
1.250000e+01
2.500000e+01
3.750000e+01
5.000000e+01
6.250000e+01
7.500000e+01
8.750000e+01
1.000000e+02
1.125000e+02
1.250000e+02
1.375000e+02
1.500000e+02
1.625000e+02
1.750000e+02
1.875000e+02
2.000000e+02
0.000000e+00
1.250000e+01
2.500000e+01
3.750000e+01
5.000000e+01
6.250000e+01
7.500000e+01
8.750000e+01
1.000000e+02
1.125000e+02
1.250000e+02
1.375000e+02
1.500000e+02
1.625000e+02
1.750000e+02
1.875000e+02
2.000000e+02
0.000000e+00
1.250000e+01
2.500000e+01
3.750000e+01
5.000000e+01
6.250000e+01
7.500000e+01
8.750000e+01
1.000000e+02
1.125000e+02
1.250000e+02
1.375000e+02
1.500000e+02
1.625000e+02
1.750000e+02
1.875000e+02
2.000000e+02
0.000000e+00
1.250000e+01
2.500000e+01
3.750000e+01
5.000000e+01
6.250000e+01
7.500000e+01
8.750000e+01
1.000000e+02
1.125000e+02
1.250000e+02
1.375000e+02
1.500000e+02
1.625000e+02
1.750000e+02
1.875000e+02
2.000000e+02
0.000000e+00
1.250000e+01
2.500000e+01
3.750000e+01
5.000000e+01
6.250000e+01
7.500000e+01
8.750000e+01
1.000000e+02
1.125000e+02
1.250000e+02
1.375000e+02
1.500000e+02
1.625000e+02
1.750000e+02
1.875000e+02
2.000000e+02
0.000000e+00
1.250000e+01
2.500000e+01
3.750000e+01
5.000000e+01
6.250000e+01
7.500000e+01
8.750000e+01
1.000000e+02
1.125000e+02
1.250000e+02
1.375000e+02
1.500000e+02
1.625000e+02
1.750000e+02
1.875000e+02
2.000000e+02
0.000000e+00
1.250000e+01
2.500000e+01
3.750000e+01
5.000000e+01
6.250000e+01
7.500000e+01
8.750000e+01
1.000000e+02
1.125000e+02
1.250000e+02
1.375000e+02
1.500000e+02
1.625000e+02
1.750000e+02
1.875000e+02
2.000000e+02
0.000000e+00
0.000000e+00
0.000000e+00
0.000000e+00
0.000000e+00
0.000000e+00
0.000000e+00
0.000000e+00
0.000000e+00
0.000000e+00
0.000000e+00
0.000000e+00
0.000000e+00
0.000000e+00
0.000000e+00
0.000000e+00
0.000000e+00
1.250000e+01
1.250000e+01
1.250000e+01
1.250000e+01
1.250000e+01
1.250000e+01
1.250000e+01
1.250000e+01
1.250000e+01
1.250000e+01
1.250000e+01
1.250000e+01
1.250000e+01
1.250000e+01
1.250000e+01
1.250000e+01
1.250000e+01
2.500000e+01
2.500000e+01
2.500000e+01
2.500000e+01
2.500000e+01
2.500000e+01
2.500000e+01
2.500000e+01
2.500000e+01
2.500000e+01
2.500000e+01
2.500000e+01
2.500000e+01
2.500000e+01
2.500000e+01
2.500000e+01
2.500000e+01
3.750000e+01
3.750000e+01
3.750000e+01
3.750000e+01
3.750000e+01
3.750000e+01
3.750000e+01
3.750000e+01
3.750000e+01
3.750000e+01
3.750000e+01
3.750000e+01
3.750000e+01
3.750000e+01
3.750000e+01
3.750000e+01
3.750000e+01
5.000000e+01
5.000000e+01
5.000000e+01
5.000000e+01
5.000000e+01
5.000000e+01
5.000000e+01
5.000000e+01
5.000000e+01
5.000000e+01
5.000000e+01
5.000000e+01
5.000000e+01
5.000000e+01
5.000000e+01
5.000000e+01
5.000000e+01
6.250000e+01
6.250000e+01
6.250000e+01
6.250000e+01
6.250000e+01
6.250000e+01
6.250000e+01
6.250000e+01
6.250000e+01
6.250000e+01
6.250000e+01
6.250000e+01
6.250000e+01
6.250000e+01
6.250000e+01
6.250000e+01
6.250000e+01
7.500000e+01
7.500000e+01
7.500000e+01
7.500000e+01
7.500000e+01
7.500000e+01
7.500000e+01
7.500000e+01
7.500000e+01
7.500000e+01
7.500000e+01
7.500000e+01
7.500000e+01
7.500000e+01
7.500000e+01
7.500000e+01
7.500000e+01
8.750000e+01
8.750000e+01
8.750000e+01
8.750000e+01
8.750000e+01
8.750000e+01
8.750000e+01
8.750000e+01
8.750000e+01
8.750000e+01
8.750000e+01
8.750000e+01
8.750000e+01
8.750000e+01
8.750000e+01
8.750000e+01
8.750000e+01
1.000000e+02
1.000000e+02
1.000000e+02
1.000000e+02
1.000000e+02
1.000000e+02
1.000000e+02
1.000000e+02
1.000000e+02
1.000000e+02
1.000000e+02
1.000000e+02
1.000000e+02
1.000000e+02
1.000000e+02
1.000000e+02
1.000000e+02
0.000000e+00
-9.254338e-02
-1.704018e-01
-2.420422e-01
-3.087605e-01
-3.704156e-01
-4.268750e-01
-4.780947e-01
-5.241491e-01
-5.652502e-01
-6.018052e-01
-6.345287e-01
-6.646496e-01
-6.942912e-01
-7.271155e-01
-7.674278e-01
-7.976778e-01
0.000000e+00
-5.526486e-02
-1.148022e-01
-1.697818e-01
-2.204357e-01
-2.669562e-01
-3.094397e-01
-3.479429e-01
-3.825351e-01
-4.133227e-01
-4.404620e-01
-4.641485e-01
-4.845332e-01
-5.014063e-01
-5.133079e-01
-5.159165e-01
-5.252691e-01
0.000000e+00
-3.456087e-02
-7.106600e-02
-1.074858e-01
-1.414830e-01
-1.726977e-01
-2.011043e-01
-2.267349e-01
-2.495957e-01
-2.696485e-01
-2.867854e-01
-3.007668e-01
-3.110944e-01
-3.168595e-01
-3.170195e-01
-3.147165e-01
-3.242553e-01
0.000000e+00
-1.668116e-02
-3.434053e-02
-5.211168e-02
-6.910437e-02
-8.475591e-02
-9.894267e-02
-1.116233e-01
-1.227251e-01
-1.321036e-01
-1.395190e-01
-1.446214e-01
-1.469930e-01
-1.464389e-01
-1.441625e-01
-1.447850e-01
-1.518877e-01
0.000000e+00
-1.536840e-05
-3.493735e-05
-5.444236e-05
-6.479487e-05
-4.572762e-05
4.298754e-05
2.735353e-04
7.643445e-04
1.691822e-03
3.286117e-03
5.778433e-03
9.231247e-03
1.313311e-02
1.582840e-02
1.508918e-02
1.038659e-02
0.000000e+00
1.665751e-02
3.428563e-02
5.202386e-02
6.899515e-02
8.466707e-02
9.897712e-02
1.119952e-01
1.238342e-01
1.346314e-01
1.445279e-01
1.535967e-01
1.616805e-01
1.681628e-01
1.719760e-01
1.722785e-01
1.698916e-01
0.000000e+00
3.455699e-02
7.105418e-02
1.074622e-01
1.414463e-01
1.726519e-01
2.010664e-01
2.267472e-01
2.497476e-01
2.701084e-01
2.878472e-01
3.029207e-01
3.151554e-01
3.242010e-01
3.296303e-01
3.313932e-01
3.308366e-01
0.000000e+00
5.528753e-02
1.148515e-01
1.698604e-01
2.205411e-01
2.670691e-01
3.095030e-01
3.478271e-01
3.819829e-01
4.118716e-01
4.373513e-01
4.582458e-01
4.743878e-01
4.857240e-01
4.924863e-01
4.953700e-01
4.958997e-01
0.000000e+00
9.258130e-02
1.705018e-01
2.422296e-01
3.090598e-01
3.708366e-01
4.273772e-01
4.785170e-01
5.240848e-01
5.638438e-01
5.974489e-01
6.244521e-01
6.444098e-01
6.571650e-01
6.633335e-01
6.648561e-01
6.648268e-01
0.000000e+00
-5.601922e-02
-1.099729e-01
-1.798845e-01
-2.656868e-01
-3.672192e-01
-4.833699e-01
-6.128392e-01
-7.542504e-01
-9.062453e-01
-1.067569e+00
-1.237222e+00
-1.414797e+00
-1.601240e+00
-1.801390e+00
-2.030399e+00
-2.359449e+00
0.000000e+00
-3.448652e-02
-9.076898e-02
-1.615473e-01
-2.487516e-01
-3.516694e-01
-4.692271e-01
-6.000932e-01
-7.428750e-01
-8.961896e-01
-1.058747e+00
-1.229504e+00
-1.407987e+00
-1.595119e+00
-1.795191e+00
-2.022811e+00
-2.301670e+00
0.000000e+00
-2.602329e-02
-7.745590e-02
-1.484953e-01
-2.365239e-01
-3.405009e-01
-4.591391e-01
-5.910940e-01
-7.349825e-01
-8.894413e-01
-1.053206e+00
-1.225267e+00
-1.405198e+00
-1.593770e+00
-1.794014e+00
-2.009691e+00
-2.218420e+00
0.000000e+00
-2.242525e-02
-7.083679e-02
-1.408342e-01
-2.291809e-01
-3.337978e-01
-4.531756e-01
-5.859186e-01
-7.306699e-01
-8.861030e-01
-1.050981e+00
-1.224275e+00
-1.405354e+00
-1.594134e+00
-1.790372e+00
-1.988548e+00
-2.171113e+00
0.000000e+00
-2.138877e-02
-6.883357e-02
-1.383903e-01
-2.267610e-01
-3.316382e-01
-4.513592e-01
-5.845296e-01
-7.298181e-01
-8.859201e-01
-1.051571e+00
-1.225579e+00
-1.406820e+00
-1.593957e+00
-1.784188e+00
-1.971009e+00
-2.143116e+00
0.000000e+00
-2.241194e-02
-7.082732e-02
-1.408511e-01
-2.292637e-01
-3.340160e-01
-4.536422e-01
-5.868025e-01
-7.321937e-01
-8.885048e-01
-1.054389e+00
-1.228405e+00
-1.408870e+00
-1.593487e+00
-1.778710e+00
-1.959124e+00
-2.127557e+00
0.000000e+00
-2.600157e-02
-7.744020e-02
-1.485234e-01
-2.366634e-01
-3.408700e-01
-4.599303e-01
-5.925947e-01
-7.375734e-01
-8.935327e-01
-1.059035e+00
-1.232418e+00
-1.411592e+00
-1.593790e+00
-1.775422e+00
-1.952373e+00
-2.120695e+00
0.000000e+00
-3.446616e-02
-9.075531e-02
-1.615847e-01
-2.489192e-01
-3.521034e-01
-4.701481e-01
-6.018278e-01
-7.458512e-01
-9.008604e-01
-1.065359e+00
-1.237566e+00
-1.415213e+00
-1.595383e+00
-1.774598e+00
-1.949582e+00
-2.119084e+00
0.000000e+00
-5.601081e-02
-1.099741e-01
-1.799424e-01
-2.658810e-01
-3.676830e-01
-4.843123e-01
-6.145587e-01
-7.571171e-01
-9.106059e-01
-1.073493e+00
-1.243956e+00
-1.419715e+00
-1.597913e+00
-1.775298e+00
-1.949071e+00
-2.119109e+00


0.000000e+00
-1.339848e-08
-2.673971e-08
-3.920713e-08
-5.104716e-08
-6.218967e-08
-7.256340e-08
-8.213342e-08
-9.088651e-08
-9.882904e-08
-1.059862e-07
-1.123925e-07
-1.180593e-07
-1.229183e-07
-1.268844e-07
-1.302390e-07
-1.331892e-07
0.000000e+00
-7.338786e-09
-1.794587e-08
-2.761435e-08
-3.662402e-08
-4.506174e-08
-5.288923e-08
-6.007613e-08
-6.660046e-08
-7.244213e-08
-7.757756e-08
-8.197317e-08
-8.559254e-08
-8.849929e-08
-9.115123e-08
-9.424438e-08
-9.738379e-08
0.000000e+00
-4.494598e-09
-1.117434e-08
-1.754592e-08
-2.359494e-08
-2.925898e-08
-3.448846e-08
-3.925151e-08
-4.351902e-08
-4.725827e-08
-5.043253e-08
-5.301414e-08
-5.503372e-08
-5.668654e-08
-5.841707e-08
-6.071325e-08
-6.333720e-08
0.000000e+00
-2.156350e-09
-5.321178e-09
-8.432821e-09
-1.145131e-08
-1.427778e-08
-1.686645e-08
-1.919054e-08
-2.122388e-08
-2.293868e-08
-2.431170e-08
-2.534396e-08
-2.609780e-08
-2.674161e-08
-2.756162e-08
-2.889816e-08
-3.072870e-08
0.000000e+00
-3.219975e-12
-4.528906e-12
-6.272226e-13
1.297779e-11
4.348078e-11
1.014658e-10
2.010711e-10
3.587807e-10
5.894745e-10
8.976713e-10
1.262792e-09
1.621600e-09
1.855446e-09
1.777017e-09
1.148410e-09
-6.347831e-11
0.000000e+00
2.150416e-09
5.312394e-09
8.429607e-09
1.146951e-08
1.434536e-08
1.702951e-08
1.951975e-08
2.181923e-08
2.392787e-08
2.583397e-08
2.750528e-08
2.888316e-08
2.988217e-08
3.039698e-08
3.030406e-08
2.963592e-08
0.000000e+00
4.490954e-09
1.116841e-08
1.754090e-08
2.359706e-08
2.928030e-08
3.455017e-08
3.938788e-08
4.378087e-08
4.771398e-08
5.116206e-08
5.408402e-08
5.642133e-08
5.810892e-08
5.911134e-08
5.944507e-08
5.924756e-08
0.000000e+00
7.341869e-09
1.795154e-08
2.761885e-08
3.662112e-08
4.504095e-08
5.283345e-08
5.995907e-08
6.638409e-08
7.207504e-08
7.699620e-08
8.110792e-08
8.436713e-08
8.673801e-08
8.823184e-08
8.896703e-08
8.914557e-08
0.000000e+00
1.341556e-08
2.677008e-08
3.924483e-08
5.107945e-08
6.218988e-08
7.248077e-08
8.187993e-08
9.032123e-08
9.774277e-08
1.040917e-07
1.093318e-07
1.134508e-07
1.164663e-07
1.184380e-07
1.194616e-07
1.197922e-07
0.000000e+00
-1.212373e-08
-2.388543e-08
-3.717202e-08
-5.300921e-08
-7.156071e-08
-9.272953e-08
-1.163487e-07
-1.422167e-07
-1.701312e-07
-1.999153e-07
-2.314622e-07
-2.648489e-07
-3.005760e-07
-3.395198e-07
-3.808902e-07
-4.218737e-07
0.000000e+00
-7.435943e-09
-1.886071e-08
-3.217528e-08
-4.823430e-08
-6.708291e-08
-8.859264e-08
-1.125718e-07
-1.388114e-07
-1.671040e-07
-1.972674e-07
-2.291832e-07
-2.628620e-07
-2.985235e-07
-3.365079e-07
-3.768363e-07
-4.172894e-07
0.000000e+00
-4.853948e-09
-1.482019e-08
-2.804867e-08
-4.426763e-08
-6.337864e-08
-8.519236e-08
-1.094987e-07
-1.360827e-07
-1.647340e-07
-1.952612e-07
-2.275110e-07
-2.613757e-07
-2.967524e-07
-3.335753e-07
-3.724208e-07
-4.115538e-07
0.000000e+00
-3.627575e-09
-1.266336e-08
-2.561269e-08
-4.189976e-08
-6.117977e-08
-8.319976e-08
-1.077335e-07
-1.345609e-07
-1.634657e-07
-1.942381e-07
-2.266722e-07
-2.605445e-07
-2.955726e-07
-3.315237e-07
-3.688389e-07
-4.059785e-07
0.000000e+00
-3.269294e-09
-1.200110e-08
-2.482410e-08
-4.112894e-08
-6.048087e-08
-8.259454e-08
-1.072366e-07
-1.341829e-07
-1.632076e-07
-1.940769e-07
-2.265362e-07
-2.602856e-07
-2.949477e-07
-3.301433e-07
-3.660704e-07
-4.012404e-07
0.000000e+00
-3.630385e-09
-1.267462e-08
-2.564102e-08
-4.195639e-08
-6.127986e-08
-8.336209e-08
-1.079777e-07
-1.349006e-07
-1.638937e-07
-1.947007e-07
-2.270322e-07
-2.605436e-07
-2.948028e-07
-3.293352e-07
-3.640925e-07
-3.978191e-07
0.000000e+00
-4.858486e-09
-1.483978e-08
-2.809819e-08
-4.436668e-08
-6.355397e-08
-8.547711e-08
-1.099277e-07
-1.366798e-07
-1.654868e-07
-1.960741e-07
-2.281287e-07
-2.612818e-07
-2.950820e-07
-3.290243e-07
-3.629016e-07
-3.957211e-07
0.000000e+00
-7.441644e-09
-1.888527e-08
-3.223577e-08
-4.835449e-08
-6.729493e-08
-8.893600e-08
-1.130870e-07
-1.395243e-07
-1.679938e-07
-1.982073e-07
-2.298354e-07
-2.624968e-07
-2.957496e-07
-3.291311e-07
-3.623651e-07
-3.947132e-07
0.000000e+00
-1.213321e-08
-2.391376e-08
-3.723668e-08
-5.313363e-08
-7.177566e-08
-9.307121e-08
-1.168511e-07
-1.428936e-07
-1.709416e-07
-2.007008e-07
-2.318340e-07
-2.639582e-07
-2.966513e-07
-3.295091e-07
-3.622772e-07
-3.944172e-07


2.703982e-01
2.703989e-01
2.704025e-01
2.704076e-01
2.704119e-01
2.704156e-01
2.704188e-01
2.704216e-01
2.704240e-01
2.704261e-01
2.704277e-01
2.704290e-01
2.704299e-01
2.704303e-01
2.704303e-01
2.704302e-01
2.704053e-01
2.704055e-01
2.704080e-01
2.704119e-01
2.704152e-01
2.704181e-01
2.704207e-01
2.704230e-01
2.704250e-01
2.704267e-01
2.704280e-01
2.704291e-01
2.704299e-01
2.704302e-01
2.704302e-01
2.704301e-01
2.704166e-01
2.704163e-01
2.704173e-01
2.704192e-01
2.704210e-01
2.704226e-01
2.704241e-01
2.704255e-01
2.704267e-01
2.704277e-01
2.704286e-01
2.704293e-01
2.704298e-01
2.704301e-01
2.704301e-01
2.704301e-01
2.704244e-01
2.704239e-01
2.704239e-01
2.704244e-01
2.704251e-01
2.704258e-01
2.704265e-01
2.704272e-01
2.704278e-01
2.704284e-01
2.704289e-01
2.704293e-01
2.704297e-01
2.704300e-01
2.704302e-01
2.704304e-01
2.704244e-01
2.704239e-01
2.704239e-01
2.704244e-01
2.704250e-01
2.704258e-01
2.704265e-01
2.704271e-01
2.704277e-01
2.704282e-01
2.704287e-01
2.704291e-01
2.704296e-01
2.704300e-01
2.704305e-01
2.704308e-01
2.704166e-01
2.704163e-01
2.704173e-01
2.704192e-01
2.704209e-01
2.704226e-01
2.704241e-01
2.704254e-01
2.704265e-01
2.704275e-01
2.704283e-01
2.704290e-01
2.704297e-01
2.704303e-01
2.704308e-01
2.704311e-01
2.704053e-01
2.704055e-01
2.704080e-01
2.704119e-01
2.704152e-01
2.704181e-01
2.704207e-01
2.704230e-01
2.704249e-01
2.704265e-01
2.704279e-01
2.704290e-01
2.704299e-01
2.704306e-01
2.704311e-01
2.704314e-01
2.703982e-01
2.703989e-01
2.704025e-01
2.704076e-01
2.704119e-01
2.704156e-01
2.704188e-01
2.704216e-01
2.704241e-01
2.704261e-01
2.704278e-01
2.704291e-01
2.704301e-01
2.704309e-01
2.704313e-01
2.704315e-01


9.807319e-01
9.834642e-01
9.859916e-01
9.879370e-01
9.897429e-01
9.914083e-01
9.929255e-01
9.942769e-01
9.954483e-01
9.964280e-01
9.972070e-01
9.977777e-01
9.981325e-01
9.982590e-01
9.983504e-01
9.927182e-01
9.927106e-01
9.914584e-01
9.922638e-01
9.933150e-01
9.942952e-01
9.951861e-01
9.959926e-01
9.967232e-01
9.973846e-01
9.979838e-01
9.985275e-01
9.990198e-01
9.994494e-01
9.997306e-01
9.990193e-01
9.893783e-01
9.974672e-01
9.967480e-01
9.965538e-01
9.968268e-01
9.971860e-01
9.975340e-01
9.978571e-01
9.981623e-01
9.984581e-01
9.987464e-01
9.990157e-01
9.992242e-01
9.992678e-01
9.988923e-01
9.975300e-01
9.950799e-01
9.994845e-01
9.989600e-01
9.986359e-01
9.985537e-01
9.985865e-01
9.986416e-01
9.986965e-01
9.987503e-01
9.988030e-01
9.988472e-01
9.988594e-01
9.987938e-01
9.985855e-01
9.982116e-01
9.978946e-01
9.978143e-01
9.994864e-01
9.989627e-01
9.986384e-01
9.985532e-01
9.985783e-01
9.986180e-01
9.986456e-01
9.986548e-01
9.986422e-01
9.986015e-01
9.985259e-01
9.984169e-01
9.983131e-01
9.983337e-01
9.986271e-01
9.991350e-01
9.974709e-01
9.967535e-01
9.965591e-01
9.968269e-01
9.971721e-01
9.974909e-01
9.977607e-01
9.979775e-01
9.981399e-01
9.982493e-01
9.983184e-01
9.983861e-01
9.985281e-01
9.988259e-01
9.992732e-01
9.997357e-01
9.927099e-01
9.914579e-01
9.922627e-01
9.933120e-01
9.942875e-01
9.951686e-01
9.959563e-01
9.966538e-01
9.972616e-01
9.977812e-01
9.982210e-01
9.986052e-01
9.989751e-01
9.993630e-01
9.997256e-01
9.999541e-01
9.807188e-01
9.834436e-01
9.859663e-01
9.879087e-01
9.897175e-01
9.913990e-01
9.929569e-01
9.943874e-01
9.956909e-01
9.968648e-01
9.978951e-01
9.987498e-01
9.993857e-01
9.997780e-01
9.999565e-01
9.999991e-01
1 2 19 18
2 3 20 19
3 4 21 20
4 5 22 21
5 6 23 22
6 7 24 23
7 8 25 24
8 9 26 25
9 10 27 26
10 11 28 27
11 12 29 28
12 13 30 29
13 14 31 30
14 15 32 31
15 16 33 32
16 17 34 33
18 19 36 35
19 20 37 36
20 21 38 37
21 22 39 38
22 23 40 39
23 24 41 40
24 25 42 41
25 26 43 42
26 27 44 43
27 28 45 44
28 29 46 45
29 30 47 46
30 31 48 47
31 32 49 48
32 33 50 49
33 34 51 50
35 36 53 52
36 37 54 53
37 38 55 54
38 39 56 55
39 40 57 56
40 41 58 57
41 42 59 58
42 43 60 59
43 44 61 60
44 45 62 61
45 46 63 62
46 47 64 63
47 48 65 64
48 49 66 65
49 50 67 66
50 51 68 67
52 53 70 69
53 54 71 70
54 55 72 71
55 56 73 72
56 57 74 73
57 58 75 74
58 59 76 75
59 60 77 76
60 61 78 77
61 62 79 78
62 63 80 79
63 64 81 80
64 65 82 81
65 66 83 82
66 67 84 83
67 68 85 84
69 70 87 86
70 71 88 87
71 72 89 88
72 73 90 89
73 74 91 90
74 75 92 91
75 76 93 92
76 77 94 93
77 78 95 94
78 79 96 95
79 80 97 96
80 81 98 97
81 82 99 98
82 83 100 99
83 84 101 100
84 85 102 101
86 87 104 103
87 88 105 104
88 89 106 105
89 90 107 106
90 91 108 107
91 92 109 108
92 93 110 109
93 94 111 110
94 95 112 111
95 96 113 112
96 97 114 113
97 98 115 114
98 99 116 115
99 100 117 116
100 101 118 117
101 102 119 118
103 104 121 120
104 105 122 121
105 106 123 122
106 107 124 123
107 108 125 124
108 109 126 125
109 110 127 126
110 111 128 127
111 112 129 128
112 113 130 129
113 114 131 130
114 115 132 131
115 116 133 132
116 117 134 133
117 118 135 134
118 119 136 135
120 121 138 137
121 122 139 138
122 123 140 139
123 124 141 140
124 125 142 141
125 126 143 142
126 127 144 143
127 128 145 144
128 129 146 145
129 130 147 146
130 131 148 147
131 132 149 148
132 133 150 149
133 134 151 150
134 135 152 151
135 136 153 152
