TITLE = "Solution"
VARIABLES = x, y, u, v, psiu, psiv, t, stress
ZONE T="structure" N=153 E=128 F=FEBLOCK ET=QUADRILATERAL VARLOCATION=([7,8]=cellcentered)
0.000000e+00
1.250000e+01
2.500000e+01
3.750000e+01
5.000000e+01
6.250000e+01
7.500000e+01
8.750000e+01
1.000000e+02
1.125000e+02
1.250000e+02
1.375000e+02
1.500000e+02
1.625000e+02
1.750000e+02
1.875000e+02
2.000000e+02
0.000000e+00
1.250000e+01
2.500000e+01
3.750000e+01
5.000000e+01
6.250000e+01
7.500000e+01
8.750000e+01
1.000000e+02
1.125000e+02
1.250000e+02
1.375000e+02
1.500000e+02
1.625000e+02
1.750000e+02
1.875000e+02
2.000000e+02
0.000000e+00
1.250000e+01
2.500000e+01
3.750000e+01
5.000000e+01
6.250000e+01
7.500000e+01
8.750000e+01
1.000000e+02
1.125000e+02
1.250000e+02
1.375000e+02
1.500000e+02
1.625000e+02
1.750000e+02
1.875000e+02
2.000000e+02
0.000000e+00
1.250000e+01
2.500000e+01
3.750000e+01
5.000000e+01
6.250000e+01
7.500000e+01
8.750000e+01
1.000000e+02
1.125000e+02
1.250000e+02
1.375000e+02
1.500000e+02
1.625000e+02
1.750000e+02
1.875000e+02
2.000000e+02
0.000000e+00
1.250000e+01
2.500000e+01
3.750000e+01
5.000000e+01
6.250000e+01
7.500000e+01
8.750000e+01
1.000000e+02
1.125000e+02
1.250000e+02
1.375000e+02
1.500000e+02
1.625000e+02
1.750000e+02
1.875000e+02
2.000000e+02
0.000000e+00
1.250000e+01
2.500000e+01
3.750000e+01
5.000000e+01
6.250000e+01
7.500000e+01
8.750000e+01
1.000000e+02
1.125000e+02
1.250000e+02
1.375000e+02
1.500000e+02
1.625000e+02
1.750000e+02
1.875000e+02
2.000000e+02
0.000000e+00
1.250000e+01
2.500000e+01
3.750000e+01
5.000000e+01
6.250000e+01
7.500000e+01
8.750000e+01
1.000000e+02
1.125000e+02
1.250000e+02
1.375000e+02
1.500000e+02
1.625000e+02
1.750000e+02
1.875000e+02
2.000000e+02
0.000000e+00
1.250000e+01
2.500000e+01
3.750000e+01
5.000000e+01
6.250000e+01
7.500000e+01
8.750000e+01
1.000000e+02
1.125000e+02
1.250000e+02
1.375000e+02
1.500000e+02
1.625000e+02
1.750000e+02
1.875000e+02
2.000000e+02
0.000000e+00
1.250000e+01
2.500000e+01
3.750000e+01
5.000000e+01
6.250000e+01
7.500000e+01
8.750000e+01
1.000000e+02
1.125000e+02
1.250000e+02
1.375000e+02
1.500000e+02
1.625000e+02
1.750000e+02
1.875000e+02
2.000000e+02
0.000000e+00
0.000000e+00
0.000000e+00
0.000000e+00
0.000000e+00
0.000000e+00
0.000000e+00
0.000000e+00
0.000000e+00
0.000000e+00
0.000000e+00
0.000000e+00
0.000000e+00
0.000000e+00
0.000000e+00
0.000000e+00
0.000000e+00
1.250000e+01
1.250000e+01
1.250000e+01
1.250000e+01
1.250000e+01
1.250000e+01
1.250000e+01
1.250000e+01
1.250000e+01
1.250000e+01
1.250000e+01
1.250000e+01
1.250000e+01
1.250000e+01
1.250000e+01
1.250000e+01
1.250000e+01
2.500000e+01
2.500000e+01
2.500000e+01
2.500000e+01
2.500000e+01
2.500000e+01
2.500000e+01
2.500000e+01
2.500000e+01
2.500000e+01
2.500000e+01
2.500000e+01
2.500000e+01
2.500000e+01
2.500000e+01
2.500000e+01
2.500000e+01
3.750000e+01
3.750000e+01
3.750000e+01
3.750000e+01
3.750000e+01
3.750000e+01
3.750000e+01
3.750000e+01
3.750000e+01
3.750000e+01
3.750000e+01
3.750000e+01
3.750000e+01
3.750000e+01
3.750000e+01
3.750000e+01
3.750000e+01
5.000000e+01
5.000000e+01
5.000000e+01
5.000000e+01
5.000000e+01
5.000000e+01
5.000000e+01
5.000000e+01
5.000000e+01
5.000000e+01
5.000000e+01
5.000000e+01
5.000000e+01
5.000000e+01
5.000000e+01
5.000000e+01
5.000000e+01
6.250000e+01
6.250000e+01
6.250000e+01
6.250000e+01
6.250000e+01
6.250000e+01
6.250000e+01
6.250000e+01
6.250000e+01
6.250000e+01
6.250000e+01
6.250000e+01
6.250000e+01
6.250000e+01
6.250000e+01
6.250000e+01
6.250000e+01
7.500000e+01
7.500000e+01
7.500000e+01
7.500000e+01
7.500000e+01
7.500000e+01
7.500000e+01
7.500000e+01
7.500000e+01
7.500000e+01
7.500000e+01
7.500000e+01
7.500000e+01
7.500000e+01
7.500000e+01
7.500000e+01
7.500000e+01
8.750000e+01
8.750000e+01
8.750000e+01
8.750000e+01
8.750000e+01
8.750000e+01
8.750000e+01
8.750000e+01
8.750000e+01
8.750000e+01
8.750000e+01
8.750000e+01
8.750000e+01
8.750000e+01
8.750000e+01
8.750000e+01
8.750000e+01
1.000000e+02
1.000000e+02
1.000000e+02
1.000000e+02
1.000000e+02
1.000000e+02
1.000000e+02
1.000000e+02
1.000000e+02
1.000000e+02
1.000000e+02
1.000000e+02
1.000000e+02
1.000000e+02
1.000000e+02
1.000000e+02
1.000000e+02
0.000000e+00
-1.263213e-01
-2.325979e-01
-3.303886e-01
-4.214625e-01
-5.056262e-01
-5.826987e-01
-6.526194e-01
-7.154896e-01
-7.715985e-01
-8.215019e-01
-8.661749e-01
-9.072952e-01
-9.477613e-01
-9.925725e-01
-1.047607e+00
-1.088904e+00
0.000000e+00
-7.543549e-02
-1.567035e-01
-2.317514e-01
-3.008963e-01
-3.644002e-01
-4.223942e-01
-4.749554e-01
-5.221782e-01
-5.642078e-01
-6.012571e-01
-6.335930e-01
-6.614218e-01
-6.844566e-01
-7.007044e-01
-7.042656e-01
-7.170337e-01
0.000000e+00
-4.717458e-02
-9.700354e-02
-1.467170e-01
-1.931247e-01
-2.357349e-01
-2.745126e-01
-3.095012e-01
-3.407092e-01
-3.680841e-01
-3.914786e-01
-4.105655e-01
-4.246644e-01
-4.325347e-01
-4.327531e-01
-4.296090e-01
-4.426314e-01
0.000000e+00
-2.276921e-02
-4.687392e-02
-7.113174e-02
-9.432747e-02
-1.156929e-01
-1.350591e-01
-1.523695e-01
-1.675249e-01
-1.803279e-01
-1.904511e-01
-1.974166e-01
-2.006543e-01
-1.998978e-01
-1.967901e-01
-1.976399e-01
-2.073363e-01
0.000000e+00
-2.097988e-05
-4.769461e-05
-7.432262e-05
-8.845674e-05
-6.242899e-05
5.867867e-05
3.734106e-04
1.043443e-03
2.309603e-03
4.486085e-03
7.888528e-03
1.260223e-02
1.792896e-02
2.160853e-02
2.059936e-02
1.417947e-02
0.000000e+00
2.273694e-02
4.679898e-02
7.101187e-02
9.417836e-02
1.155716e-01
1.351061e-01
1.528773e-01
1.690391e-01
1.837788e-01
1.972890e-01
2.096694e-01
2.207052e-01
2.295547e-01
2.347604e-01
2.351733e-01
2.319148e-01
0.000000e+00
4.716928e-02
9.698740e-02
1.466849e-01
1.930746e-01
2.356724e-01
2.744608e-01
3.095180e-01
3.409166e-01
3.687119e-01
3.929281e-01
4.135059e-01
4.302083e-01
4.425571e-01
4.499691e-01
4.523758e-01
4.516159e-01
0.000000e+00
7.546645e-02
1.567708e-01
2.318588e-01
3.010403e-01
3.645543e-01
4.224807e-01
4.747974e-01
5.214244e-01
5.622267e-01
5.970105e-01
6.255348e-01
6.475715e-01
6.630474e-01
6.722791e-01
6.762159e-01
6.769390e-01
0.000000e+00
1.263731e-01
2.327345e-01
3.306444e-01
4.218710e-01
5.062009e-01
5.833842e-01
6.531958e-01
7.154019e-01
7.696786e-01
8.155548e-01
8.524186e-01
8.796643e-01
8.970774e-01
9.054986e-01
9.075772e-01
9.075371e-01
0.000000e+00
-7.646631e-02
-1.501145e-01
-2.455463e-01
-3.626695e-01
-5.012654e-01
-6.598167e-01
-8.365492e-01
-1.029584e+00
-1.237067e+00
-1.457285e+00
-1.688875e+00
-1.931278e+00
-2.185789e+00
-2.459012e+00
-2.771633e+00
-3.220829e+00
0.000000e+00
-4.707424e-02
-1.239011e-01
-2.205153e-01
-3.395520e-01
-4.800387e-01
-6.405103e-01
-8.191493e-01
-1.014055e+00
-1.223339e+00
-1.445242e+00
-1.678338e+00
-1.921981e+00
-2.177433e+00
-2.450549e+00
-2.761273e+00
-3.141950e+00
0.000000e+00
-3.552218e-02
-1.057287e-01
-2.026991e-01
-3.228605e-01
-4.647928e-01
-6.267391e-01
-8.068644e-01
-1.003281e+00
-1.214127e+00
-1.437677e+00
-1.672554e+00
-1.918174e+00
-2.175590e+00
-2.448941e+00
-2.743362e+00
-3.028298e+00
0.000000e+00
-3.061124e-02
-9.669382e-02
-1.922416e-01
-3.128371e-01
-4.556427e-01
-6.185984e-01
-7.997995e-01
-9.973934e-01
-1.209570e+00
-1.434639e+00
-1.671199e+00
-1.918387e+00
-2.176088e+00
-2.443970e+00
-2.714498e+00
-2.963715e+00
0.000000e+00
-2.919661e-02
-9.395952e-02
-1.889056e-01
-3.095338e-01
-4.526947e-01
-6.161190e-01
-7.979033e-01
-9.962306e-01
-1.209320e+00
-1.435445e+00
-1.672979e+00
-1.920388e+00
-2.175845e+00
-2.435528e+00
-2.690555e+00
-2.925494e+00
0.000000e+00
-3.059306e-02
-9.668089e-02
-1.922646e-01
-3.129501e-01
-4.559405e-01
-6.192355e-01
-8.010061e-01
-9.994737e-01
-1.212849e+00
-1.439292e+00
-1.676838e+00
-1.923187e+00
-2.175205e+00
-2.428049e+00
-2.674329e+00
-2.904253e+00
0.000000e+00
-3.549253e-02
-1.057073e-01
-2.027375e-01
-3.230510e-01
-4.652967e-01
-6.278193e-01
-8.089131e-01
-1.006818e+00
-1.219712e+00
-1.445635e+00
-1.682316e+00
-1.926903e+00
-2.175618e+00
-2.423560e+00
-2.665113e+00
-2.894885e+00
0.000000e+00
-4.704645e-02
-1.238824e-01
-2.205664e-01
-3.397807e-01
-4.806312e-01
-6.417676e-01
-8.215174e-01
-1.018118e+00
-1.229716e+00
-1.454268e+00
-1.689343e+00
-1.931846e+00
-2.177792e+00
-2.422436e+00
-2.661302e+00
-2.892685e+00
0.000000e+00
-7.645483e-02
-1.501161e-01
-2.456252e-01
-3.629346e-01
-5.018986e-01
-6.611032e-01
-8.388965e-01
-1.033497e+00
-1.243020e+00
-1.465372e+00
-1.698068e+00
-1.937992e+00
-2.181247e+00
-2.423391e+00
-2.660605e+00
-2.892720e+00


0.000000e+00
-3.439338e-08
-6.867718e-08
-1.006904e-07
-1.310433e-07
-1.595567e-07
-1.860557e-07
-2.104613e-07
-2.327502e-07
-2.529482e-07
-2.711282e-07
-2.873856e-07
-3.017568e-07
-3.140762e-07
-3.241355e-07
-3.326553e-07
-3.401591e-07
0.000000e+00
-1.890546e-08
-4.620050e-08
-7.103602e-08
-9.413064e-08
-1.157150e-07
-1.357007e-07
-1.540201e-07
-1.706260e-07
-1.854752e-07
-1.985146e-07
-2.096649e-07
-2.188382e-07
-2.261992e-07
-2.329160e-07
-2.407679e-07
-2.487516e-07
0.000000e+00
-1.162449e-08
-2.882679e-08
-4.519963e-08
-6.070655e-08
-7.519288e-08
-8.854060e-08
-1.006766e-07
-1.115337e-07
-1.210345e-07
-1.290905e-07
-1.356355e-07
-1.407502e-07
-1.449330e-07
-1.493165e-07
-1.551465e-07
-1.618183e-07
0.000000e+00
-5.591628e-09
-1.374047e-08
-2.173942e-08
-2.947950e-08
-3.670920e-08
-4.331639e-08
-4.923754e-08
-5.441001e-08
-5.876629e-08
-6.225005e-08
-6.486606e-08
-6.677474e-08
-6.840539e-08
-7.048538e-08
-7.387947e-08
-7.853094e-08
0.000000e+00
-7.993246e-12
-1.109949e-11
-9.456043e-13
3.387618e-11
1.116249e-10
2.591493e-10
5.122996e-10
9.128451e-10
1.498423e-09
2.280271e-09
3.205789e-09
4.114043e-09
4.703976e-09
4.501814e-09
2.905331e-09
-1.710411e-10
0.000000e+00
5.576876e-09
1.371885e-08
2.173237e-08
2.952728e-08
3.688279e-08
4.373282e-08
5.007605e-08
5.592414e-08
6.127976e-08
6.611555e-08
7.035173e-08
7.384124e-08
7.636934e-08
7.767119e-08
7.743454e-08
7.573989e-08
0.000000e+00
1.161540e-08
2.881214e-08
4.518759e-08
6.071297e-08
7.524834e-08
8.869884e-08
1.010244e-07
1.121997e-07
1.221918e-07
1.309418e-07
1.383499e-07
1.442715e-07
1.485450e-07
1.510832e-07
1.519283e-07
1.514274e-07
0.000000e+00
1.891330e-08
4.621506e-08
7.104777e-08
9.412385e-08
1.156630e-07
1.355602e-07
1.537243e-07
1.700784e-07
1.845452e-07
1.970413e-07
2.074723e-07
2.157348e-07
2.217423e-07
2.255266e-07
2.273888e-07
2.278407e-07
0.000000e+00
3.443679e-08
6.875433e-08
1.007861e-07
1.311253e-07
1.595572e-07
1.858461e-07
2.098184e-07
2.313169e-07
2.501946e-07
2.663267e-07
2.796297e-07
2.900790e-07
2.977247e-07
3.027214e-07
3.053140e-07
3.061508e-07
0.000000e+00
-3.112334e-08
-6.123835e-08
-9.522874e-08
-1.357477e-07
-1.832139e-07
-2.373711e-07
-2.977827e-07
-3.639250e-07
-4.352748e-07
-5.113763e-07
-5.919530e-07
-6.771971e-07
-7.683801e-07
-8.677416e-07
-9.732948e-07
-1.077882e-06
0.000000e+00
-1.905423e-08
-4.830826e-08
-8.239483e-08
-1.235095e-07
-1.717609e-07
-2.268101e-07
-2.881570e-07
-3.552592e-07
-4.275813e-07
-5.046541e-07
-5.861725e-07
-6.721613e-07
-7.631783e-07
-8.600951e-07
-9.629866e-07
-1.066217e-06
0.000000e+00
-1.239826e-08
-3.791490e-08
-7.180455e-08
-1.133523e-07
-1.622951e-07
-2.181370e-07
-2.803308e-07
-3.483198e-07
-4.215612e-07
-4.995635e-07
-5.819338e-07
-6.683964e-07
-7.586904e-07
-8.526499e-07
-9.517605e-07
-1.051626e-06
0.000000e+00
-9.243761e-09
-3.237766e-08
-6.556321e-08
-1.072982e-07
-1.566837e-07
-2.130602e-07
-2.758394e-07
-3.444521e-07
-4.183414e-07
-4.969689e-07
-5.798085e-07
-6.662914e-07
-7.556997e-07
-8.474436e-07
-9.426598e-07
-1.037452e-06
0.000000e+00
-8.324195e-09
-3.068028e-08
-6.354444e-08
-1.053286e-07
-1.549009e-07
-2.115184e-07
-2.745748e-07
-3.434911e-07
-4.176859e-07
-4.965600e-07
-5.794642e-07
-6.656354e-07
-7.541154e-07
-8.439441e-07
-9.356340e-07
-1.025417e-06
0.000000e+00
-9.250963e-09
-3.240627e-08
-6.563503e-08
-1.074416e-07
-1.569373e-07
-2.134714e-07
-2.764583e-07
-3.453130e-07
-4.194263e-07
-4.981419e-07
-5.807218e-07
-6.662895e-07
-7.537489e-07
-8.418985e-07
-9.306203e-07
-1.016734e-06
0.000000e+00
-1.240989e-08
-3.796469e-08
-7.193013e-08
-1.136033e-07
-1.627394e-07
-2.188585e-07
-2.814179e-07
-3.498334e-07
-4.234702e-07
-5.016257e-07
-5.835018e-07
-6.681606e-07
-7.544573e-07
-8.411129e-07
-9.276033e-07
-1.011414e-06
0.000000e+00
-1.906886e-08
-4.837076e-08
-8.254840e-08
-1.238143e-07
-1.722984e-07
-2.276805e-07
-2.894631e-07
-3.570669e-07
-4.298381e-07
-5.070392e-07
-5.878295e-07
-6.712401e-07
-7.561493e-07
-8.413842e-07
-9.262446e-07
-1.008860e-06
0.000000e+00
-3.114764e-08
-6.131058e-08
-9.539306e-08
-1.360634e-07
-1.837590e-07
-2.382373e-07
-2.990563e-07
-3.656413e-07
-4.373303e-07
-5.133696e-07
-5.928994e-07
-6.749449e-07
-7.584342e-07
-8.423419e-07
-9.260220e-07
-1.008111e-06


3.690819e-01
3.690848e-01
3.690974e-01
3.691143e-01
3.691282e-01
3.691400e-01
3.691503e-01
3.691592e-01
3.691667e-01
3.691730e-01
3.691781e-01
3.691820e-01
3.691849e-01
3.691870e-01
3.691884e-01
3.691891e-01
3.691045e-01
3.691058e-01
3.691147e-01
3.691276e-01
3.691384e-01
3.691477e-01
3.691560e-01
3.691632e-01
3.691694e-01
3.691746e-01
3.691789e-01
3.691822e-01
3.691848e-01
3.691867e-01
3.691881e-01
3.691888e-01
3.691407e-01
3.691403e-01
3.691440e-01
3.691503e-01
3.691560e-01
3.691613e-01
3.691662e-01
3.691705e-01
3.691743e-01
3.691775e-01
3.691803e-01
3.691826e-01
3.691845e-01
3.691861e-01
3.691875e-01
3.691884e-01
3.691656e-01
3.691644e-01
3.691646e-01
3.691663e-01
3.691686e-01
3.691710e-01
3.691734e-01
3.691756e-01
3.691775e-01
3.691793e-01
3.691810e-01
3.691825e-01
3.691839e-01
3.691855e-01
3.691870e-01
3.691881e-01
3.691656e-01
3.691644e-01
3.691646e-01
3.691663e-01
3.691685e-01
3.691710e-01
3.691733e-01
3.691754e-01
3.691773e-01
3.691790e-01
3.691806e-01
3.691821e-01
3.691836e-01
3.691853e-01
3.691870e-01
3.691881e-01
3.691407e-01
3.691404e-01
3.691440e-01
3.691503e-01
3.691560e-01
3.691613e-01
3.691660e-01
3.691702e-01
3.691738e-01
3.691769e-01
3.691795e-01
3.691818e-01
3.691838e-01
3.691858e-01
3.691874e-01
3.691884e-01
3.691046e-01
3.691059e-01
3.691148e-01
3.691276e-01
3.691383e-01
3.691477e-01
3.691559e-01
3.691631e-01
3.691692e-01
3.691743e-01
3.691785e-01
3.691818e-01
3.691845e-01
3.691865e-01
3.691880e-01
3.691887e-01
3.690820e-01
3.690848e-01
3.690974e-01
3.691143e-01
3.691282e-01
3.691399e-01
3.691502e-01
3.691592e-01
3.691668e-01
3.691732e-01
3.691783e-01
3.691822e-01
3.691851e-01
3.691871e-01
3.691883e-01
3.691889e-01


9.640997e-01
9.691902e-01
9.738984e-01
9.775223e-01
9.808867e-01
9.839894e-01
9.868165e-01
9.893346e-01
9.915173e-01
9.933430e-01
9.947948e-01
9.958584e-01
9.965195e-01
9.967553e-01
9.969255e-01
9.864286e-01
9.864186e-01
9.840852e-01
9.855853e-01
9.875435e-01
9.893695e-01
9.910294e-01
9.925321e-01
9.938933e-01
9.951259e-01
9.962426e-01
9.972558e-01
9.981733e-01
9.989738e-01
9.994980e-01
9.981723e-01
9.802038e-01
9.952810e-01
9.939408e-01
9.935787e-01
9.940872e-01
9.947563e-01
9.954046e-01
9.960065e-01
9.965754e-01
9.971264e-01
9.976638e-01
9.981656e-01
9.985542e-01
9.986353e-01
9.979355e-01
9.953966e-01
9.908302e-01
9.990395e-01
9.980620e-01
9.974582e-01
9.973049e-01
9.973659e-01
9.974685e-01
9.975709e-01
9.976710e-01
9.977692e-01
9.978515e-01
9.978744e-01
9.977520e-01
9.973637e-01
9.966670e-01
9.960761e-01
9.959265e-01
9.990431e-01
9.980672e-01
9.974627e-01
9.973039e-01
9.973507e-01
9.974246e-01
9.974759e-01
9.974931e-01
9.974695e-01
9.973938e-01
9.972528e-01
9.970496e-01
9.968561e-01
9.968946e-01
9.974413e-01
9.983879e-01
9.952878e-01
9.939511e-01
9.935885e-01
9.940873e-01
9.947303e-01
9.953243e-01
9.958269e-01
9.962309e-01
9.965335e-01
9.967373e-01
9.968661e-01
9.969921e-01
9.972568e-01
9.978118e-01
9.986454e-01
9.995074e-01
9.864173e-01
9.840842e-01
9.855833e-01
9.875379e-01
9.893552e-01
9.909967e-01
9.924644e-01
9.937641e-01
9.948967e-01
9.958649e-01
9.966845e-01
9.974004e-01
9.980899e-01
9.988127e-01
9.994887e-01
9.999144e-01
9.640752e-01
9.691519e-01
9.738514e-01
9.774696e-01
9.808393e-01
9.839722e-01
9.868749e-01
9.895405e-01
9.919694e-01
9.941570e-01
9.960771e-01
9.976701e-01
9.988551e-01
9.995863e-01
9.999189e-01
9.999983e-01
1 2 19 18
2 3 20 19
3 4 21 20
4 5 22 21
5 6 23 22
6 7 24 23
7 8 25 24
8 9 26 25
9 10 27 26
10 11 28 27
11 12 29 28
12 13 30 29
13 14 31 30
14 15 32 31
15 16 33 32
16 17 34 33
18 19 36 35
19 20 37 36
20 21 38 37
21 22 39 38
22 23 40 39
23 24 41 40
24 25 42 41
25 26 43 42
26 27 44 43
27 28 45 44
28 29 46 45
29 30 47 46
30 31 48 47
31 32 49 48
32 33 50 49
33 34 51 50
35 36 53 52
36 37 54 53
37 38 55 54
38 39 56 55
39 40 57 56
40 41 58 57
41 42 59 58
42 43 60 59
43 44 61 60
44 45 62 61
45 46 63 62
46 47 64 63
47 48 65 64
48 49 66 65
49 50 67 66
50 51 68 67
52 53 70 69
53 54 71 70
54 55 72 71
55 56 73 72
56 57 74 73
57 58 75 74
58 59 76 75
59 60 77 76
60 61 78 77
61 62 79 78
62 63 80 79
63 64 81 80
64 65 82 81
65 66 83 82
66 67 84 83
67 68 85 84
69 70 87 86
70 71 88 87
71 72 89 88
72 73 90 89
73 74 91 90
74 75 92 91
75 76 93 92
76 77 94 93
77 78 95 94
78 79 96 95
79 80 97 96
80 81 98 97
81 82 99 98
82 83 100 99
83 84 101 100
84 85 102 101
86 87 104 103
87 88 105 104
88 89 106 105
89 90 107 106
90 91 108 107
91 92 109 108
92 93 110 109
93 94 111 110
94 95 112 111
95 96 113 112
96 97 114 113
97 98 115 114
98 99 116 115
99 100 117 116
100 101 118 117
101 102 119 118
103 104 121 120
104 105 122 121
105 106 123 122
106 107 124 123
107 108 125 124
108 109 126 125
109 110 127 126
110 111 128 127
111 112 129 128
112 113 130 129
113 114 131 130
114 115 132 131
115 116 133 132
116 117 134 133
117 118 135 134
118 119 136 135
120 121 138 137
121 122 139 138
122 123 140 139
123 124 141 140
124 125 142 141
125 126 143 142
126 127 144 143
127 128 145 144
128 129 146 145
129 130 147 146
130 131 148 147
131 132 149 148
132 133 150 149
133 134 151 150
134 135 152 151
135 136 153 152
