TITLE = "Solution"
VARIABLES = x, y, u, v, psiu, psiv, t, stress
ZONE T="structure" N=153 E=128 F=FEBLOCK ET=QUADRILATERAL VARLOCATION=([7,8]=cellcentered)
0.000000e+00
1.250000e+01
2.500000e+01
3.750000e+01
5.000000e+01
6.250000e+01
7.500000e+01
8.750000e+01
1.000000e+02
1.125000e+02
1.250000e+02
1.375000e+02
1.500000e+02
1.625000e+02
1.750000e+02
1.875000e+02
2.000000e+02
0.000000e+00
1.250000e+01
2.500000e+01
3.750000e+01
5.000000e+01
6.250000e+01
7.500000e+01
8.750000e+01
1.000000e+02
1.125000e+02
1.250000e+02
1.375000e+02
1.500000e+02
1.625000e+02
1.750000e+02
1.875000e+02
2.000000e+02
0.000000e+00
1.250000e+01
2.500000e+01
3.750000e+01
5.000000e+01
6.250000e+01
7.500000e+01
8.750000e+01
1.000000e+02
1.125000e+02
1.250000e+02
1.375000e+02
1.500000e+02
1.625000e+02
1.750000e+02
1.875000e+02
2.000000e+02
0.000000e+00
1.250000e+01
2.500000e+01
3.750000e+01
5.000000e+01
6.250000e+01
7.500000e+01
8.750000e+01
1.000000e+02
1.125000e+02
1.250000e+02
1.375000e+02
1.500000e+02
1.625000e+02
1.750000e+02
1.875000e+02
2.000000e+02
0.000000e+00
1.250000e+01
2.500000e+01
3.750000e+01
5.000000e+01
6.250000e+01
7.500000e+01
8.750000e+01
1.000000e+02
1.125000e+02
1.250000e+02
1.375000e+02
1.500000e+02
1.625000e+02
1.750000e+02
1.875000e+02
2.000000e+02
0.000000e+00
1.250000e+01
2.500000e+01
3.750000e+01
5.000000e+01
6.250000e+01
7.500000e+01
8.750000e+01
1.000000e+02
1.125000e+02
1.250000e+02
1.375000e+02
1.500000e+02
1.625000e+02
1.750000e+02
1.875000e+02
2.000000e+02
0.000000e+00
1.250000e+01
2.500000e+01
3.750000e+01
5.000000e+01
6.250000e+01
7.500000e+01
8.750000e+01
1.000000e+02
1.125000e+02
1.250000e+02
1.375000e+02
1.500000e+02
1.625000e+02
1.750000e+02
1.875000e+02
2.000000e+02
0.000000e+00
1.250000e+01
2.500000e+01
3.750000e+01
5.000000e+01
6.250000e+01
7.500000e+01
8.750000e+01
1.000000e+02
1.125000e+02
1.250000e+02
1.375000e+02
1.500000e+02
1.625000e+02
1.750000e+02
1.875000e+02
2.000000e+02
0.000000e+00
1.250000e+01
2.500000e+01
3.750000e+01
5.000000e+01
6.250000e+01
7.500000e+01
8.750000e+01
1.000000e+02
1.125000e+02
1.250000e+02
1.375000e+02
1.500000e+02
1.625000e+02
1.750000e+02
1.875000e+02
2.000000e+02
0.000000e+00
0.000000e+00
0.000000e+00
0.000000e+00
0.000000e+00
0.000000e+00
0.000000e+00
0.000000e+00
0.000000e+00
0.000000e+00
0.000000e+00
0.000000e+00
0.000000e+00
0.000000e+00
0.000000e+00
0.000000e+00
0.000000e+00
1.250000e+01
1.250000e+01
1.250000e+01
1.250000e+01
1.250000e+01
1.250000e+01
1.250000e+01
1.250000e+01
1.250000e+01
1.250000e+01
1.250000e+01
1.250000e+01
1.250000e+01
1.250000e+01
1.250000e+01
1.250000e+01
1.250000e+01
2.500000e+01
2.500000e+01
2.500000e+01
2.500000e+01
2.500000e+01
2.500000e+01
2.500000e+01
2.500000e+01
2.500000e+01
2.500000e+01
2.500000e+01
2.500000e+01
2.500000e+01
2.500000e+01
2.500000e+01
2.500000e+01
2.500000e+01
3.750000e+01
3.750000e+01
3.750000e+01
3.750000e+01
3.750000e+01
3.750000e+01
3.750000e+01
3.750000e+01
3.750000e+01
3.750000e+01
3.750000e+01
3.750000e+01
3.750000e+01
3.750000e+01
3.750000e+01
3.750000e+01
3.750000e+01
5.000000e+01
5.000000e+01
5.000000e+01
5.000000e+01
5.000000e+01
5.000000e+01
5.000000e+01
5.000000e+01
5.000000e+01
5.000000e+01
5.000000e+01
5.000000e+01
5.000000e+01
5.000000e+01
5.000000e+01
5.000000e+01
5.000000e+01
6.250000e+01
6.250000e+01
6.250000e+01
6.250000e+01
6.250000e+01
6.250000e+01
6.250000e+01
6.250000e+01
6.250000e+01
6.250000e+01
6.250000e+01
6.250000e+01
6.250000e+01
6.250000e+01
6.250000e+01
6.250000e+01
6.250000e+01
7.500000e+01
7.500000e+01
7.500000e+01
7.500000e+01
7.500000e+01
7.500000e+01
7.500000e+01
7.500000e+01
7.500000e+01
7.500000e+01
7.500000e+01
7.500000e+01
7.500000e+01
7.500000e+01
7.500000e+01
7.500000e+01
7.500000e+01
8.750000e+01
8.750000e+01
8.750000e+01
8.750000e+01
8.750000e+01
8.750000e+01
8.750000e+01
8.750000e+01
8.750000e+01
8.750000e+01
8.750000e+01
8.750000e+01
8.750000e+01
8.750000e+01
8.750000e+01
8.750000e+01
8.750000e+01
1.000000e+02
1.000000e+02
1.000000e+02
1.000000e+02
1.000000e+02
1.000000e+02
1.000000e+02
1.000000e+02
1.000000e+02
1.000000e+02
1.000000e+02
1.000000e+02
1.000000e+02
1.000000e+02
1.000000e+02
1.000000e+02
1.000000e+02
0.000000e+00
-7.127692e-02
-1.312434e-01
-1.864203e-01
-2.378055e-01
-2.852906e-01
-3.287736e-01
-3.682208e-01
-4.036896e-01
-4.353434e-01
-4.634959e-01
-4.886975e-01
-5.118946e-01
-5.347225e-01
-5.600014e-01
-5.910471e-01
-6.143436e-01
0.000000e+00
-4.256530e-02
-8.842112e-02
-1.307661e-01
-1.697788e-01
-2.056076e-01
-2.383269e-01
-2.679804e-01
-2.946217e-01
-3.183326e-01
-3.392337e-01
-3.574755e-01
-3.731745e-01
-3.861690e-01
-3.953348e-01
-3.973438e-01
-4.045464e-01
0.000000e+00
-2.661911e-02
-5.473555e-02
-8.278587e-02
-1.089700e-01
-1.330107e-01
-1.548885e-01
-1.746281e-01
-1.922344e-01
-2.076780e-01
-2.208758e-01
-2.316434e-01
-2.395970e-01
-2.440369e-01
-2.441602e-01
-2.423865e-01
-2.497327e-01
0.000000e+00
-1.284802e-02
-2.644938e-02
-4.013664e-02
-5.322415e-02
-6.527857e-02
-7.620472e-02
-8.597078e-02
-9.452085e-02
-1.017437e-01
-1.074546e-01
-1.113842e-01
-1.132107e-01
-1.127839e-01
-1.110308e-01
-1.115102e-01
-1.169802e-01
0.000000e+00
-1.183567e-05
-2.690618e-05
-4.192722e-05
-4.989927e-05
-3.521369e-05
3.311066e-05
2.106657e-04
5.886574e-04
1.302942e-03
2.530764e-03
4.450180e-03
7.109302e-03
1.011424e-02
1.218997e-02
1.162066e-02
7.999054e-03
0.000000e+00
1.282981e-02
2.640710e-02
4.006902e-02
5.314004e-02
6.521015e-02
7.623126e-02
8.625726e-02
9.537508e-02
1.036905e-01
1.113121e-01
1.182964e-01
1.245220e-01
1.295142e-01
1.324509e-01
1.326838e-01
1.308456e-01
0.000000e+00
2.661612e-02
5.472644e-02
8.276775e-02
1.089417e-01
1.329755e-01
1.548593e-01
1.746376e-01
1.923514e-01
2.080322e-01
2.216935e-01
2.333022e-01
2.427246e-01
2.496908e-01
2.538722e-01
2.552298e-01
2.548012e-01
0.000000e+00
4.258276e-02
8.845908e-02
1.308266e-01
1.698600e-01
2.056946e-01
2.383757e-01
2.678913e-01
2.941964e-01
3.172150e-01
3.368380e-01
3.529296e-01
3.653612e-01
3.740916e-01
3.792994e-01
3.815203e-01
3.819282e-01
0.000000e+00
7.130612e-02
1.313204e-01
1.865646e-01
2.380360e-01
2.856148e-01
3.291603e-01
3.685460e-01
4.036401e-01
4.342602e-01
4.601409e-01
4.809371e-01
4.963072e-01
5.061304e-01
5.108810e-01
5.120536e-01
5.120310e-01
0.000000e+00
-4.314589e-02
-8.470042e-02
-1.385454e-01
-2.046290e-01
-2.828276e-01
-3.722848e-01
-4.719993e-01
-5.809110e-01
-6.979737e-01
-8.222207e-01
-9.528829e-01
-1.089645e+00
-1.233238e+00
-1.387386e+00
-1.563760e+00
-1.817178e+00
0.000000e+00
-2.656141e-02
-6.990960e-02
-1.244223e-01
-1.915859e-01
-2.708516e-01
-3.613925e-01
-4.621829e-01
-5.721502e-01
-6.902293e-01
-8.154270e-01
-9.469387e-01
-1.084401e+00
-1.228524e+00
-1.382612e+00
-1.557916e+00
-1.772681e+00
0.000000e+00
-2.004294e-02
-5.965587e-02
-1.143698e-01
-1.821684e-01
-2.622500e-01
-3.536231e-01
-4.552521e-01
-5.660718e-01
-6.850322e-01
-8.111592e-01
-9.436760e-01
-1.082253e+00
-1.227485e+00
-1.381706e+00
-1.547812e+00
-1.708568e+00
0.000000e+00
-1.727159e-02
-5.455777e-02
-1.084692e-01
-1.765129e-01
-2.570874e-01
-3.490302e-01
-4.512663e-01
-5.627505e-01
-6.824612e-01
-8.094455e-01
-9.429114e-01
-1.082373e+00
-1.227765e+00
-1.378901e+00
-1.531529e+00
-1.672135e+00
0.000000e+00
-1.647323e-02
-5.301485e-02
-1.065869e-01
-1.746491e-01
-2.554242e-01
-3.476313e-01
-4.501965e-01
-5.620944e-01
-6.823203e-01
-8.098998e-01
-9.439158e-01
-1.083502e+00
-1.227629e+00
-1.374139e+00
-1.518022e+00
-1.650574e+00
0.000000e+00
-1.726134e-02
-5.455047e-02
-1.084822e-01
-1.765767e-01
-2.572555e-01
-3.493896e-01
-4.519470e-01
-5.639240e-01
-6.843109e-01
-8.120704e-01
-9.460927e-01
-1.085081e+00
-1.227267e+00
-1.369920e+00
-1.508869e+00
-1.638592e+00
0.000000e+00
-2.002622e-02
-5.964378e-02
-1.143914e-01
-1.822759e-01
-2.625342e-01
-3.542324e-01
-4.564079e-01
-5.680672e-01
-6.881831e-01
-8.156484e-01
-9.491828e-01
-1.087177e+00
-1.227500e+00
-1.367387e+00
-1.503670e+00
-1.633307e+00
0.000000e+00
-2.654573e-02
-6.989908e-02
-1.244511e-01
-1.917150e-01
-2.711859e-01
-3.621018e-01
-4.635188e-01
-5.744424e-01
-6.938265e-01
-8.205187e-01
-9.531472e-01
-1.089966e+00
-1.228727e+00
-1.366753e+00
-1.501520e+00
-1.632066e+00
0.000000e+00
-4.313941e-02
-8.470133e-02
-1.385900e-01
-2.047786e-01
-2.831848e-01
-3.730105e-01
-4.733236e-01
-5.831188e-01
-7.013319e-01
-8.267828e-01
-9.580691e-01
-1.093433e+00
-1.230676e+00
-1.367292e+00
-1.501127e+00
-1.632085e+00


0.000000e+00
9.754872e-08
1.954588e-07
2.863886e-07
3.716629e-07
4.508001e-07
5.234686e-07
5.896486e-07
6.494736e-07
7.031951e-07
7.511694e-07
7.937933e-07
8.312989e-07
8.633917e-07
8.896593e-07
9.121066e-07
9.320805e-07
0.000000e+00
5.486254e-08
1.335005e-07
2.042103e-07
2.690431e-07
3.288052e-07
3.834430e-07
4.329572e-07
4.773880e-07
5.167675e-07
5.510841e-07
5.802370e-07
6.040784e-07
6.230990e-07
6.404725e-07
6.610941e-07
6.823195e-07
0.000000e+00
3.456925e-08
8.436833e-08
1.310924e-07
1.746499e-07
2.147113e-07
2.511193e-07
2.838305e-07
3.127955e-07
3.379170e-07
3.590515e-07
3.760967e-07
3.893198e-07
4.000783e-07
4.114262e-07
4.267595e-07
4.444766e-07
0.000000e+00
1.688756e-08
4.044563e-08
6.332866e-08
8.510934e-08
1.051188e-07
1.231408e-07
1.390934e-07
1.528829e-07
1.643897e-07
1.735139e-07
1.803096e-07
1.852362e-07
1.894548e-07
1.948902e-07
2.038273e-07
2.161273e-07
0.000000e+00
1.766285e-11
2.186320e-11
-9.361185e-12
-1.060232e-10
-3.160063e-10
-7.095178e-10
-1.379990e-09
-2.435831e-09
-3.973472e-09
-6.018256e-09
-8.425669e-09
-1.076568e-08
-1.225001e-08
-1.166468e-08
-7.458080e-09
6.218157e-10
0.000000e+00
-1.685455e-08
-4.040133e-08
-6.333043e-08
-8.526379e-08
-1.056127e-07
-1.242808e-07
-1.413478e-07
-1.569127e-07
-1.710369e-07
-1.836923e-07
-1.947066e-07
-2.037274e-07
-2.102286e-07
-2.135602e-07
-2.129248e-07
-2.084991e-07
0.000000e+00
-3.454846e-08
-8.433762e-08
-1.310741e-07
-1.746863e-07
-2.148825e-07
-2.515646e-07
-2.847740e-07
-3.145688e-07
-3.409673e-07
-3.639054e-07
-3.832018e-07
-3.985506e-07
-4.095926e-07
-4.161450e-07
-4.183270e-07
-4.170202e-07
0.000000e+00
-5.488341e-08
-1.335421e-07
-2.042479e-07
-2.690363e-07
-3.286847e-07
-3.830949e-07
-4.322057e-07
-4.759785e-07
-5.143581e-07
-5.472573e-07
-5.745462e-07
-5.960556e-07
-6.116427e-07
-6.214450e-07
-6.262644e-07
-6.274287e-07
0.000000e+00
-9.766399e-08
-1.956630e-07
-2.866412e-07
-3.718788e-07
-4.508020e-07
-5.229207e-07
-5.879702e-07
-6.457382e-07
-6.960306e-07
-7.386947e-07
-7.736627e-07
-8.009946e-07
-8.209153e-07
-8.338906e-07
-8.405980e-07
-8.427525e-07
0.000000e+00
8.830926e-08
1.722812e-07
2.665090e-07
3.788927e-07
5.105920e-07
6.607437e-07
8.279606e-07
1.010644e-06
1.207241e-06
1.416422e-06
1.637368e-06
1.870525e-06
2.119245e-06
2.389669e-06
2.676922e-06
2.961917e-06
0.000000e+00
5.342162e-08
1.350352e-07
2.299997e-07
3.445688e-07
4.789130e-07
6.319051e-07
8.019767e-07
9.874880e-07
1.186865e-06
1.398753e-06
1.622270e-06
1.857438e-06
2.105730e-06
2.369572e-06
2.649539e-06
2.930783e-06
0.000000e+00
3.403142e-08
1.051761e-07
2.000345e-07
3.162524e-07
4.528894e-07
6.083533e-07
7.809533e-07
9.690211e-07
1.170976e-06
1.385416e-06
1.611241e-06
1.847696e-06
2.094085e-06
2.350001e-06
2.619745e-06
2.891925e-06
0.000000e+00
2.497155e-08
8.946708e-08
1.825607e-07
2.995389e-07
4.375967e-07
5.946701e-07
7.689606e-07
9.587771e-07
1.162510e-06
1.378642e-06
1.605731e-06
1.842253e-06
2.086304e-06
2.336356e-06
2.595697e-06
2.854320e-06
0.000000e+00
2.236778e-08
8.470379e-08
1.769396e-07
2.941230e-07
4.327500e-07
5.905180e-07
7.655803e-07
9.562244e-07
1.160780e-06
1.377574e-06
1.604842e-06
1.840551e-06
2.082181e-06
2.327248e-06
2.577283e-06
2.822570e-06
0.000000e+00
2.499172e-08
8.954274e-08
1.827479e-07
2.999109e-07
4.382532e-07
5.957356e-07
7.705664e-07
9.610148e-07
1.165335e-06
1.381702e-06
1.608118e-06
1.842254e-06
2.081241e-06
2.321978e-06
2.564240e-06
2.799801e-06
0.000000e+00
3.406396e-08
1.053079e-07
2.003624e-07
3.169047e-07
4.540421e-07
6.102264e-07
7.837789e-07
9.729622e-07
1.175956e-06
1.390810e-06
1.615361e-06
1.847122e-06
2.083097e-06
2.319977e-06
2.556425e-06
2.785929e-06
0.000000e+00
5.346293e-08
1.352024e-07
2.304035e-07
3.453648e-07
4.803126e-07
6.341698e-07
8.053771e-07
9.921996e-07
1.192758e-06
1.405000e-06
1.626648e-06
1.855126e-06
2.087491e-06
2.320695e-06
2.552912e-06
2.779307e-06
0.000000e+00
8.837772e-08
1.724767e-07
2.669446e-07
3.797215e-07
5.120159e-07
6.630016e-07
8.312782e-07
1.015117e-06
1.212608e-06
1.421648e-06
1.639902e-06
1.864768e-06
2.093422e-06
2.323180e-06
2.552340e-06
2.777376e-06


2.082647e-01
2.082647e-01
2.082648e-01
2.082651e-01
2.082654e-01
2.082657e-01
2.082659e-01
2.082661e-01
2.082663e-01
2.082664e-01
2.082665e-01
2.082666e-01
2.082667e-01
2.082667e-01
2.082665e-01
2.082664e-01
2.082652e-01
2.082651e-01
2.082652e-01
2.082655e-01
2.082657e-01
2.082659e-01
2.082661e-01
2.082662e-01
2.082664e-01
2.082665e-01
2.082666e-01
2.082667e-01
2.082667e-01
2.082666e-01
2.082665e-01
2.082664e-01
2.082660e-01
2.082659e-01
2.082659e-01
2.082660e-01
2.082661e-01
2.082663e-01
2.082664e-01
2.082665e-01
2.082665e-01
2.082666e-01
2.082667e-01
2.082667e-01
2.082667e-01
2.082667e-01
2.082665e-01
2.082664e-01
2.082665e-01
2.082664e-01
2.082664e-01
2.082664e-01
2.082665e-01
2.082665e-01
2.082666e-01
2.082666e-01
2.082667e-01
2.082667e-01
2.082667e-01
2.082667e-01
2.082667e-01
2.082667e-01
2.082666e-01
2.082666e-01
2.082665e-01
2.082664e-01
2.082664e-01
2.082664e-01
2.082665e-01
2.082665e-01
2.082666e-01
2.082666e-01
2.082666e-01
2.082667e-01
2.082667e-01
2.082667e-01
2.082667e-01
2.082667e-01
2.082667e-01
2.082667e-01
2.082660e-01
2.082659e-01
2.082659e-01
2.082660e-01
2.082661e-01
2.082662e-01
2.082663e-01
2.082664e-01
2.082665e-01
2.082666e-01
2.082666e-01
2.082667e-01
2.082667e-01
2.082668e-01
2.082668e-01
2.082668e-01
2.082652e-01
2.082651e-01
2.082652e-01
2.082654e-01
2.082657e-01
2.082659e-01
2.082660e-01
2.082662e-01
2.082664e-01
2.082665e-01
2.082666e-01
2.082667e-01
2.082668e-01
2.082668e-01
2.082669e-01
2.082669e-01
2.082647e-01
2.082647e-01
2.082648e-01
2.082651e-01
2.082654e-01
2.082657e-01
2.082659e-01
2.082661e-01
2.082663e-01
2.082664e-01
2.082666e-01
2.082667e-01
2.082668e-01
2.082669e-01
2.082669e-01
2.082669e-01


9.885700e-01
9.901908e-01
9.916902e-01
9.928445e-01
9.939159e-01
9.949038e-01
9.958038e-01
9.966055e-01
9.973003e-01
9.978814e-01
9.983435e-01
9.986820e-01
9.988924e-01
9.989674e-01
9.990216e-01
9.956812e-01
9.956758e-01
9.949330e-01
9.954109e-01
9.960346e-01
9.966161e-01
9.971446e-01
9.976231e-01
9.980564e-01
9.984488e-01
9.988042e-01
9.991266e-01
9.994187e-01
9.996734e-01
9.998402e-01
9.994184e-01
9.937003e-01
9.984975e-01
9.980709e-01
9.979557e-01
9.981178e-01
9.983309e-01
9.985373e-01
9.987289e-01
9.989100e-01
9.990854e-01
9.992565e-01
9.994162e-01
9.995399e-01
9.995657e-01
9.993430e-01
9.985350e-01
9.970819e-01
9.996942e-01
9.993831e-01
9.991909e-01
9.991421e-01
9.991616e-01
9.991943e-01
9.992269e-01
9.992588e-01
9.992900e-01
9.993162e-01
9.993235e-01
9.992846e-01
9.991610e-01
9.989393e-01
9.987513e-01
9.987037e-01
9.996954e-01
9.993847e-01
9.991923e-01
9.991418e-01
9.991567e-01
9.991803e-01
9.991966e-01
9.992022e-01
9.991946e-01
9.991706e-01
9.991257e-01
9.990610e-01
9.989995e-01
9.990117e-01
9.991857e-01
9.994870e-01
9.984997e-01
9.980742e-01
9.979589e-01
9.981178e-01
9.983226e-01
9.985117e-01
9.986718e-01
9.988004e-01
9.988968e-01
9.989616e-01
9.990027e-01
9.990428e-01
9.991270e-01
9.993036e-01
9.995689e-01
9.998432e-01
9.956754e-01
9.949327e-01
9.954103e-01
9.960328e-01
9.966116e-01
9.971342e-01
9.976015e-01
9.980153e-01
9.983758e-01
9.986840e-01
9.989449e-01
9.991727e-01
9.993921e-01
9.996222e-01
9.998373e-01
9.999728e-01
9.885622e-01
9.901786e-01
9.916753e-01
9.928277e-01
9.939008e-01
9.948983e-01
9.958224e-01
9.966710e-01
9.974441e-01
9.981404e-01
9.987516e-01
9.992585e-01
9.996357e-01
9.998683e-01
9.999742e-01
9.999995e-01
1 2 19 18
2 3 20 19
3 4 21 20
4 5 22 21
5 6 23 22
6 7 24 23
7 8 25 24
8 9 26 25
9 10 27 26
10 11 28 27
11 12 29 28
12 13 30 29
13 14 31 30
14 15 32 31
15 16 33 32
16 17 34 33
18 19 36 35
19 20 37 36
20 21 38 37
21 22 39 38
22 23 40 39
23 24 41 40
24 25 42 41
25 26 43 42
26 27 44 43
27 28 45 44
28 29 46 45
29 30 47 46
30 31 48 47
31 32 49 48
32 33 50 49
33 34 51 50
35 36 53 52
36 37 54 53
37 38 55 54
38 39 56 55
39 40 57 56
40 41 58 57
41 42 59 58
42 43 60 59
43 44 61 60
44 45 62 61
45 46 63 62
46 47 64 63
47 48 65 64
48 49 66 65
49 50 67 66
50 51 68 67
52 53 70 69
53 54 71 70
54 55 72 71
55 56 73 72
56 57 74 73
57 58 75 74
58 59 76 75
59 60 77 76
60 61 78 77
61 62 79 78
62 63 80 79
63 64 81 80
64 65 82 81
65 66 83 82
66 67 84 83
67 68 85 84
69 70 87 86
70 71 88 87
71 72 89 88
72 73 90 89
73 74 91 90
74 75 92 91
75 76 93 92
76 77 94 93
77 78 95 94
78 79 96 95
79 80 97 96
80 81 98 97
81 82 99 98
82 83 100 99
83 84 101 100
84 85 102 101
86 87 104 103
87 88 105 104
88 89 106 105
89 90 107 106
90 91 108 107
91 92 109 108
92 93 110 109
93 94 111 110
94 95 112 111
95 96 113 112
96 97 114 113
97 98 115 114
98 99 116 115
99 100 117 116
100 101 118 117
101 102 119 118
103 104 121 120
104 105 122 121
105 106 123 122
106 107 124 123
107 108 125 124
108 109 126 125
109 110 127 126
110 111 128 127
111 112 129 128
112 113 130 129
113 114 131 130
114 115 132 131
115 116 133 132
116 117 134 133
117 118 135 134
118 119 136 135
120 121 138 137
121 122 139 138
122 123 140 139
123 124 141 140
124 125 142 141
125 126 143 142
126 127 144 143
127 128 145 144
128 129 146 145
129 130 147 146
130 131 148 147
131 132 149 148
132 133 150 149
133 134 151 150
134 135 152 151
135 136 153 152
