TITLE = "Solution"
VARIABLES = x, y, u, v, psiu, psiv, t, stress
ZONE T="structure" N=153 E=128 F=FEBLOCK ET=QUADRILATERAL VARLOCATION=([7,8]=cellcentered)
0.000000e+00
1.250000e+01
2.500000e+01
3.750000e+01
5.000000e+01
6.250000e+01
7.500000e+01
8.750000e+01
1.000000e+02
1.125000e+02
1.250000e+02
1.375000e+02
1.500000e+02
1.625000e+02
1.750000e+02
1.875000e+02
2.000000e+02
0.000000e+00
1.250000e+01
2.500000e+01
3.750000e+01
5.000000e+01
6.250000e+01
7.500000e+01
8.750000e+01
1.000000e+02
1.125000e+02
1.250000e+02
1.375000e+02
1.500000e+02
1.625000e+02
1.750000e+02
1.875000e+02
2.000000e+02
0.000000e+00
1.250000e+01
2.500000e+01
3.750000e+01
5.000000e+01
6.250000e+01
7.500000e+01
8.750000e+01
1.000000e+02
1.125000e+02
1.250000e+02
1.375000e+02
1.500000e+02
1.625000e+02
1.750000e+02
1.875000e+02
2.000000e+02
0.000000e+00
1.250000e+01
2.500000e+01
3.750000e+01
5.000000e+01
6.250000e+01
7.500000e+01
8.750000e+01
1.000000e+02
1.125000e+02
1.250000e+02
1.375000e+02
1.500000e+02
1.625000e+02
1.750000e+02
1.875000e+02
2.000000e+02
0.000000e+00
1.250000e+01
2.500000e+01
3.750000e+01
5.000000e+01
6.250000e+01
7.500000e+01
8.750000e+01
1.000000e+02
1.125000e+02
1.250000e+02
1.375000e+02
1.500000e+02
1.625000e+02
1.750000e+02
1.875000e+02
2.000000e+02
0.000000e+00
1.250000e+01
2.500000e+01
3.750000e+01
5.000000e+01
6.250000e+01
7.500000e+01
8.750000e+01
1.000000e+02
1.125000e+02
1.250000e+02
1.375000e+02
1.500000e+02
1.625000e+02
1.750000e+02
1.875000e+02
2.000000e+02
0.000000e+00
1.250000e+01
2.500000e+01
3.750000e+01
5.000000e+01
6.250000e+01
7.500000e+01
8.750000e+01
1.000000e+02
1.125000e+02
1.250000e+02
1.375000e+02
1.500000e+02
1.625000e+02
1.750000e+02
1.875000e+02
2.000000e+02
0.000000e+00
1.250000e+01
2.500000e+01
3.750000e+01
5.000000e+01
6.250000e+01
7.500000e+01
8.750000e+01
1.000000e+02
1.125000e+02
1.250000e+02
1.375000e+02
1.500000e+02
1.625000e+02
1.750000e+02
1.875000e+02
2.000000e+02
0.000000e+00
1.250000e+01
2.500000e+01
3.750000e+01
5.000000e+01
6.250000e+01
7.500000e+01
8.750000e+01
1.000000e+02
1.125000e+02
1.250000e+02
1.375000e+02
1.500000e+02
1.625000e+02
1.750000e+02
1.875000e+02
2.000000e+02
0.000000e+00
0.000000e+00
0.000000e+00
0.000000e+00
0.000000e+00
0.000000e+00
0.000000e+00
0.000000e+00
0.000000e+00
0.000000e+00
0.000000e+00
0.000000e+00
0.000000e+00
0.000000e+00
0.000000e+00
0.000000e+00
0.000000e+00
1.250000e+01
1.250000e+01
1.250000e+01
1.250000e+01
1.250000e+01
1.250000e+01
1.250000e+01
1.250000e+01
1.250000e+01
1.250000e+01
1.250000e+01
1.250000e+01
1.250000e+01
1.250000e+01
1.250000e+01
1.250000e+01
1.250000e+01
2.500000e+01
2.500000e+01
2.500000e+01
2.500000e+01
2.500000e+01
2.500000e+01
2.500000e+01
2.500000e+01
2.500000e+01
2.500000e+01
2.500000e+01
2.500000e+01
2.500000e+01
2.500000e+01
2.500000e+01
2.500000e+01
2.500000e+01
3.750000e+01
3.750000e+01
3.750000e+01
3.750000e+01
3.750000e+01
3.750000e+01
3.750000e+01
3.750000e+01
3.750000e+01
3.750000e+01
3.750000e+01
3.750000e+01
3.750000e+01
3.750000e+01
3.750000e+01
3.750000e+01
3.750000e+01
5.000000e+01
5.000000e+01
5.000000e+01
5.000000e+01
5.000000e+01
5.000000e+01
5.000000e+01
5.000000e+01
5.000000e+01
5.000000e+01
5.000000e+01
5.000000e+01
5.000000e+01
5.000000e+01
5.000000e+01
5.000000e+01
5.000000e+01
6.250000e+01
6.250000e+01
6.250000e+01
6.250000e+01
6.250000e+01
6.250000e+01
6.250000e+01
6.250000e+01
6.250000e+01
6.250000e+01
6.250000e+01
6.250000e+01
6.250000e+01
6.250000e+01
6.250000e+01
6.250000e+01
6.250000e+01
7.500000e+01
7.500000e+01
7.500000e+01
7.500000e+01
7.500000e+01
7.500000e+01
7.500000e+01
7.500000e+01
7.500000e+01
7.500000e+01
7.500000e+01
7.500000e+01
7.500000e+01
7.500000e+01
7.500000e+01
7.500000e+01
7.500000e+01
8.750000e+01
8.750000e+01
8.750000e+01
8.750000e+01
8.750000e+01
8.750000e+01
8.750000e+01
8.750000e+01
8.750000e+01
8.750000e+01
8.750000e+01
8.750000e+01
8.750000e+01
8.750000e+01
8.750000e+01
8.750000e+01
8.750000e+01
1.000000e+02
1.000000e+02
1.000000e+02
1.000000e+02
1.000000e+02
1.000000e+02
1.000000e+02
1.000000e+02
1.000000e+02
1.000000e+02
1.000000e+02
1.000000e+02
1.000000e+02
1.000000e+02
1.000000e+02
1.000000e+02
1.000000e+02
0.000000e+00
-8.176267e-02
-1.505510e-01
-2.138455e-01
-2.727908e-01
-3.272625e-01
-3.771436e-01
-4.223953e-01
-4.630835e-01
-4.993953e-01
-5.316908e-01
-5.606011e-01
-5.872120e-01
-6.133994e-01
-6.423986e-01
-6.780133e-01
-7.047381e-01
0.000000e+00
-4.882702e-02
-1.014287e-01
-1.500033e-01
-1.947558e-01
-2.358563e-01
-2.733899e-01
-3.074068e-01
-3.379683e-01
-3.651685e-01
-3.891454e-01
-4.100717e-01
-4.280811e-01
-4.429880e-01
-4.535026e-01
-4.558073e-01
-4.640699e-01
0.000000e+00
-3.053492e-02
-6.278752e-02
-9.496450e-02
-1.250010e-01
-1.525789e-01
-1.776758e-01
-2.003199e-01
-2.205170e-01
-2.382332e-01
-2.533732e-01
-2.657255e-01
-2.748496e-01
-2.799428e-01
-2.800842e-01
-2.780496e-01
-2.864768e-01
0.000000e+00
-1.473801e-02
-3.034022e-02
-4.604110e-02
-6.105410e-02
-7.488211e-02
-8.741594e-02
-9.861903e-02
-1.084272e-01
-1.167129e-01
-1.232643e-01
-1.277721e-01
-1.298674e-01
-1.293779e-01
-1.273668e-01
-1.279167e-01
-1.341917e-01
0.000000e+00
-1.357766e-05
-3.086631e-05
-4.809835e-05
-5.724424e-05
-4.039837e-05
3.797971e-05
2.416631e-04
6.752803e-04
1.494682e-03
2.903196e-03
5.105085e-03
8.155543e-03
1.160272e-02
1.398392e-02
1.333084e-02
9.176254e-03
0.000000e+00
1.471712e-02
3.029172e-02
4.596352e-02
6.095760e-02
7.480363e-02
8.744638e-02
9.894766e-02
1.094072e-01
1.189462e-01
1.276895e-01
1.357016e-01
1.428434e-01
1.485703e-01
1.519392e-01
1.522064e-01
1.500977e-01
0.000000e+00
3.053149e-02
6.277707e-02
9.494371e-02
1.249685e-01
1.525384e-01
1.776422e-01
2.003308e-01
2.206512e-01
2.386395e-01
2.543113e-01
2.676283e-01
2.784373e-01
2.864288e-01
2.912255e-01
2.927830e-01
2.922912e-01
0.000000e+00
4.884705e-02
1.014723e-01
1.500728e-01
1.948490e-01
2.359560e-01
2.734459e-01
3.073046e-01
3.374805e-01
3.638865e-01
3.863971e-01
4.048569e-01
4.191179e-01
4.291331e-01
4.351074e-01
4.376551e-01
4.381230e-01
0.000000e+00
8.179617e-02
1.506394e-01
2.140110e-01
2.730552e-01
3.276344e-01
3.775873e-01
4.227684e-01
4.630267e-01
4.981528e-01
5.278421e-01
5.516987e-01
5.693307e-01
5.805995e-01
5.860493e-01
5.873944e-01
5.873685e-01
0.000000e+00
-4.949327e-02
-9.716137e-02
-1.589282e-01
-2.347343e-01
-3.244379e-01
-4.270566e-01
-5.414421e-01
-6.663781e-01
-8.006644e-01
-9.431924e-01
-1.093080e+00
-1.249965e+00
-1.414686e+00
-1.591515e+00
-1.793842e+00
-2.084550e+00
0.000000e+00
-3.046900e-02
-8.019461e-02
-1.427273e-01
-2.197722e-01
-3.106999e-01
-4.145617e-01
-5.301813e-01
-6.563281e-01
-7.917804e-01
-9.353989e-01
-1.086261e+00
-1.243948e+00
-1.409278e+00
-1.586039e+00
-1.787137e+00
-2.033505e+00
0.000000e+00
-2.299164e-02
-6.843243e-02
-1.311958e-01
-2.089691e-01
-3.008326e-01
-4.056491e-01
-5.222306e-01
-6.493552e-01
-7.858185e-01
-9.305031e-01
-1.082518e+00
-1.241485e+00
-1.408086e+00
-1.584998e+00
-1.775546e+00
-1.959956e+00
0.000000e+00
-1.981268e-02
-6.258437e-02
-1.244272e-01
-2.024816e-01
-2.949105e-01
-4.003804e-01
-5.176583e-01
-6.455451e-01
-7.828692e-01
-9.285372e-01
-1.081641e+00
-1.241623e+00
-1.408408e+00
-1.581781e+00
-1.756867e+00
-1.918161e+00
0.000000e+00
-1.889691e-02
-6.081449e-02
-1.222680e-01
-2.003436e-01
-2.930025e-01
-3.987757e-01
-5.164311e-01
-6.447926e-01
-7.827076e-01
-9.290584e-01
-1.082793e+00
-1.242917e+00
-1.408251e+00
-1.576318e+00
-1.741372e+00
-1.893427e+00
0.000000e+00
-1.980092e-02
-6.257600e-02
-1.244421e-01
-2.025547e-01
-2.951032e-01
-4.007927e-01
-5.184391e-01
-6.468914e-01
-7.849911e-01
-9.315484e-01
-1.085290e+00
-1.244729e+00
-1.407836e+00
-1.571478e+00
-1.730872e+00
-1.879682e+00
0.000000e+00
-2.297246e-02
-6.841856e-02
-1.312207e-01
-2.090924e-01
-3.011587e-01
-4.063481e-01
-5.235565e-01
-6.516442e-01
-7.894331e-01
-9.356530e-01
-1.088835e+00
-1.247134e+00
-1.408104e+00
-1.568573e+00
-1.724908e+00
-1.873619e+00
0.000000e+00
-3.045101e-02
-8.018253e-02
-1.427603e-01
-2.199202e-01
-3.110833e-01
-4.153754e-01
-5.317138e-01
-6.589575e-01
-7.959070e-01
-9.412400e-01
-1.093383e+00
-1.250333e+00
-1.409511e+00
-1.567845e+00
-1.722442e+00
-1.872195e+00
0.000000e+00
-4.948584e-02
-9.716241e-02
-1.589793e-01
-2.349059e-01
-3.248477e-01
-4.278892e-01
-5.429612e-01
-6.689107e-01
-8.045169e-01
-9.484259e-01
-1.099029e+00
-1.254310e+00
-1.411746e+00
-1.568464e+00
-1.721991e+00
-1.872218e+00


0.000000e+00
6.625900e-09
1.334821e-08
1.953969e-08
2.524707e-08
3.044016e-08
3.511357e-08
3.928748e-08
4.299209e-08
4.626337e-08
4.914143e-08
5.166670e-08
5.386875e-08
5.574626e-08
5.729036e-08
5.863318e-08
5.985158e-08
0.000000e+00
3.858405e-09
9.330094e-09
1.416262e-08
1.849661e-08
2.240273e-08
2.589798e-08
2.900278e-08
3.173827e-08
3.412309e-08
3.617118e-08
3.788894e-08
3.927718e-08
4.037178e-08
4.137368e-08
4.259966e-08
4.389139e-08
0.000000e+00
2.518253e-09
6.008480e-09
9.213346e-09
1.212783e-08
1.474101e-08
1.706091e-08
1.910194e-08
2.087568e-08
2.238852e-08
2.364212e-08
2.463868e-08
2.540043e-08
2.601370e-08
2.666921e-08
2.758333e-08
2.865922e-08
0.000000e+00
1.256657e-09
2.904504e-09
4.480008e-09
5.941587e-09
7.248473e-09
8.396763e-09
9.391278e-09
1.023457e-08
1.092613e-08
1.146555e-08
1.186085e-08
1.214370e-08
1.238706e-08
1.270701e-08
1.324102e-08
1.398198e-08
0.000000e+00
6.687886e-13
4.628496e-13
-1.917422e-12
-8.264147e-12
-2.141562e-11
-4.550700e-11
-8.601475e-11
-1.492284e-10
-2.406032e-10
-3.611683e-10
-5.015827e-10
-6.354416e-10
-7.161463e-10
-6.750426e-10
-4.233580e-10
5.705419e-11
0.000000e+00
-1.255355e-09
-2.903305e-09
-4.482444e-09
-5.954094e-09
-7.282195e-09
-8.469850e-09
-9.531294e-09
-1.048024e-08
-1.132656e-08
-1.207364e-08
-1.271548e-08
-1.323507e-08
-1.360551e-08
-1.379342e-08
-1.375404e-08
-1.349381e-08
0.000000e+00
-2.517365e-09
-6.007537e-09
-9.213782e-09
-1.213223e-08
-1.475410e-08
-1.709079e-08
-1.916148e-08
-2.098386e-08
-2.257105e-08
-2.392967e-08
-2.505825e-08
-2.594713e-08
-2.658248e-08
-2.695883e-08
-2.708422e-08
-2.700752e-08
0.000000e+00
-3.859679e-09
-9.332934e-09
-1.416562e-08
-1.849746e-08
-2.239737e-08
-2.587967e-08
-2.896100e-08
-3.165780e-08
-3.398367e-08
-3.594860e-08
-3.755844e-08
-3.881502e-08
-3.971953e-08
-4.028644e-08
-4.056467e-08
-4.063126e-08
0.000000e+00
-6.632891e-09
-1.336053e-08
-1.955483e-08
-2.525996e-08
-3.044031e-08
-3.508127e-08
-3.918885e-08
-4.277335e-08
-4.584525e-08
-4.841553e-08
-5.049765e-08
-5.210952e-08
-5.327527e-08
-5.402950e-08
-5.441648e-08
-5.453954e-08
0.000000e+00
6.002182e-09
1.155313e-08
1.772289e-08
2.508787e-08
3.372388e-08
4.355783e-08
5.447966e-08
6.636867e-08
7.911213e-08
9.261567e-08
1.068198e-07
1.217445e-07
1.375903e-07
1.547526e-07
1.729811e-07
1.911079e-07
0.000000e+00
3.562608e-09
8.961997e-09
1.523077e-08
2.279668e-08
3.165670e-08
4.171662e-08
5.285397e-08
6.494644e-08
7.788115e-08
9.156359e-08
1.059320e-07
1.209825e-07
1.368037e-07
1.535560e-07
1.713172e-07
1.891993e-07
0.000000e+00
2.190956e-09
6.893003e-09
1.320247e-08
2.092495e-08
2.997592e-08
4.022759e-08
5.155017e-08
6.382085e-08
7.692765e-08
9.077455e-08
1.052882e-07
1.204201e-07
1.361278e-07
1.523905e-07
1.695099e-07
1.868265e-07
0.000000e+00
1.563434e-09
5.825334e-09
1.203958e-08
1.983804e-08
2.900307e-08
3.937399e-08
5.081467e-08
6.320199e-08
7.642332e-08
9.037661e-08
1.049690e-07
1.201065e-07
1.356738e-07
1.515826e-07
1.680632e-07
1.845468e-07
0.000000e+00
1.386995e-09
5.507142e-09
1.166883e-08
1.948821e-08
2.869610e-08
3.911535e-08
5.060693e-08
6.304693e-08
7.631954e-08
9.031378e-08
1.049179e-07
1.200078e-07
1.354330e-07
1.510507e-07
1.669727e-07
1.826429e-07
0.000000e+00
1.564779e-09
5.829891e-09
1.205053e-08
1.985959e-08
2.904100e-08
3.943563e-08
5.090783e-08
6.333229e-08
7.658845e-08
9.055614e-08
1.051095e-07
1.201072e-07
1.353798e-07
1.507491e-07
1.662119e-07
1.812933e-07
0.000000e+00
2.193119e-09
6.900960e-09
1.322175e-08
2.096290e-08
3.004281e-08
4.033637e-08
5.171470e-08
6.405114e-08
7.721987e-08
9.109260e-08
1.055334e-07
1.203913e-07
1.354896e-07
1.506375e-07
1.657598e-07
1.804802e-07
0.000000e+00
3.565396e-09
8.972292e-09
1.525484e-08
2.284345e-08
3.173848e-08
4.184878e-08
5.305259e-08
6.522233e-08
7.822749e-08
9.193299e-08
1.061953e-07
1.208575e-07
1.357452e-07
1.506808e-07
1.655574e-07
1.800963e-07
0.000000e+00
6.006777e-09
1.156542e-08
1.774925e-08
2.513707e-08
3.380760e-08
4.369002e-08
5.467369e-08
6.663062e-08
7.942751e-08
9.292527e-08
1.069760e-07
1.214204e-07
1.360896e-07
1.508250e-07
1.655248e-07
1.799858e-07


2.389007e-01
2.389008e-01
2.389025e-01
2.389051e-01
2.389073e-01
2.389092e-01
2.389109e-01
2.389123e-01
2.389136e-01
2.389147e-01
2.389156e-01
2.389162e-01
2.389167e-01
2.389168e-01
2.389165e-01
2.389163e-01
2.389043e-01
2.389043e-01
2.389054e-01
2.389074e-01
2.389091e-01
2.389106e-01
2.389119e-01
2.389131e-01
2.389142e-01
2.389150e-01
2.389158e-01
2.389163e-01
2.389167e-01
2.389167e-01
2.389165e-01
2.389162e-01
2.389101e-01
2.389099e-01
2.389103e-01
2.389113e-01
2.389122e-01
2.389130e-01
2.389138e-01
2.389145e-01
2.389151e-01
2.389157e-01
2.389161e-01
2.389165e-01
2.389167e-01
2.389167e-01
2.389165e-01
2.389164e-01
2.389141e-01
2.389138e-01
2.389138e-01
2.389140e-01
2.389144e-01
2.389148e-01
2.389151e-01
2.389155e-01
2.389158e-01
2.389161e-01
2.389163e-01
2.389165e-01
2.389166e-01
2.389167e-01
2.389167e-01
2.389167e-01
2.389141e-01
2.389138e-01
2.389138e-01
2.389140e-01
2.389144e-01
2.389147e-01
2.389151e-01
2.389154e-01
2.389157e-01
2.389160e-01
2.389162e-01
2.389164e-01
2.389166e-01
2.389168e-01
2.389169e-01
2.389171e-01
2.389101e-01
2.389099e-01
2.389103e-01
2.389113e-01
2.389122e-01
2.389130e-01
2.389138e-01
2.389144e-01
2.389150e-01
2.389155e-01
2.389159e-01
2.389163e-01
2.389166e-01
2.389170e-01
2.389172e-01
2.389174e-01
2.389043e-01
2.389043e-01
2.389054e-01
2.389074e-01
2.389091e-01
2.389106e-01
2.389119e-01
2.389131e-01
2.389141e-01
2.389150e-01
2.389157e-01
2.389163e-01
2.389168e-01
2.389172e-01
2.389175e-01
2.389176e-01
2.389007e-01
2.389008e-01
2.389025e-01
2.389051e-01
2.389073e-01
2.389092e-01
2.389109e-01
2.389124e-01
2.389136e-01
2.389147e-01
2.389156e-01
2.389164e-01
2.389169e-01
2.389173e-01
2.389176e-01
2.389178e-01


9.849596e-01
9.870924e-01
9.890654e-01
9.905840e-01
9.919938e-01
9.932937e-01
9.944781e-01
9.955329e-01
9.964472e-01
9.972120e-01
9.978200e-01
9.982655e-01
9.985424e-01
9.986411e-01
9.987124e-01
9.943165e-01
9.943100e-01
9.933325e-01
9.939613e-01
9.947820e-01
9.955471e-01
9.962425e-01
9.968721e-01
9.974423e-01
9.979586e-01
9.984263e-01
9.988507e-01
9.992350e-01
9.995702e-01
9.997897e-01
9.992346e-01
9.917096e-01
9.980230e-01
9.974616e-01
9.973100e-01
9.975231e-01
9.978035e-01
9.980752e-01
9.983273e-01
9.985656e-01
9.987965e-01
9.990216e-01
9.992318e-01
9.993945e-01
9.994285e-01
9.991354e-01
9.980721e-01
9.961598e-01
9.995976e-01
9.991882e-01
9.989352e-01
9.988711e-01
9.988967e-01
9.989397e-01
9.989826e-01
9.990245e-01
9.990657e-01
9.991002e-01
9.991098e-01
9.990585e-01
9.988959e-01
9.986041e-01
9.983567e-01
9.982941e-01
9.995991e-01
9.991903e-01
9.989372e-01
9.988707e-01
9.988903e-01
9.989213e-01
9.989428e-01
9.989501e-01
9.989402e-01
9.989085e-01
9.988494e-01
9.987644e-01
9.986833e-01
9.986994e-01
9.989284e-01
9.993248e-01
9.980258e-01
9.974659e-01
9.973141e-01
9.975232e-01
9.977927e-01
9.980415e-01
9.982521e-01
9.984214e-01
9.985482e-01
9.986335e-01
9.986875e-01
9.987403e-01
9.988511e-01
9.990836e-01
9.994327e-01
9.997937e-01
9.943094e-01
9.933321e-01
9.939604e-01
9.947796e-01
9.955411e-01
9.962288e-01
9.968437e-01
9.973882e-01
9.978626e-01
9.982681e-01
9.986115e-01
9.989113e-01
9.992000e-01
9.995028e-01
9.997859e-01
9.999642e-01
9.849494e-01
9.870764e-01
9.890457e-01
9.905620e-01
9.919739e-01
9.932865e-01
9.945025e-01
9.956192e-01
9.966366e-01
9.975529e-01
9.983571e-01
9.990242e-01
9.995205e-01
9.998267e-01
9.999660e-01
9.999993e-01
1 2 19 18
2 3 20 19
3 4 21 20
4 5 22 21
5 6 23 22
6 7 24 23
7 8 25 24
8 9 26 25
9 10 27 26
10 11 28 27
11 12 29 28
12 13 30 29
13 14 31 30
14 15 32 31
15 16 33 32
16 17 34 33
18 19 36 35
19 20 37 36
20 21 38 37
21 22 39 38
22 23 40 39
23 24 41 40
24 25 42 41
25 26 43 42
26 27 44 43
27 28 45 44
28 29 46 45
29 30 47 46
30 31 48 47
31 32 49 48
32 33 50 49
33 34 51 50
35 36 53 52
36 37 54 53
37 38 55 54
38 39 56 55
39 40 57 56
40 41 58 57
41 42 59 58
42 43 60 59
43 44 61 60
44 45 62 61
45 46 63 62
46 47 64 63
47 48 65 64
48 49 66 65
49 50 67 66
50 51 68 67
52 53 70 69
53 54 71 70
54 55 72 71
55 56 73 72
56 57 74 73
57 58 75 74
58 59 76 75
59 60 77 76
60 61 78 77
61 62 79 78
62 63 80 79
63 64 81 80
64 65 82 81
65 66 83 82
66 67 84 83
67 68 85 84
69 70 87 86
70 71 88 87
71 72 89 88
72 73 90 89
73 74 91 90
74 75 92 91
75 76 93 92
76 77 94 93
77 78 95 94
78 79 96 95
79 80 97 96
80 81 98 97
81 82 99 98
82 83 100 99
83 84 101 100
84 85 102 101
86 87 104 103
87 88 105 104
88 89 106 105
89 90 107 106
90 91 108 107
91 92 109 108
92 93 110 109
93 94 111 110
94 95 112 111
95 96 113 112
96 97 114 113
97 98 115 114
98 99 116 115
99 100 117 116
100 101 118 117
101 102 119 118
103 104 121 120
104 105 122 121
105 106 123 122
106 107 124 123
107 108 125 124
108 109 126 125
109 110 127 126
110 111 128 127
111 112 129 128
112 113 130 129
113 114 131 130
114 115 132 131
115 116 133 132
116 117 134 133
117 118 135 134
118 119 136 135
120 121 138 137
121 122 139 138
122 123 140 139
123 124 141 140
124 125 142 141
125 126 143 142
126 127 144 143
127 128 145 144
128 129 146 145
129 130 147 146
130 131 148 147
131 132 149 148
132 133 150 149
133 134 151 150
134 135 152 151
135 136 153 152
