TITLE = "Solution"
VARIABLES = x, y, u, v, psiu, psiv, t, stress
ZONE T="structure" N=153 E=128 F=FEBLOCK ET=QUADRILATERAL VARLOCATION=([7,8]=cellcentered)
0.000000e+00
1.250000e+01
2.500000e+01
3.750000e+01
5.000000e+01
6.250000e+01
7.500000e+01
8.750000e+01
1.000000e+02
1.125000e+02
1.250000e+02
1.375000e+02
1.500000e+02
1.625000e+02
1.750000e+02
1.875000e+02
2.000000e+02
0.000000e+00
1.250000e+01
2.500000e+01
3.750000e+01
5.000000e+01
6.250000e+01
7.500000e+01
8.750000e+01
1.000000e+02
1.125000e+02
1.250000e+02
1.375000e+02
1.500000e+02
1.625000e+02
1.750000e+02
1.875000e+02
2.000000e+02
0.000000e+00
1.250000e+01
2.500000e+01
3.750000e+01
5.000000e+01
6.250000e+01
7.500000e+01
8.750000e+01
1.000000e+02
1.125000e+02
1.250000e+02
1.375000e+02
1.500000e+02
1.625000e+02
1.750000e+02
1.875000e+02
2.000000e+02
0.000000e+00
1.250000e+01
2.500000e+01
3.750000e+01
5.000000e+01
6.250000e+01
7.500000e+01
8.750000e+01
1.000000e+02
1.125000e+02
1.250000e+02
1.375000e+02
1.500000e+02
1.625000e+02
1.750000e+02
1.875000e+02
2.000000e+02
0.000000e+00
1.250000e+01
2.500000e+01
3.750000e+01
5.000000e+01
6.250000e+01
7.500000e+01
8.750000e+01
1.000000e+02
1.125000e+02
1.250000e+02
1.375000e+02
1.500000e+02
1.625000e+02
1.750000e+02
1.875000e+02
2.000000e+02
0.000000e+00
1.250000e+01
2.500000e+01
3.750000e+01
5.000000e+01
6.250000e+01
7.500000e+01
8.750000e+01
1.000000e+02
1.125000e+02
1.250000e+02
1.375000e+02
1.500000e+02
1.625000e+02
1.750000e+02
1.875000e+02
2.000000e+02
0.000000e+00
1.250000e+01
2.500000e+01
3.750000e+01
5.000000e+01
6.250000e+01
7.500000e+01
8.750000e+01
1.000000e+02
1.125000e+02
1.250000e+02
1.375000e+02
1.500000e+02
1.625000e+02
1.750000e+02
1.875000e+02
2.000000e+02
0.000000e+00
1.250000e+01
2.500000e+01
3.750000e+01
5.000000e+01
6.250000e+01
7.500000e+01
8.750000e+01
1.000000e+02
1.125000e+02
1.250000e+02
1.375000e+02
1.500000e+02
1.625000e+02
1.750000e+02
1.875000e+02
2.000000e+02
0.000000e+00
1.250000e+01
2.500000e+01
3.750000e+01
5.000000e+01
6.250000e+01
7.500000e+01
8.750000e+01
1.000000e+02
1.125000e+02
1.250000e+02
1.375000e+02
1.500000e+02
1.625000e+02
1.750000e+02
1.875000e+02
2.000000e+02
0.000000e+00
0.000000e+00
0.000000e+00
0.000000e+00
0.000000e+00
0.000000e+00
0.000000e+00
0.000000e+00
0.000000e+00
0.000000e+00
0.000000e+00
0.000000e+00
0.000000e+00
0.000000e+00
0.000000e+00
0.000000e+00
0.000000e+00
1.250000e+01
1.250000e+01
1.250000e+01
1.250000e+01
1.250000e+01
1.250000e+01
1.250000e+01
1.250000e+01
1.250000e+01
1.250000e+01
1.250000e+01
1.250000e+01
1.250000e+01
1.250000e+01
1.250000e+01
1.250000e+01
1.250000e+01
2.500000e+01
2.500000e+01
2.500000e+01
2.500000e+01
2.500000e+01
2.500000e+01
2.500000e+01
2.500000e+01
2.500000e+01
2.500000e+01
2.500000e+01
2.500000e+01
2.500000e+01
2.500000e+01
2.500000e+01
2.500000e+01
2.500000e+01
3.750000e+01
3.750000e+01
3.750000e+01
3.750000e+01
3.750000e+01
3.750000e+01
3.750000e+01
3.750000e+01
3.750000e+01
3.750000e+01
3.750000e+01
3.750000e+01
3.750000e+01
3.750000e+01
3.750000e+01
3.750000e+01
3.750000e+01
5.000000e+01
5.000000e+01
5.000000e+01
5.000000e+01
5.000000e+01
5.000000e+01
5.000000e+01
5.000000e+01
5.000000e+01
5.000000e+01
5.000000e+01
5.000000e+01
5.000000e+01
5.000000e+01
5.000000e+01
5.000000e+01
5.000000e+01
6.250000e+01
6.250000e+01
6.250000e+01
6.250000e+01
6.250000e+01
6.250000e+01
6.250000e+01
6.250000e+01
6.250000e+01
6.250000e+01
6.250000e+01
6.250000e+01
6.250000e+01
6.250000e+01
6.250000e+01
6.250000e+01
6.250000e+01
7.500000e+01
7.500000e+01
7.500000e+01
7.500000e+01
7.500000e+01
7.500000e+01
7.500000e+01
7.500000e+01
7.500000e+01
7.500000e+01
7.500000e+01
7.500000e+01
7.500000e+01
7.500000e+01
7.500000e+01
7.500000e+01
7.500000e+01
8.750000e+01
8.750000e+01
8.750000e+01
8.750000e+01
8.750000e+01
8.750000e+01
8.750000e+01
8.750000e+01
8.750000e+01
8.750000e+01
8.750000e+01
8.750000e+01
8.750000e+01
8.750000e+01
8.750000e+01
8.750000e+01
8.750000e+01
1.000000e+02
1.000000e+02
1.000000e+02
1.000000e+02
1.000000e+02
1.000000e+02
1.000000e+02
1.000000e+02
1.000000e+02
1.000000e+02
1.000000e+02
1.000000e+02
1.000000e+02
1.000000e+02
1.000000e+02
1.000000e+02
1.000000e+02
0.000000e+00
-1.022557e+00
-1.671188e+00
-2.402294e+00
-3.071588e+00
-3.650441e+00
-4.338359e+00
-5.087058e+00
-5.749559e+00
-6.449402e+00
-7.122167e+00
-7.768051e+00
-8.459778e+00
-9.323773e+00
-9.955158e+00
-1.057149e+01
-1.105873e+01
0.000000e+00
-4.665574e-01
-9.157810e-01
-1.431573e+00
-1.964497e+00
-2.436532e+00
-2.968797e+00
-3.481152e+00
-3.954290e+00
-4.474464e+00
-4.981090e+00
-5.456973e+00
-5.971590e+00
-6.522668e+00
-6.799557e+00
-6.860899e+00
-7.011685e+00
0.000000e+00
-1.583089e-01
-3.720500e-01
-6.869781e-01
-1.062165e+00
-1.420891e+00
-1.765914e+00
-2.050949e+00
-2.344122e+00
-2.699197e+00
-3.042713e+00
-3.350184e+00
-3.646244e+00
-3.872604e+00
-3.915546e+00
-3.900481e+00
-4.046555e+00
0.000000e+00
-8.818871e-02
-1.730250e-01
-3.281196e-01
-4.742960e-01
-6.186853e-01
-7.362121e-01
-8.471824e-01
-9.935965e-01
-1.183701e+00
-1.351758e+00
-1.499283e+00
-1.581755e+00
-1.555102e+00
-1.485579e+00
-1.484604e+00
-1.608606e+00
0.000000e+00
-1.393395e-02
-2.689845e-02
-2.903979e-02
-1.874242e-02
2.955250e-03
3.887782e-02
7.547253e-02
1.013963e-01
1.281534e-01
1.469138e-01
1.963430e-01
2.885048e-01
4.206504e-01
5.503295e-01
5.773533e-01
4.765912e-01
0.000000e+00
7.513853e-02
1.304808e-01
2.394141e-01
4.017347e-01
6.145746e-01
8.346074e-01
1.020456e+00
1.222221e+00
1.426041e+00
1.651142e+00
1.893776e+00
2.127202e+00
2.321148e+00
2.460601e+00
2.498061e+00
2.439031e+00
0.000000e+00
2.358518e-01
4.654878e-01
7.215387e-01
1.040161e+00
1.385258e+00
1.769037e+00
2.160730e+00
2.528137e+00
2.905431e+00
3.260466e+00
3.624694e+00
3.962862e+00
4.220418e+00
4.385016e+00
4.436055e+00
4.419950e+00
0.000000e+00
5.516089e-01
1.010770e+00
1.500194e+00
2.046080e+00
2.514049e+00
3.019847e+00
3.545289e+00
4.023501e+00
4.528955e+00
5.006581e+00
5.457103e+00
5.905230e+00
6.230472e+00
6.434627e+00
6.520930e+00
6.536221e+00
0.000000e+00
1.088684e+00
1.723340e+00
2.468434e+00
3.242907e+00
3.840199e+00
4.505098e+00
5.147253e+00
5.745604e+00
6.367597e+00
6.999950e+00
7.577513e+00
8.155625e+00
8.538763e+00
8.724714e+00
8.770244e+00
8.769408e+00
0.000000e+00
-6.288868e-01
-1.361013e+00
-2.345621e+00
-3.475776e+00
-4.732437e+00
-6.154268e+00
-7.742848e+00
-9.537114e+00
-1.154315e+01
-1.370266e+01
-1.602378e+01
-1.854014e+01
-2.123497e+01
-2.413087e+01
-2.748517e+01
-3.244362e+01
0.000000e+00
-4.281419e-01
-1.197648e+00
-2.157124e+00
-3.311357e+00
-4.566975e+00
-5.972809e+00
-7.564662e+00
-9.360465e+00
-1.136622e+01
-1.353545e+01
-1.585275e+01
-1.834881e+01
-2.108566e+01
-2.403471e+01
-2.736099e+01
-3.150318e+01
0.000000e+00
-3.987867e-01
-1.088389e+00
-2.039858e+00
-3.177967e+00
-4.444618e+00
-5.869013e+00
-7.456555e+00
-9.237471e+00
-1.125351e+01
-1.342894e+01
-1.574632e+01
-1.825331e+01
-2.105172e+01
-2.401932e+01
-2.717301e+01
-3.025178e+01
0.000000e+00
-4.535941e-01
-1.072349e+00
-1.990720e+00
-3.088541e+00
-4.378729e+00
-5.835781e+00
-7.413319e+00
-9.189278e+00
-1.120898e+01
-1.338582e+01
-1.573219e+01
-1.825441e+01
-2.104231e+01
-2.395345e+01
-2.685441e+01
-2.948887e+01
0.000000e+00
-4.577132e-01
-1.102675e+00
-1.954849e+00
-3.061833e+00
-4.355091e+00
-5.844263e+00
-7.441538e+00
-9.229326e+00
-1.123606e+01
-1.340563e+01
-1.577572e+01
-1.829050e+01
-2.098448e+01
-2.380662e+01
-2.650896e+01
-2.885573e+01
0.000000e+00
-4.522454e-01
-1.088055e+00
-1.953192e+00
-3.071769e+00
-4.385148e+00
-5.894826e+00
-7.520247e+00
-9.323529e+00
-1.131487e+01
-1.346993e+01
-1.581899e+01
-1.832221e+01
-2.094133e+01
-2.365187e+01
-2.622618e+01
-2.844286e+01
0.000000e+00
-4.135769e-01
-1.095914e+00
-1.989531e+00
-3.142766e+00
-4.482006e+00
-5.985590e+00
-7.639231e+00
-9.438645e+00
-1.141557e+01
-1.355604e+01
-1.587453e+01
-1.836406e+01
-2.093911e+01
-2.355378e+01
-2.603036e+01
-2.823996e+01
0.000000e+00
-4.551222e-01
-1.189922e+00
-2.096402e+00
-3.272519e+00
-4.616454e+00
-6.118131e+00
-7.783629e+00
-9.576275e+00
-1.154192e+01
-1.366978e+01
-1.596667e+01
-1.844188e+01
-2.098589e+01
-2.352995e+01
-2.594455e+01
-2.819414e+01
0.000000e+00
-6.599497e-01
-1.347068e+00
-2.293348e+00
-3.450219e+00
-4.780741e+00
-6.297165e+00
-7.951387e+00
-9.743860e+00
-1.170577e+01
-1.382755e+01
-1.611280e+01
-1.856722e+01
-2.106556e+01
-2.355049e+01
-2.592899e+01
-2.819503e+01


0.000000e+00
3.757551e-05
2.958264e-05
3.679363e-05
5.606700e-05
6.600546e-05
7.841600e-05
1.030694e-04
1.179276e-04
1.305469e-04
1.493332e-04
1.660067e-04
1.832343e-04
1.977968e-04
2.044970e-04
2.102267e-04
2.180381e-04
0.000000e+00
3.225934e-05
2.576011e-05
2.164700e-05
4.554123e-05
5.270442e-05
6.094199e-05
7.837559e-05
8.924119e-05
9.665123e-05
1.099635e-04
1.228670e-04
1.334608e-04
1.402632e-04
1.402427e-04
1.433623e-04
1.500572e-04
0.000000e+00
2.585102e-05
1.854305e-05
1.322384e-05
3.526927e-05
3.766634e-05
4.256536e-05
5.111119e-05
5.720116e-05
6.199367e-05
6.996030e-05
7.684644e-05
8.110907e-05
8.190549e-05
8.120468e-05
8.348655e-05
8.927497e-05
0.000000e+00
1.713170e-05
3.957410e-06
1.567662e-05
1.621824e-05
1.884972e-05
2.029078e-05
2.292090e-05
2.425852e-05
2.719550e-05
3.025011e-05
3.039676e-05
3.017513e-05
2.886219e-05
2.968933e-05
3.366470e-05
4.104574e-05
0.000000e+00
-4.003795e-07
4.582066e-06
2.327256e-06
3.217870e-06
1.066144e-06
-6.620219e-07
-2.065115e-06
-3.240377e-06
-3.965064e-06
-5.217901e-06
-5.397186e-06
-8.440562e-06
-1.199433e-05
-1.244363e-05
-9.133440e-06
-4.334589e-06
0.000000e+00
-1.846489e-06
-7.023045e-06
-4.566215e-06
-1.415004e-05
-1.584622e-05
-2.085571e-05
-2.741457e-05
-3.010944e-05
-3.573760e-05
-3.681688e-05
-4.073220e-05
-4.341629e-05
-4.829628e-05
-5.194640e-05
-5.337734e-05
-5.313168e-05
0.000000e+00
-7.090179e-06
-1.091873e-05
-1.812963e-05
-3.183716e-05
-4.018035e-05
-4.095032e-05
-5.313224e-05
-6.339848e-05
-6.687075e-05
-7.345645e-05
-8.297702e-05
-9.192807e-05
-9.383808e-05
-9.640262e-05
-9.862408e-05
-9.960200e-05
0.000000e+00
-8.664377e-06
-1.522953e-05
-2.691678e-05
-4.960956e-05
-5.914013e-05
-5.999214e-05
-7.578691e-05
-9.106566e-05
-9.522536e-05
-1.038281e-04
-1.257234e-04
-1.480372e-04
-1.494646e-04
-1.479294e-04
-1.475406e-04
-1.477622e-04
0.000000e+00
-1.198304e-05
-2.350085e-05
-3.554700e-05
-6.444827e-05
-7.484402e-05
-8.079921e-05
-9.923017e-05
-1.128374e-04
-1.219953e-04
-1.292619e-04
-1.593239e-04
-1.896389e-04
-1.984384e-04
-1.987679e-04
-1.977381e-04
-1.973006e-04
0.000000e+00
2.381788e-05
1.822086e-05
3.563691e-05
5.774362e-05
6.999432e-05
9.318437e-05
1.241096e-04
1.529378e-04
1.893627e-04
2.337124e-04
2.796427e-04
3.306189e-04
3.858015e-04
4.491798e-04
5.243084e-04
6.069594e-04
0.000000e+00
1.941740e-05
2.233983e-05
2.809176e-05
5.039286e-05
6.583239e-05
8.577263e-05
1.150057e-04
1.477397e-04
1.832387e-04
2.259627e-04
2.728139e-04
3.246341e-04
3.829745e-04
4.453989e-04
5.165474e-04
5.950712e-04
0.000000e+00
1.618114e-05
2.373287e-05
2.404457e-05
4.233296e-05
6.242124e-05
8.193126e-05
1.098568e-04
1.436264e-04
1.798073e-04
2.208072e-04
2.678213e-04
3.213099e-04
3.828852e-04
4.417656e-04
5.073465e-04
5.821813e-04
0.000000e+00
1.383254e-05
1.946032e-05
2.331450e-05
3.862422e-05
6.055269e-05
8.156367e-05
1.089472e-04
1.420846e-04
1.783635e-04
2.193953e-04
2.649490e-04
3.199950e-04
3.820767e-04
4.381116e-04
4.955654e-04
5.627823e-04
0.000000e+00
7.873503e-06
1.573774e-05
2.203475e-05
3.829386e-05
6.018698e-05
8.277663e-05
1.099317e-04
1.423240e-04
1.784570e-04
2.183463e-04
2.631168e-04
3.191601e-04
3.824997e-04
4.363811e-04
4.859247e-04
5.441955e-04
0.000000e+00
4.862676e-06
1.323337e-05
2.083618e-05
3.882594e-05
6.268999e-05
8.451778e-05
1.113839e-04
1.440569e-04
1.797480e-04
2.164484e-04
2.624158e-04
3.200560e-04
3.829822e-04
4.385029e-04
4.855888e-04
5.361283e-04
0.000000e+00
5.479169e-06
1.294277e-05
2.207790e-05
4.195137e-05
6.597388e-05
8.719357e-05
1.134864e-04
1.476191e-04
1.806137e-04
2.161228e-04
2.633489e-04
3.233748e-04
3.842941e-04
4.386823e-04
4.867683e-04
5.349919e-04
0.000000e+00
7.018804e-06
1.659964e-05
2.853255e-05
4.914033e-05
6.989610e-05
9.009243e-05
1.207011e-04
1.524548e-04
1.828700e-04
2.193510e-04
2.705255e-04
3.309359e-04
3.848029e-04
4.373218e-04
4.871645e-04
5.358932e-04
0.000000e+00
1.100199e-05
2.089000e-05
3.784775e-05
5.880839e-05
7.221534e-05
9.504908e-05
1.296690e-04
1.579874e-04
1.866291e-04
2.261490e-04
2.857995e-04
3.403749e-04
3.853224e-04
4.363924e-04
4.869521e-04
5.363168e-04


7.653429e+00
6.934677e+00
6.805508e+00
5.259035e+00
5.326628e+00
6.944334e+00
6.605004e+00
4.960644e+00
4.770984e+00
4.970008e+00
5.342124e+00
6.868160e+00
8.914000e+00
8.856308e+00
7.784060e+00
7.187625e+00
8.731089e+00
8.738683e+00
8.321583e+00
7.402056e+00
7.031936e+00
7.669003e+00
6.818536e+00
6.053016e+00
6.272868e+00
6.312088e+00
6.616478e+00
7.982633e+00
9.176011e+00
8.473621e+00
6.926992e+00
7.190092e+00
9.785169e+00
9.729033e+00
9.795983e+00
9.213974e+00
9.102115e+00
8.955439e+00
8.448951e+00
8.243933e+00
8.593988e+00
8.533912e+00
8.636755e+00
9.252977e+00
9.643958e+00
8.172785e+00
6.749994e+00
7.012837e+00
9.861062e+00
9.924137e+00
9.934074e+00
9.834162e+00
9.768027e+00
9.836398e+00
9.657232e+00
9.682097e+00
9.750822e+00
9.688014e+00
9.529279e+00
9.020450e+00
8.899822e+00
8.246575e+00
7.519875e+00
7.749916e+00
9.901138e+00
9.938051e+00
9.763635e+00
9.869506e+00
9.785593e+00
9.844316e+00
9.728368e+00
9.687148e+00
9.811168e+00
9.435263e+00
8.723355e+00
7.752862e+00
7.749554e+00
8.611407e+00
8.777612e+00
8.959120e+00
9.920764e+00
9.144256e+00
8.990642e+00
9.030526e+00
9.350841e+00
9.292025e+00
8.692150e+00
8.610820e+00
8.723467e+00
8.549057e+00
7.909160e+00
7.565858e+00
8.168101e+00
9.217946e+00
9.727863e+00
9.800186e+00
8.735058e+00
7.882861e+00
7.412642e+00
7.889425e+00
7.941569e+00
7.623690e+00
6.624136e+00
6.342903e+00
7.544400e+00
7.906894e+00
8.274948e+00
8.856017e+00
9.322242e+00
9.889042e+00
9.883560e+00
9.881324e+00
7.924841e+00
6.378873e+00
6.964786e+00
7.093865e+00
6.678847e+00
6.355237e+00
4.928577e+00
5.043715e+00
7.052280e+00
8.509688e+00
9.107783e+00
9.836830e+00
9.970305e+00
9.948667e+00
9.931393e+00
9.931294e+00


-9.387263e-01
-7.953961e-02
-3.625367e-01
-2.720209e-01
1.777345e-02
-3.113692e-01
-3.928057e-01
-1.435610e-01
-3.134831e-01
-2.248874e-01
-1.103240e-01
-2.854741e-01
-7.125763e-01
2.853262e-01
5.819706e-01
-8.988807e-01
5.729200e-01
4.869110e-01
2.557770e-01
1.277658e-01
2.555113e-01
1.962081e-01
3.384620e-01
3.768910e-01
1.845357e-01
2.270756e-01
3.373121e-01
3.128965e-01
3.742678e-01
8.582140e-01
8.087940e-01
-1.394254e+00
7.088807e-01
5.058262e-01
1.510157e-01
1.239870e-01
2.523633e-01
3.935000e-01
5.328024e-01
4.485305e-01
2.227549e-01
2.737696e-01
3.416751e-01
4.017555e-01
4.062807e-01
4.997300e-01
3.113369e-01
-2.843684e-01
7.204050e-01
5.698557e-01
3.004801e-01
1.693922e-01
1.090098e-01
6.624744e-02
1.505382e-01
5.900268e-02
-4.123431e-02
6.690877e-02
9.223464e-02
1.580901e-01
-5.627719e-02
-2.183371e-01
-7.976684e-02
-8.130521e-02
7.363197e-01
5.844957e-01
3.453056e-01
6.252262e-02
-4.377183e-03
-3.663594e-02
9.926769e-02
3.725857e-02
-2.873575e-02
4.146540e-02
3.290620e-02
6.113125e-02
-4.655068e-02
-2.451298e-01
2.623361e-02
4.105781e-01
7.247894e-01
6.692229e-01
5.467692e-01
2.917923e-01
1.309409e-01
1.931910e-02
1.395252e-01
1.835919e-01
1.541860e-01
1.408112e-01
6.151741e-03
-5.925380e-02
8.151866e-03
3.969354e-02
3.726463e-01
7.671440e-01
3.688356e-01
4.817077e-01
4.343124e-01
2.413164e-01
3.011825e-01
1.592782e-01
8.589703e-02
1.711943e-01
5.919835e-02
8.683051e-02
1.692218e-02
-6.974208e-02
1.870749e-01
4.205582e-01
7.512407e-01
9.598693e-01
-1.361082e+00
-6.882314e-02
-3.315648e-01
-5.190826e-01
-6.947902e-03
-2.069199e-01
-2.069199e-01
-4.117968e-02
-1.564178e-01
-1.359518e-01
-3.769356e-03
-2.494804e-02
4.744284e-01
7.980226e-01
9.607300e-01
9.991989e-01
1 2 19 18
2 3 20 19
3 4 21 20
4 5 22 21
5 6 23 22
6 7 24 23
7 8 25 24
8 9 26 25
9 10 27 26
10 11 28 27
11 12 29 28
12 13 30 29
13 14 31 30
14 15 32 31
15 16 33 32
16 17 34 33
18 19 36 35
19 20 37 36
20 21 38 37
21 22 39 38
22 23 40 39
23 24 41 40
24 25 42 41
25 26 43 42
26 27 44 43
27 28 45 44
28 29 46 45
29 30 47 46
30 31 48 47
31 32 49 48
32 33 50 49
33 34 51 50
35 36 53 52
36 37 54 53
37 38 55 54
38 39 56 55
39 40 57 56
40 41 58 57
41 42 59 58
42 43 60 59
43 44 61 60
44 45 62 61
45 46 63 62
46 47 64 63
47 48 65 64
48 49 66 65
49 50 67 66
50 51 68 67
52 53 70 69
53 54 71 70
54 55 72 71
55 56 73 72
56 57 74 73
57 58 75 74
58 59 76 75
59 60 77 76
60 61 78 77
61 62 79 78
62 63 80 79
63 64 81 80
64 65 82 81
65 66 83 82
66 67 84 83
67 68 85 84
69 70 87 86
70 71 88 87
71 72 89 88
72 73 90 89
73 74 91 90
74 75 92 91
75 76 93 92
76 77 94 93
77 78 95 94
78 79 96 95
79 80 97 96
80 81 98 97
81 82 99 98
82 83 100 99
83 84 101 100
84 85 102 101
86 87 104 103
87 88 105 104
88 89 106 105
89 90 107 106
90 91 108 107
91 92 109 108
92 93 110 109
93 94 111 110
94 95 112 111
95 96 113 112
96 97 114 113
97 98 115 114
98 99 116 115
99 100 117 116
100 101 118 117
101 102 119 118
103 104 121 120
104 105 122 121
105 106 123 122
106 107 124 123
107 108 125 124
108 109 126 125
109 110 127 126
110 111 128 127
111 112 129 128
112 113 130 129
113 114 131 130
114 115 132 131
115 116 133 132
116 117 134 133
117 118 135 134
118 119 136 135
120 121 138 137
121 122 139 138
122 123 140 139
123 124 141 140
124 125 142 141
125 126 143 142
126 127 144 143
127 128 145 144
128 129 146 145
129 130 147 146
130 131 148 147
131 132 149 148
132 133 150 149
133 134 151 150
134 135 152 151
135 136 153 152
