TITLE = "Solution"
VARIABLES = x, y, u, v, psiu, psiv, t, stress
ZONE T="structure" N=153 E=128 F=FEBLOCK ET=QUADRILATERAL VARLOCATION=([7,8]=cellcentered)
0.000000e+00
1.250000e+01
2.500000e+01
3.750000e+01
5.000000e+01
6.250000e+01
7.500000e+01
8.750000e+01
1.000000e+02
1.125000e+02
1.250000e+02
1.375000e+02
1.500000e+02
1.625000e+02
1.750000e+02
1.875000e+02
2.000000e+02
0.000000e+00
1.250000e+01
2.500000e+01
3.750000e+01
5.000000e+01
6.250000e+01
7.500000e+01
8.750000e+01
1.000000e+02
1.125000e+02
1.250000e+02
1.375000e+02
1.500000e+02
1.625000e+02
1.750000e+02
1.875000e+02
2.000000e+02
0.000000e+00
1.250000e+01
2.500000e+01
3.750000e+01
5.000000e+01
6.250000e+01
7.500000e+01
8.750000e+01
1.000000e+02
1.125000e+02
1.250000e+02
1.375000e+02
1.500000e+02
1.625000e+02
1.750000e+02
1.875000e+02
2.000000e+02
0.000000e+00
1.250000e+01
2.500000e+01
3.750000e+01
5.000000e+01
6.250000e+01
7.500000e+01
8.750000e+01
1.000000e+02
1.125000e+02
1.250000e+02
1.375000e+02
1.500000e+02
1.625000e+02
1.750000e+02
1.875000e+02
2.000000e+02
0.000000e+00
1.250000e+01
2.500000e+01
3.750000e+01
5.000000e+01
6.250000e+01
7.500000e+01
8.750000e+01
1.000000e+02
1.125000e+02
1.250000e+02
1.375000e+02
1.500000e+02
1.625000e+02
1.750000e+02
1.875000e+02
2.000000e+02
0.000000e+00
1.250000e+01
2.500000e+01
3.750000e+01
5.000000e+01
6.250000e+01
7.500000e+01
8.750000e+01
1.000000e+02
1.125000e+02
1.250000e+02
1.375000e+02
1.500000e+02
1.625000e+02
1.750000e+02
1.875000e+02
2.000000e+02
0.000000e+00
1.250000e+01
2.500000e+01
3.750000e+01
5.000000e+01
6.250000e+01
7.500000e+01
8.750000e+01
1.000000e+02
1.125000e+02
1.250000e+02
1.375000e+02
1.500000e+02
1.625000e+02
1.750000e+02
1.875000e+02
2.000000e+02
0.000000e+00
1.250000e+01
2.500000e+01
3.750000e+01
5.000000e+01
6.250000e+01
7.500000e+01
8.750000e+01
1.000000e+02
1.125000e+02
1.250000e+02
1.375000e+02
1.500000e+02
1.625000e+02
1.750000e+02
1.875000e+02
2.000000e+02
0.000000e+00
1.250000e+01
2.500000e+01
3.750000e+01
5.000000e+01
6.250000e+01
7.500000e+01
8.750000e+01
1.000000e+02
1.125000e+02
1.250000e+02
1.375000e+02
1.500000e+02
1.625000e+02
1.750000e+02
1.875000e+02
2.000000e+02
0.000000e+00
0.000000e+00
0.000000e+00
0.000000e+00
0.000000e+00
0.000000e+00
0.000000e+00
0.000000e+00
0.000000e+00
0.000000e+00
0.000000e+00
0.000000e+00
0.000000e+00
0.000000e+00
0.000000e+00
0.000000e+00
0.000000e+00
1.250000e+01
1.250000e+01
1.250000e+01
1.250000e+01
1.250000e+01
1.250000e+01
1.250000e+01
1.250000e+01
1.250000e+01
1.250000e+01
1.250000e+01
1.250000e+01
1.250000e+01
1.250000e+01
1.250000e+01
1.250000e+01
1.250000e+01
2.500000e+01
2.500000e+01
2.500000e+01
2.500000e+01
2.500000e+01
2.500000e+01
2.500000e+01
2.500000e+01
2.500000e+01
2.500000e+01
2.500000e+01
2.500000e+01
2.500000e+01
2.500000e+01
2.500000e+01
2.500000e+01
2.500000e+01
3.750000e+01
3.750000e+01
3.750000e+01
3.750000e+01
3.750000e+01
3.750000e+01
3.750000e+01
3.750000e+01
3.750000e+01
3.750000e+01
3.750000e+01
3.750000e+01
3.750000e+01
3.750000e+01
3.750000e+01
3.750000e+01
3.750000e+01
5.000000e+01
5.000000e+01
5.000000e+01
5.000000e+01
5.000000e+01
5.000000e+01
5.000000e+01
5.000000e+01
5.000000e+01
5.000000e+01
5.000000e+01
5.000000e+01
5.000000e+01
5.000000e+01
5.000000e+01
5.000000e+01
5.000000e+01
6.250000e+01
6.250000e+01
6.250000e+01
6.250000e+01
6.250000e+01
6.250000e+01
6.250000e+01
6.250000e+01
6.250000e+01
6.250000e+01
6.250000e+01
6.250000e+01
6.250000e+01
6.250000e+01
6.250000e+01
6.250000e+01
6.250000e+01
7.500000e+01
7.500000e+01
7.500000e+01
7.500000e+01
7.500000e+01
7.500000e+01
7.500000e+01
7.500000e+01
7.500000e+01
7.500000e+01
7.500000e+01
7.500000e+01
7.500000e+01
7.500000e+01
7.500000e+01
7.500000e+01
7.500000e+01
8.750000e+01
8.750000e+01
8.750000e+01
8.750000e+01
8.750000e+01
8.750000e+01
8.750000e+01
8.750000e+01
8.750000e+01
8.750000e+01
8.750000e+01
8.750000e+01
8.750000e+01
8.750000e+01
8.750000e+01
8.750000e+01
8.750000e+01
1.000000e+02
1.000000e+02
1.000000e+02
1.000000e+02
1.000000e+02
1.000000e+02
1.000000e+02
1.000000e+02
1.000000e+02
1.000000e+02
1.000000e+02
1.000000e+02
1.000000e+02
1.000000e+02
1.000000e+02
1.000000e+02
1.000000e+02
0.000000e+00
-7.374480e-02
-1.357875e-01
-1.928749e-01
-2.460394e-01
-2.951688e-01
-3.401576e-01
-3.809709e-01
-4.176681e-01
-4.504182e-01
-4.795458e-01
-5.056202e-01
-5.296208e-01
-5.532394e-01
-5.793939e-01
-6.115150e-01
-6.356182e-01
0.000000e+00
-4.403902e-02
-9.148250e-02
-1.352936e-01
-1.756572e-01
-2.127267e-01
-2.465791e-01
-2.772595e-01
-3.048234e-01
-3.293556e-01
-3.509806e-01
-3.698542e-01
-3.860970e-01
-3.995416e-01
-4.090248e-01
-4.111034e-01
-4.185555e-01
0.000000e+00
-2.754071e-02
-5.663060e-02
-8.565214e-02
-1.127429e-01
-1.376161e-01
-1.602515e-01
-1.806747e-01
-1.988908e-01
-2.148692e-01
-2.285242e-01
-2.396647e-01
-2.478939e-01
-2.524875e-01
-2.526150e-01
-2.507800e-01
-2.583806e-01
0.000000e+00
-1.329284e-02
-2.736510e-02
-4.152626e-02
-5.506694e-02
-6.753878e-02
-7.884330e-02
-8.894757e-02
-9.779375e-02
-1.052667e-01
-1.111755e-01
-1.152411e-01
-1.171309e-01
-1.166894e-01
-1.148755e-01
-1.153715e-01
-1.210310e-01
0.000000e+00
-1.224579e-05
-2.783850e-05
-4.338005e-05
-5.162851e-05
-3.643464e-05
3.425580e-05
2.179602e-04
6.090438e-04
1.348069e-03
2.618419e-03
4.604317e-03
7.355544e-03
1.046457e-02
1.261219e-02
1.202317e-02
8.276125e-03
0.000000e+00
1.327399e-02
2.732135e-02
4.145629e-02
5.497991e-02
6.746799e-02
7.887076e-02
8.924397e-02
9.867757e-02
1.072810e-01
1.151666e-01
1.223928e-01
1.288340e-01
1.339992e-01
1.370376e-01
1.372786e-01
1.353767e-01
0.000000e+00
2.753762e-02
5.662118e-02
8.563339e-02
1.127136e-01
1.375796e-01
1.602213e-01
1.806845e-01
1.990118e-01
2.152357e-01
2.293702e-01
2.413810e-01
2.511297e-01
2.583373e-01
2.626634e-01
2.640681e-01
2.636246e-01
0.000000e+00
4.405709e-02
9.152178e-02
1.353562e-01
1.757412e-01
2.128167e-01
2.466295e-01
2.771673e-01
3.043834e-01
3.281993e-01
3.485019e-01
3.651509e-01
3.780130e-01
3.870458e-01
3.924340e-01
3.947318e-01
3.951538e-01
0.000000e+00
7.377501e-02
1.358672e-01
1.930242e-01
2.462779e-01
2.955042e-01
3.405577e-01
3.813074e-01
4.176169e-01
4.492976e-01
4.760746e-01
4.975911e-01
5.134936e-01
5.236570e-01
5.285721e-01
5.297853e-01
5.297619e-01
0.000000e+00
-4.463978e-02
-8.763316e-02
-1.433426e-01
-2.117144e-01
-2.926207e-01
-3.851755e-01
-4.883429e-01
-6.010260e-01
-7.221423e-01
-8.506918e-01
-9.858788e-01
-1.127377e+00
-1.275942e+00
-1.435429e+00
-1.617911e+00
-1.880105e+00
0.000000e+00
-2.748108e-02
-7.233023e-02
-1.287305e-01
-1.982197e-01
-2.802301e-01
-3.739061e-01
-4.781866e-01
-5.919618e-01
-7.141298e-01
-8.436628e-01
-9.797287e-01
-1.121951e+00
-1.271065e+00
-1.430489e+00
-1.611864e+00
-1.834067e+00
0.000000e+00
-2.073694e-02
-6.172148e-02
-1.183299e-01
-1.884760e-01
-2.713306e-01
-3.658676e-01
-4.710158e-01
-5.856729e-01
-7.087526e-01
-8.392472e-01
-9.763529e-01
-1.119729e+00
-1.269990e+00
-1.429551e+00
-1.601410e+00
-1.767733e+00
0.000000e+00
-1.786966e-02
-5.644688e-02
-1.122250e-01
-1.826248e-01
-2.659893e-01
-3.611157e-01
-4.668919e-01
-5.822365e-01
-7.060926e-01
-8.374742e-01
-9.755619e-01
-1.119853e+00
-1.270280e+00
-1.426650e+00
-1.584563e+00
-1.730038e+00
0.000000e+00
-1.704366e-02
-5.485054e-02
-1.102775e-01
-1.806964e-01
-2.642684e-01
-3.596683e-01
-4.657851e-01
-5.815578e-01
-7.059468e-01
-8.379443e-01
-9.766011e-01
-1.121021e+00
-1.270139e+00
-1.421723e+00
-1.570589e+00
-1.707731e+00
0.000000e+00
-1.785905e-02
-5.643933e-02
-1.122384e-01
-1.826908e-01
-2.661631e-01
-3.614875e-01
-4.675962e-01
-5.834507e-01
-7.080064e-01
-8.401900e-01
-9.788533e-01
-1.122655e+00
-1.269765e+00
-1.417357e+00
-1.561118e+00
-1.695333e+00
0.000000e+00
-2.071964e-02
-6.170897e-02
-1.183523e-01
-1.885872e-01
-2.716247e-01
-3.664981e-01
-4.722116e-01
-5.877374e-01
-7.120126e-01
-8.438919e-01
-9.820505e-01
-1.124824e+00
-1.270006e+00
-1.414737e+00
-1.555739e+00
-1.689865e+00
0.000000e+00
-2.746486e-02
-7.231934e-02
-1.287602e-01
-1.983532e-01
-2.805759e-01
-3.746400e-01
-4.795688e-01
-5.943333e-01
-7.178515e-01
-8.489310e-01
-9.861522e-01
-1.127709e+00
-1.271275e+00
-1.414081e+00
-1.553515e+00
-1.688581e+00
0.000000e+00
-4.463307e-02
-8.763410e-02
-1.433887e-01
-2.118692e-01
-2.929903e-01
-3.859265e-01
-4.897130e-01
-6.033102e-01
-7.256169e-01
-8.554120e-01
-9.912446e-01
-1.131296e+00
-1.273291e+00
-1.414639e+00
-1.553108e+00
-1.688601e+00


0.000000e+00
6.868354e-08
1.376468e-07
2.016755e-07
2.616874e-07
3.173440e-07
3.684180e-07
4.149028e-07
4.568998e-07
4.945928e-07
5.282381e-07
5.581199e-07
5.844064e-07
6.068970e-07
6.253079e-07
6.410493e-07
6.550646e-07
0.000000e+00
3.867468e-08
9.408905e-08
1.438859e-07
1.895102e-07
2.315351e-07
2.699299e-07
3.047024e-07
3.358871e-07
3.635126e-07
3.875758e-07
4.080103e-07
4.247160e-07
4.380392e-07
4.502094e-07
4.646678e-07
4.795601e-07
0.000000e+00
2.439973e-08
5.950083e-08
9.241008e-08
1.230634e-07
1.512328e-07
1.768140e-07
1.997826e-07
2.201090e-07
2.377292e-07
2.525462e-07
2.644912e-07
2.737538e-07
2.812876e-07
2.892372e-07
2.999888e-07
3.124187e-07
0.000000e+00
1.192891e-08
2.853279e-08
4.465212e-08
5.998161e-08
7.405193e-08
8.671467e-08
9.791568e-08
1.075922e-07
1.156625e-07
1.220587e-07
1.268203e-07
1.302709e-07
1.332261e-07
1.370359e-07
1.433029e-07
1.519302e-07
0.000000e+00
1.225820e-11
1.504530e-11
-7.024827e-12
-7.500496e-11
-2.224645e-10
-4.986020e-10
-9.689203e-10
-1.709351e-09
-2.787416e-09
-4.220741e-09
-5.907694e-09
-7.546529e-09
-8.584606e-09
-8.172018e-09
-5.222072e-09
4.430393e-10
0.000000e+00
-1.190600e-08
-2.850223e-08
-4.465416e-08
-6.009103e-08
-7.439970e-08
-8.751574e-08
-9.949834e-08
-1.104197e-07
-1.203248e-07
-1.291961e-07
-1.369140e-07
-1.432329e-07
-1.477854e-07
-1.501177e-07
-1.496717e-07
-1.465697e-07
0.000000e+00
-2.438526e-08
-5.947959e-08
-9.239778e-08
-1.230897e-07
-1.513538e-07
-1.771274e-07
-2.004453e-07
-2.213532e-07
-2.398682e-07
-2.559490e-07
-2.694717e-07
-2.802249e-07
-2.879594e-07
-2.925488e-07
-2.940772e-07
-2.931612e-07
0.000000e+00
-3.868933e-08
-9.411830e-08
-1.439126e-07
-1.895059e-07
-2.314512e-07
-2.696866e-07
-3.041764e-07
-3.349000e-07
-3.618246e-07
-3.848943e-07
-4.040230e-07
-4.190960e-07
-4.300168e-07
-4.368839e-07
-4.402600e-07
-4.410754e-07
0.000000e+00
-6.876439e-08
-1.377900e-07
-2.018527e-07
-2.618388e-07
-3.173454e-07
-3.680339e-07
-4.137264e-07
-4.542819e-07
-4.895722e-07
-5.194971e-07
-5.440154e-07
-5.631740e-07
-5.771344e-07
-5.862257e-07
-5.909243e-07
-5.924331e-07
0.000000e+00
6.217945e-08
1.212501e-07
1.875148e-07
2.665497e-07
3.591704e-07
4.647640e-07
5.823482e-07
7.107931e-07
8.490031e-07
9.960403e-07
1.151326e-06
1.315172e-06
1.489928e-06
1.679911e-06
1.881715e-06
2.081949e-06
0.000000e+00
3.759070e-08
9.500390e-08
1.618043e-07
2.423964e-07
3.368948e-07
4.444999e-07
5.641018e-07
6.945418e-07
8.347096e-07
9.836510e-07
1.140744e-06
1.306002e-06
1.480458e-06
1.665819e-06
1.862504e-06
2.060100e-06
0.000000e+00
2.391899e-08
7.396588e-08
1.407084e-07
2.224769e-07
3.186020e-07
4.279559e-07
5.493427e-07
6.815845e-07
8.235663e-07
9.743013e-07
1.133015e-06
1.299177e-06
1.472299e-06
1.652097e-06
1.841602e-06
2.032833e-06
0.000000e+00
1.753570e-08
6.290498e-08
1.284136e-07
2.107259e-07
3.078575e-07
4.183481e-07
5.409263e-07
6.743986e-07
8.176303e-07
9.695538e-07
1.129155e-06
1.295364e-06
1.466846e-06
1.642531e-06
1.824735e-06
2.006451e-06
0.000000e+00
1.570254e-08
5.955302e-08
1.244596e-07
2.069189e-07
3.044528e-07
4.154328e-07
5.385539e-07
6.726076e-07
8.164171e-07
9.688051e-07
1.128532e-06
1.294172e-06
1.463957e-06
1.636149e-06
1.811825e-06
1.984185e-06
0.000000e+00
1.754990e-08
6.295804e-08
1.285447e-07
2.109865e-07
3.083174e-07
4.190945e-07
5.420513e-07
6.759665e-07
8.196101e-07
9.716986e-07
1.130828e-06
1.295365e-06
1.463299e-06
1.632457e-06
1.802686e-06
1.968222e-06
0.000000e+00
2.394187e-08
7.405834e-08
1.409382e-07
2.229339e-07
3.194096e-07
4.292682e-07
5.513225e-07
6.843462e-07
8.270569e-07
9.780821e-07
1.135904e-06
1.298777e-06
1.464600e-06
1.631057e-06
1.797211e-06
1.958500e-06
0.000000e+00
3.761978e-08
9.512127e-08
1.620875e-07
2.429542e-07
3.378755e-07
4.460869e-07
5.664845e-07
6.978438e-07
8.388399e-07
9.880303e-07
1.143815e-06
1.304385e-06
1.467680e-06
1.631561e-06
1.794750e-06
1.953860e-06
0.000000e+00
6.222761e-08
1.213875e-07
1.878204e-07
2.671307e-07
3.601683e-07
4.663463e-07
5.846731e-07
7.139281e-07
8.527647e-07
9.997039e-07
1.153105e-06
1.311142e-06
1.471835e-06
1.633302e-06
1.794349e-06
1.952508e-06


2.154750e-01
2.154749e-01
2.154754e-01
2.154762e-01
2.154770e-01
2.154777e-01
2.154783e-01
2.154788e-01
2.154793e-01
2.154797e-01
2.154800e-01
2.154803e-01
2.154804e-01
2.154804e-01
2.154800e-01
2.154798e-01
2.154763e-01
2.154762e-01
2.154764e-01
2.154771e-01
2.154777e-01
2.154782e-01
2.154787e-01
2.154791e-01
2.154795e-01
2.154799e-01
2.154801e-01
2.154804e-01
2.154805e-01
2.154803e-01
2.154800e-01
2.154798e-01
2.154784e-01
2.154782e-01
2.154783e-01
2.154786e-01
2.154789e-01
2.154792e-01
2.154795e-01
2.154797e-01
2.154800e-01
2.154802e-01
2.154803e-01
2.154805e-01
2.154805e-01
2.154803e-01
2.154801e-01
2.154799e-01
2.154798e-01
2.154796e-01
2.154796e-01
2.154796e-01
2.154798e-01
2.154799e-01
2.154800e-01
2.154801e-01
2.154803e-01
2.154803e-01
2.154804e-01
2.154805e-01
2.154805e-01
2.154804e-01
2.154803e-01
2.154802e-01
2.154798e-01
2.154796e-01
2.154796e-01
2.154796e-01
2.154798e-01
2.154799e-01
2.154800e-01
2.154801e-01
2.154802e-01
2.154803e-01
2.154804e-01
2.154804e-01
2.154805e-01
2.154805e-01
2.154805e-01
2.154805e-01
2.154784e-01
2.154782e-01
2.154783e-01
2.154786e-01
2.154789e-01
2.154792e-01
2.154795e-01
2.154797e-01
2.154799e-01
2.154801e-01
2.154802e-01
2.154804e-01
2.154805e-01
2.154806e-01
2.154807e-01
2.154808e-01
2.154763e-01
2.154762e-01
2.154764e-01
2.154771e-01
2.154777e-01
2.154782e-01
2.154787e-01
2.154791e-01
2.154795e-01
2.154798e-01
2.154801e-01
2.154804e-01
2.154806e-01
2.154807e-01
2.154809e-01
2.154809e-01
2.154750e-01
2.154749e-01
2.154754e-01
2.154762e-01
2.154770e-01
2.154777e-01
2.154783e-01
2.154788e-01
2.154793e-01
2.154797e-01
2.154801e-01
2.154804e-01
2.154806e-01
2.154808e-01
2.154810e-01
2.154810e-01


9.877648e-01
9.894998e-01
9.911048e-01
9.923403e-01
9.934872e-01
9.945447e-01
9.955082e-01
9.963663e-01
9.971100e-01
9.977321e-01
9.982267e-01
9.985891e-01
9.988143e-01
9.988947e-01
9.989527e-01
9.953768e-01
9.953712e-01
9.945761e-01
9.950876e-01
9.957552e-01
9.963777e-01
9.969434e-01
9.974556e-01
9.979194e-01
9.983395e-01
9.987199e-01
9.990651e-01
9.993777e-01
9.996504e-01
9.998290e-01
9.993774e-01
9.932563e-01
9.983917e-01
9.979350e-01
9.978117e-01
9.979851e-01
9.982133e-01
9.984342e-01
9.986394e-01
9.988332e-01
9.990210e-01
9.992041e-01
9.993751e-01
9.995075e-01
9.995351e-01
9.992967e-01
9.984318e-01
9.968762e-01
9.996727e-01
9.993396e-01
9.991339e-01
9.990817e-01
9.991025e-01
9.991375e-01
9.991724e-01
9.992065e-01
9.992400e-01
9.992680e-01
9.992758e-01
9.992342e-01
9.991019e-01
9.988646e-01
9.986633e-01
9.986123e-01
9.996739e-01
9.993413e-01
9.991354e-01
9.990813e-01
9.990973e-01
9.991225e-01
9.991400e-01
9.991459e-01
9.991379e-01
9.991121e-01
9.990641e-01
9.989949e-01
9.989290e-01
9.989421e-01
9.991284e-01
9.994508e-01
9.983940e-01
9.979385e-01
9.978151e-01
9.979852e-01
9.982044e-01
9.984069e-01
9.985782e-01
9.987159e-01
9.988190e-01
9.988885e-01
9.989324e-01
9.989753e-01
9.990655e-01
9.992545e-01
9.995385e-01
9.998322e-01
9.953707e-01
9.945758e-01
9.950869e-01
9.957533e-01
9.963728e-01
9.969323e-01
9.974325e-01
9.978754e-01
9.982613e-01
9.985912e-01
9.988705e-01
9.991144e-01
9.993493e-01
9.995955e-01
9.998258e-01
9.999708e-01
9.877564e-01
9.894868e-01
9.910888e-01
9.923224e-01
9.934711e-01
9.945388e-01
9.955281e-01
9.964364e-01
9.972640e-01
9.980094e-01
9.986636e-01
9.992063e-01
9.996100e-01
9.998591e-01
9.999724e-01
9.999994e-01
1 2 19 18
2 3 20 19
3 4 21 20
4 5 22 21
5 6 23 22
6 7 24 23
7 8 25 24
8 9 26 25
9 10 27 26
10 11 28 27
11 12 29 28
12 13 30 29
13 14 31 30
14 15 32 31
15 16 33 32
16 17 34 33
18 19 36 35
19 20 37 36
20 21 38 37
21 22 39 38
22 23 40 39
23 24 41 40
24 25 42 41
25 26 43 42
26 27 44 43
27 28 45 44
28 29 46 45
29 30 47 46
30 31 48 47
31 32 49 48
32 33 50 49
33 34 51 50
35 36 53 52
36 37 54 53
37 38 55 54
38 39 56 55
39 40 57 56
40 41 58 57
41 42 59 58
42 43 60 59
43 44 61 60
44 45 62 61
45 46 63 62
46 47 64 63
47 48 65 64
48 49 66 65
49 50 67 66
50 51 68 67
52 53 70 69
53 54 71 70
54 55 72 71
55 56 73 72
56 57 74 73
57 58 75 74
58 59 76 75
59 60 77 76
60 61 78 77
61 62 79 78
62 63 80 79
63 64 81 80
64 65 82 81
65 66 83 82
66 67 84 83
67 68 85 84
69 70 87 86
70 71 88 87
71 72 89 88
72 73 90 89
73 74 91 90
74 75 92 91
75 76 93 92
76 77 94 93
77 78 95 94
78 79 96 95
79 80 97 96
80 81 98 97
81 82 99 98
82 83 100 99
83 84 101 100
84 85 102 101
86 87 104 103
87 88 105 104
88 89 106 105
89 90 107 106
90 91 108 107
91 92 109 108
92 93 110 109
93 94 111 110
94 95 112 111
95 96 113 112
96 97 114 113
97 98 115 114
98 99 116 115
99 100 117 116
100 101 118 117
101 102 119 118
103 104 121 120
104 105 122 121
105 106 123 122
106 107 124 123
107 108 125 124
108 109 126 125
109 110 127 126
110 111 128 127
111 112 129 128
112 113 130 129
113 114 131 130
114 115 132 131
115 116 133 132
116 117 134 133
117 118 135 134
118 119 136 135
120 121 138 137
121 122 139 138
122 123 140 139
123 124 141 140
124 125 142 141
125 126 143 142
126 127 144 143
127 128 145 144
128 129 146 145
129 130 147 146
130 131 148 147
131 132 149 148
132 133 150 149
133 134 151 150
134 135 152 151
135 136 153 152
