TITLE = "Solution"
VARIABLES = x, y, u, v, psiu, psiv, t, stress
ZONE T="structure" N=153 E=128 F=FEBLOCK ET=QUADRILATERAL VARLOCATION=([7,8]=cellcentered)
0.000000e+00
1.250000e+01
2.500000e+01
3.750000e+01
5.000000e+01
6.250000e+01
7.500000e+01
8.750000e+01
1.000000e+02
1.125000e+02
1.250000e+02
1.375000e+02
1.500000e+02
1.625000e+02
1.750000e+02
1.875000e+02
2.000000e+02
0.000000e+00
1.250000e+01
2.500000e+01
3.750000e+01
5.000000e+01
6.250000e+01
7.500000e+01
8.750000e+01
1.000000e+02
1.125000e+02
1.250000e+02
1.375000e+02
1.500000e+02
1.625000e+02
1.750000e+02
1.875000e+02
2.000000e+02
0.000000e+00
1.250000e+01
2.500000e+01
3.750000e+01
5.000000e+01
6.250000e+01
7.500000e+01
8.750000e+01
1.000000e+02
1.125000e+02
1.250000e+02
1.375000e+02
1.500000e+02
1.625000e+02
1.750000e+02
1.875000e+02
2.000000e+02
0.000000e+00
1.250000e+01
2.500000e+01
3.750000e+01
5.000000e+01
6.250000e+01
7.500000e+01
8.750000e+01
1.000000e+02
1.125000e+02
1.250000e+02
1.375000e+02
1.500000e+02
1.625000e+02
1.750000e+02
1.875000e+02
2.000000e+02
0.000000e+00
1.250000e+01
2.500000e+01
3.750000e+01
5.000000e+01
6.250000e+01
7.500000e+01
8.750000e+01
1.000000e+02
1.125000e+02
1.250000e+02
1.375000e+02
1.500000e+02
1.625000e+02
1.750000e+02
1.875000e+02
2.000000e+02
0.000000e+00
1.250000e+01
2.500000e+01
3.750000e+01
5.000000e+01
6.250000e+01
7.500000e+01
8.750000e+01
1.000000e+02
1.125000e+02
1.250000e+02
1.375000e+02
1.500000e+02
1.625000e+02
1.750000e+02
1.875000e+02
2.000000e+02
0.000000e+00
1.250000e+01
2.500000e+01
3.750000e+01
5.000000e+01
6.250000e+01
7.500000e+01
8.750000e+01
1.000000e+02
1.125000e+02
1.250000e+02
1.375000e+02
1.500000e+02
1.625000e+02
1.750000e+02
1.875000e+02
2.000000e+02
0.000000e+00
1.250000e+01
2.500000e+01
3.750000e+01
5.000000e+01
6.250000e+01
7.500000e+01
8.750000e+01
1.000000e+02
1.125000e+02
1.250000e+02
1.375000e+02
1.500000e+02
1.625000e+02
1.750000e+02
1.875000e+02
2.000000e+02
0.000000e+00
1.250000e+01
2.500000e+01
3.750000e+01
5.000000e+01
6.250000e+01
7.500000e+01
8.750000e+01
1.000000e+02
1.125000e+02
1.250000e+02
1.375000e+02
1.500000e+02
1.625000e+02
1.750000e+02
1.875000e+02
2.000000e+02
0.000000e+00
0.000000e+00
0.000000e+00
0.000000e+00
0.000000e+00
0.000000e+00
0.000000e+00
0.000000e+00
0.000000e+00
0.000000e+00
0.000000e+00
0.000000e+00
0.000000e+00
0.000000e+00
0.000000e+00
0.000000e+00
0.000000e+00
1.250000e+01
1.250000e+01
1.250000e+01
1.250000e+01
1.250000e+01
1.250000e+01
1.250000e+01
1.250000e+01
1.250000e+01
1.250000e+01
1.250000e+01
1.250000e+01
1.250000e+01
1.250000e+01
1.250000e+01
1.250000e+01
1.250000e+01
2.500000e+01
2.500000e+01
2.500000e+01
2.500000e+01
2.500000e+01
2.500000e+01
2.500000e+01
2.500000e+01
2.500000e+01
2.500000e+01
2.500000e+01
2.500000e+01
2.500000e+01
2.500000e+01
2.500000e+01
2.500000e+01
2.500000e+01
3.750000e+01
3.750000e+01
3.750000e+01
3.750000e+01
3.750000e+01
3.750000e+01
3.750000e+01
3.750000e+01
3.750000e+01
3.750000e+01
3.750000e+01
3.750000e+01
3.750000e+01
3.750000e+01
3.750000e+01
3.750000e+01
3.750000e+01
5.000000e+01
5.000000e+01
5.000000e+01
5.000000e+01
5.000000e+01
5.000000e+01
5.000000e+01
5.000000e+01
5.000000e+01
5.000000e+01
5.000000e+01
5.000000e+01
5.000000e+01
5.000000e+01
5.000000e+01
5.000000e+01
5.000000e+01
6.250000e+01
6.250000e+01
6.250000e+01
6.250000e+01
6.250000e+01
6.250000e+01
6.250000e+01
6.250000e+01
6.250000e+01
6.250000e+01
6.250000e+01
6.250000e+01
6.250000e+01
6.250000e+01
6.250000e+01
6.250000e+01
6.250000e+01
7.500000e+01
7.500000e+01
7.500000e+01
7.500000e+01
7.500000e+01
7.500000e+01
7.500000e+01
7.500000e+01
7.500000e+01
7.500000e+01
7.500000e+01
7.500000e+01
7.500000e+01
7.500000e+01
7.500000e+01
7.500000e+01
7.500000e+01
8.750000e+01
8.750000e+01
8.750000e+01
8.750000e+01
8.750000e+01
8.750000e+01
8.750000e+01
8.750000e+01
8.750000e+01
8.750000e+01
8.750000e+01
8.750000e+01
8.750000e+01
8.750000e+01
8.750000e+01
8.750000e+01
8.750000e+01
1.000000e+02
1.000000e+02
1.000000e+02
1.000000e+02
1.000000e+02
1.000000e+02
1.000000e+02
1.000000e+02
1.000000e+02
1.000000e+02
1.000000e+02
1.000000e+02
1.000000e+02
1.000000e+02
1.000000e+02
1.000000e+02
1.000000e+02
0.000000e+00
-7.110490e-02
-1.309267e-01
-1.859704e-01
-2.372316e-01
-2.846020e-01
-3.279801e-01
-3.673320e-01
-4.027152e-01
-4.342926e-01
-4.623772e-01
-4.875179e-01
-5.106590e-01
-5.334318e-01
-5.586497e-01
-5.896205e-01
-6.128607e-01
0.000000e+00
-4.246257e-02
-8.820773e-02
-1.304505e-01
-1.693690e-01
-2.051114e-01
-2.377517e-01
-2.673337e-01
-2.939106e-01
-3.175643e-01
-3.384149e-01
-3.566127e-01
-3.722738e-01
-3.852369e-01
-3.943806e-01
-3.963847e-01
-4.035700e-01
0.000000e+00
-2.655487e-02
-5.460346e-02
-8.258609e-02
-1.087070e-01
-1.326897e-01
-1.545147e-01
-1.742066e-01
-1.917704e-01
-2.071767e-01
-2.203427e-01
-2.310843e-01
-2.390187e-01
-2.434479e-01
-2.435708e-01
-2.418015e-01
-2.491299e-01
0.000000e+00
-1.281702e-02
-2.638555e-02
-4.003978e-02
-5.309571e-02
-6.512103e-02
-7.602081e-02
-8.576329e-02
-9.429272e-02
-1.014981e-01
-1.071953e-01
-1.111153e-01
-1.129374e-01
-1.125117e-01
-1.107628e-01
-1.112411e-01
-1.166979e-01
0.000000e+00
-1.180708e-05
-2.684118e-05
-4.182593e-05
-4.977871e-05
-3.512856e-05
3.303088e-05
2.101573e-04
5.872364e-04
1.299797e-03
2.524655e-03
4.439436e-03
7.092138e-03
1.008982e-02
1.216053e-02
1.159261e-02
7.979741e-03
0.000000e+00
1.279885e-02
2.634338e-02
3.997232e-02
5.301179e-02
6.505278e-02
7.604728e-02
8.604908e-02
9.514489e-02
1.034402e-01
1.110435e-01
1.180109e-01
1.242214e-01
1.292016e-01
1.321312e-01
1.323636e-01
1.305298e-01
0.000000e+00
2.655189e-02
5.459437e-02
8.256801e-02
1.086788e-01
1.326545e-01
1.544855e-01
1.742161e-01
1.918871e-01
2.075301e-01
2.211585e-01
2.327391e-01
2.421387e-01
2.490882e-01
2.532594e-01
2.546138e-01
2.541862e-01
0.000000e+00
4.247999e-02
8.824561e-02
1.305109e-01
1.694500e-01
2.051981e-01
2.378004e-01
2.672447e-01
2.934863e-01
3.164494e-01
3.360250e-01
3.520778e-01
3.644793e-01
3.731886e-01
3.783839e-01
3.805994e-01
3.810063e-01
0.000000e+00
7.113403e-02
1.310035e-01
1.861144e-01
2.374615e-01
2.849255e-01
3.283659e-01
3.676565e-01
4.026659e-01
4.332121e-01
4.590303e-01
4.797763e-01
4.951093e-01
5.049087e-01
5.096479e-01
5.108176e-01
5.107951e-01
0.000000e+00
-4.304176e-02
-8.449600e-02
-1.382110e-01
-2.041352e-01
-2.821450e-01
-3.713862e-01
-4.708601e-01
-5.795090e-01
-6.962890e-01
-8.202362e-01
-9.505830e-01
-1.087015e+00
-1.230261e+00
-1.384038e+00
-1.559986e+00
-1.812792e+00
0.000000e+00
-2.649730e-02
-6.974088e-02
-1.241220e-01
-1.911235e-01
-2.701979e-01
-3.605203e-01
-4.610674e-01
-5.707693e-01
-6.885634e-01
-8.134589e-01
-9.446532e-01
-1.081783e+00
-1.225559e+00
-1.379275e+00
-1.554156e+00
-1.768403e+00
0.000000e+00
-1.999457e-02
-5.951189e-02
-1.140937e-01
-1.817287e-01
-2.616171e-01
-3.527696e-01
-4.541534e-01
-5.647056e-01
-6.833788e-01
-8.092014e-01
-9.413983e-01
-1.079641e+00
-1.224522e+00
-1.378371e+00
-1.544076e+00
-1.704444e+00
0.000000e+00
-1.722991e-02
-5.442609e-02
-1.082074e-01
-1.760869e-01
-2.564670e-01
-3.481878e-01
-4.501772e-01
-5.613922e-01
-6.808140e-01
-8.074918e-01
-9.406356e-01
-1.079761e+00
-1.224802e+00
-1.375573e+00
-1.527833e+00
-1.668099e+00
0.000000e+00
-1.643347e-02
-5.288690e-02
-1.063296e-01
-1.742276e-01
-2.548077e-01
-3.467923e-01
-4.491100e-01
-5.607378e-01
-6.806735e-01
-8.079451e-01
-9.416376e-01
-1.080887e+00
-1.224666e+00
-1.370822e+00
-1.514358e+00
-1.646590e+00
0.000000e+00
-1.721968e-02
-5.441882e-02
-1.082204e-01
-1.761505e-01
-2.566346e-01
-3.485464e-01
-4.508562e-01
-5.625630e-01
-6.826593e-01
-8.101104e-01
-9.438092e-01
-1.082462e+00
-1.224305e+00
-1.366613e+00
-1.505227e+00
-1.634637e+00
0.000000e+00
-1.997789e-02
-5.949983e-02
-1.141153e-01
-1.818359e-01
-2.619006e-01
-3.533775e-01
-4.553064e-01
-5.666961e-01
-6.865221e-01
-8.136798e-01
-9.468919e-01
-1.084553e+00
-1.224538e+00
-1.364087e+00
-1.500041e+00
-1.629364e+00
0.000000e+00
-2.648166e-02
-6.973038e-02
-1.241507e-01
-1.912523e-01
-2.705314e-01
-3.612279e-01
-4.624001e-01
-5.730559e-01
-6.921519e-01
-8.185383e-01
-9.508467e-01
-1.087335e+00
-1.225761e+00
-1.363454e+00
-1.497896e+00
-1.628127e+00
0.000000e+00
-4.303530e-02
-8.449691e-02
-1.382555e-01
-2.042844e-01
-2.825013e-01
-3.721103e-01
-4.721812e-01
-5.817114e-01
-6.996392e-01
-8.247873e-01
-9.557567e-01
-1.090794e+00
-1.227705e+00
-1.363992e+00
-1.497504e+00
-1.628146e+00


0.000000e+00
9.842988e-08
1.972232e-07
2.889742e-07
3.750201e-07
4.548750e-07
5.282040e-07
5.949868e-07
6.553578e-07
7.095705e-07
7.579841e-07
8.009987e-07
8.388485e-07
8.712359e-07
8.977446e-07
9.203974e-07
9.405539e-07
0.000000e+00
5.535605e-08
1.347023e-07
2.060503e-07
2.714698e-07
3.317742e-07
3.869089e-07
4.368744e-07
4.817109e-07
5.214506e-07
5.560817e-07
5.855020e-07
6.095624e-07
6.287579e-07
6.462911e-07
6.671017e-07
6.885211e-07
0.000000e+00
3.487884e-08
8.512607e-08
1.322717e-07
1.762234e-07
2.166483e-07
2.533875e-07
2.863971e-07
3.156268e-07
3.409782e-07
3.623064e-07
3.795081e-07
3.928528e-07
4.037103e-07
4.151625e-07
4.306364e-07
4.485155e-07
0.000000e+00
1.703838e-08
4.080851e-08
6.389791e-08
8.587561e-08
1.060666e-07
1.242526e-07
1.403507e-07
1.542662e-07
1.658783e-07
1.750862e-07
1.819444e-07
1.869163e-07
1.911736e-07
1.966589e-07
2.056779e-07
2.180904e-07
0.000000e+00
1.783070e-11
2.207667e-11
-9.425687e-12
-1.069642e-10
-3.188613e-10
-7.159686e-10
-1.392575e-09
-2.458086e-09
-4.009820e-09
-6.073361e-09
-8.502881e-09
-1.086442e-08
-1.236248e-08
-1.177188e-08
-7.526748e-09
6.272011e-10
0.000000e+00
-1.700506e-08
-4.076378e-08
-6.389966e-08
-8.603142e-08
-1.065650e-07
-1.254030e-07
-1.426257e-07
-1.583329e-07
-1.725864e-07
-1.853579e-07
-1.964733e-07
-2.055771e-07
-2.121381e-07
-2.155004e-07
-2.148592e-07
-2.103929e-07
0.000000e+00
-3.485786e-08
-8.509507e-08
-1.322533e-07
-1.762601e-07
-2.168210e-07
-2.538369e-07
-2.873492e-07
-3.174162e-07
-3.440564e-07
-3.672048e-07
-3.866784e-07
-4.021682e-07
-4.133118e-07
-4.199244e-07
-4.221265e-07
-4.208077e-07
0.000000e+00
-5.537711e-08
-1.347443e-07
-2.060883e-07
-2.714630e-07
-3.316525e-07
-3.865576e-07
-4.361159e-07
-4.802885e-07
-5.190191e-07
-5.522197e-07
-5.797589e-07
-6.014658e-07
-6.171961e-07
-6.270886e-07
-6.319522e-07
-6.331272e-07
0.000000e+00
-9.854621e-08
-1.974294e-07
-2.892291e-07
-3.752380e-07
-4.548769e-07
-5.276510e-07
-5.932930e-07
-6.515881e-07
-7.023401e-07
-7.453947e-07
-7.806832e-07
-8.082658e-07
-8.283694e-07
-8.414638e-07
-8.482329e-07
-8.504072e-07
0.000000e+00
8.910690e-08
1.738397e-07
2.689223e-07
3.823254e-07
5.152191e-07
6.667329e-07
8.354670e-07
1.019808e-06
1.218191e-06
1.429273e-06
1.652227e-06
1.887505e-06
2.138488e-06
2.411373e-06
2.701240e-06
2.988829e-06
0.000000e+00
5.390521e-08
1.362583e-07
2.320834e-07
3.476908e-07
4.832527e-07
6.376319e-07
8.092463e-07
9.964412e-07
1.197628e-06
1.411441e-06
1.636991e-06
1.874297e-06
2.124848e-06
2.391092e-06
2.673607e-06
2.957411e-06
0.000000e+00
3.434072e-08
1.061301e-07
2.018474e-07
3.191179e-07
4.569926e-07
6.138657e-07
7.880310e-07
9.778055e-07
1.181594e-06
1.397982e-06
1.625860e-06
1.864465e-06
2.113096e-06
2.371342e-06
2.643541e-06
2.918197e-06
0.000000e+00
2.519920e-08
9.027919e-08
1.842155e-07
3.022526e-07
4.415608e-07
6.000577e-07
7.759288e-07
9.674678e-07
1.173051e-06
1.391146e-06
1.620299e-06
1.858972e-06
2.105243e-06
2.357572e-06
2.619273e-06
2.880249e-06
0.000000e+00
2.257190e-08
8.547279e-08
1.785434e-07
2.967875e-07
4.366699e-07
5.958677e-07
7.725176e-07
9.648917e-07
1.171305e-06
1.390068e-06
1.619402e-06
1.857255e-06
2.101082e-06
2.348380e-06
2.600689e-06
2.848208e-06
0.000000e+00
2.521956e-08
9.035554e-08
1.844043e-07
3.026280e-07
4.422233e-07
6.011329e-07
7.775493e-07
9.697260e-07
1.175902e-06
1.394235e-06
1.622708e-06
1.858973e-06
2.100134e-06
2.343061e-06
2.587527e-06
2.825230e-06
0.000000e+00
3.437355e-08
1.062631e-07
2.021783e-07
3.197761e-07
4.581559e-07
6.157559e-07
7.908826e-07
9.817828e-07
1.186620e-06
1.403425e-06
1.630018e-06
1.863886e-06
2.102007e-06
2.341042e-06
2.579640e-06
2.811231e-06
0.000000e+00
5.394690e-08
1.364270e-07
2.324910e-07
3.484941e-07
4.846651e-07
6.399175e-07
8.126778e-07
1.001196e-06
1.203575e-06
1.417746e-06
1.641409e-06
1.871964e-06
2.106442e-06
2.341766e-06
2.576095e-06
2.804548e-06
0.000000e+00
8.917598e-08
1.740371e-07
2.693619e-07
3.831618e-07
5.166561e-07
6.690115e-07
8.388151e-07
1.024323e-06
1.223608e-06
1.434547e-06
1.654784e-06
1.881694e-06
2.112427e-06
2.344274e-06
2.575517e-06
2.802599e-06


2.077621e-01
2.077621e-01
2.077622e-01
2.077625e-01
2.077627e-01
2.077630e-01
2.077632e-01
2.077633e-01
2.077635e-01
2.077636e-01
2.077637e-01
2.077638e-01
2.077639e-01
2.077638e-01
2.077637e-01
2.077636e-01
2.077626e-01
2.077625e-01
2.077626e-01
2.077628e-01
2.077630e-01
2.077632e-01
2.077633e-01
2.077635e-01
2.077636e-01
2.077637e-01
2.077638e-01
2.077639e-01
2.077639e-01
2.077638e-01
2.077637e-01
2.077636e-01
2.077632e-01
2.077632e-01
2.077632e-01
2.077633e-01
2.077634e-01
2.077635e-01
2.077636e-01
2.077637e-01
2.077637e-01
2.077638e-01
2.077639e-01
2.077639e-01
2.077639e-01
2.077638e-01
2.077637e-01
2.077636e-01
2.077637e-01
2.077637e-01
2.077636e-01
2.077636e-01
2.077637e-01
2.077637e-01
2.077638e-01
2.077638e-01
2.077638e-01
2.077639e-01
2.077639e-01
2.077639e-01
2.077639e-01
2.077639e-01
2.077638e-01
2.077638e-01
2.077637e-01
2.077637e-01
2.077636e-01
2.077636e-01
2.077637e-01
2.077637e-01
2.077638e-01
2.077638e-01
2.077638e-01
2.077639e-01
2.077639e-01
2.077639e-01
2.077639e-01
2.077639e-01
2.077639e-01
2.077639e-01
2.077632e-01
2.077632e-01
2.077632e-01
2.077633e-01
2.077634e-01
2.077635e-01
2.077636e-01
2.077636e-01
2.077637e-01
2.077638e-01
2.077638e-01
2.077639e-01
2.077639e-01
2.077639e-01
2.077640e-01
2.077640e-01
2.077626e-01
2.077625e-01
2.077626e-01
2.077628e-01
2.077630e-01
2.077632e-01
2.077633e-01
2.077634e-01
2.077636e-01
2.077637e-01
2.077638e-01
2.077639e-01
2.077639e-01
2.077640e-01
2.077640e-01
2.077641e-01
2.077621e-01
2.077621e-01
2.077622e-01
2.077625e-01
2.077627e-01
2.077630e-01
2.077632e-01
2.077633e-01
2.077635e-01
2.077636e-01
2.077638e-01
2.077639e-01
2.077640e-01
2.077640e-01
2.077641e-01
2.077641e-01


9.886251e-01
9.902381e-01
9.917303e-01
9.928790e-01
9.939452e-01
9.949284e-01
9.958241e-01
9.966218e-01
9.973133e-01
9.978916e-01
9.983515e-01
9.986883e-01
9.988977e-01
9.989724e-01
9.990263e-01
9.957020e-01
9.956966e-01
9.949575e-01
9.954330e-01
9.960537e-01
9.966324e-01
9.971584e-01
9.976345e-01
9.980658e-01
9.984562e-01
9.988099e-01
9.991309e-01
9.994215e-01
9.996750e-01
9.998410e-01
9.994212e-01
9.937306e-01
9.985048e-01
9.980802e-01
9.979656e-01
9.981268e-01
9.983389e-01
9.985443e-01
9.987351e-01
9.989153e-01
9.990899e-01
9.992601e-01
9.994190e-01
9.995421e-01
9.995678e-01
9.993462e-01
9.985421e-01
9.970960e-01
9.996957e-01
9.993860e-01
9.991948e-01
9.991462e-01
9.991656e-01
9.991981e-01
9.992306e-01
9.992623e-01
9.992935e-01
9.993195e-01
9.993268e-01
9.992880e-01
9.991651e-01
9.989444e-01
9.987573e-01
9.987099e-01
9.996968e-01
9.993877e-01
9.991962e-01
9.991459e-01
9.991608e-01
9.991842e-01
9.992005e-01
9.992060e-01
9.991985e-01
9.991746e-01
9.991299e-01
9.990656e-01
9.990043e-01
9.990165e-01
9.991897e-01
9.994894e-01
9.985069e-01
9.980835e-01
9.979687e-01
9.981269e-01
9.983307e-01
9.985189e-01
9.986782e-01
9.988062e-01
9.989021e-01
9.989666e-01
9.990075e-01
9.990474e-01
9.991312e-01
9.993070e-01
9.995710e-01
9.998440e-01
9.956962e-01
9.949572e-01
9.954324e-01
9.960520e-01
9.966279e-01
9.971480e-01
9.976131e-01
9.980248e-01
9.983836e-01
9.986903e-01
9.989499e-01
9.991767e-01
9.993951e-01
9.996240e-01
9.998381e-01
9.999729e-01
9.886173e-01
9.902260e-01
9.917154e-01
9.928623e-01
9.939302e-01
9.949229e-01
9.958426e-01
9.966870e-01
9.974565e-01
9.981494e-01
9.987576e-01
9.992621e-01
9.996374e-01
9.998690e-01
9.999743e-01
9.999995e-01
1 2 19 18
2 3 20 19
3 4 21 20
4 5 22 21
5 6 23 22
6 7 24 23
7 8 25 24
8 9 26 25
9 10 27 26
10 11 28 27
11 12 29 28
12 13 30 29
13 14 31 30
14 15 32 31
15 16 33 32
16 17 34 33
18 19 36 35
19 20 37 36
20 21 38 37
21 22 39 38
22 23 40 39
23 24 41 40
24 25 42 41
25 26 43 42
26 27 44 43
27 28 45 44
28 29 46 45
29 30 47 46
30 31 48 47
31 32 49 48
32 33 50 49
33 34 51 50
35 36 53 52
36 37 54 53
37 38 55 54
38 39 56 55
39 40 57 56
40 41 58 57
41 42 59 58
42 43 60 59
43 44 61 60
44 45 62 61
45 46 63 62
46 47 64 63
47 48 65 64
48 49 66 65
49 50 67 66
50 51 68 67
52 53 70 69
53 54 71 70
54 55 72 71
55 56 73 72
56 57 74 73
57 58 75 74
58 59 76 75
59 60 77 76
60 61 78 77
61 62 79 78
62 63 80 79
63 64 81 80
64 65 82 81
65 66 83 82
66 67 84 83
67 68 85 84
69 70 87 86
70 71 88 87
71 72 89 88
72 73 90 89
73 74 91 90
74 75 92 91
75 76 93 92
76 77 94 93
77 78 95 94
78 79 96 95
79 80 97 96
80 81 98 97
81 82 99 98
82 83 100 99
83 84 101 100
84 85 102 101
86 87 104 103
87 88 105 104
88 89 106 105
89 90 107 106
90 91 108 107
91 92 109 108
92 93 110 109
93 94 111 110
94 95 112 111
95 96 113 112
96 97 114 113
97 98 115 114
98 99 116 115
99 100 117 116
100 101 118 117
101 102 119 118
103 104 121 120
104 105 122 121
105 106 123 122
106 107 124 123
107 108 125 124
108 109 126 125
109 110 127 126
110 111 128 127
111 112 129 128
112 113 130 129
113 114 131 130
114 115 132 131
115 116 133 132
116 117 134 133
117 118 135 134
118 119 136 135
120 121 138 137
121 122 139 138
122 123 140 139
123 124 141 140
124 125 142 141
125 126 143 142
126 127 144 143
127 128 145 144
128 129 146 145
129 130 147 146
130 131 148 147
131 132 149 148
132 133 150 149
133 134 151 150
134 135 152 151
135 136 153 152
