TITLE = "Solution"
VARIABLES = x, y, u, v, psiu, psiv, t, stress
ZONE T="structure" N=153 E=128 F=FEBLOCK ET=QUADRILATERAL VARLOCATION=([7,8]=cellcentered)
0.000000e+00
1.250000e+01
2.500000e+01
3.750000e+01
5.000000e+01
6.250000e+01
7.500000e+01
8.750000e+01
1.000000e+02
1.125000e+02
1.250000e+02
1.375000e+02
1.500000e+02
1.625000e+02
1.750000e+02
1.875000e+02
2.000000e+02
0.000000e+00
1.250000e+01
2.500000e+01
3.750000e+01
5.000000e+01
6.250000e+01
7.500000e+01
8.750000e+01
1.000000e+02
1.125000e+02
1.250000e+02
1.375000e+02
1.500000e+02
1.625000e+02
1.750000e+02
1.875000e+02
2.000000e+02
0.000000e+00
1.250000e+01
2.500000e+01
3.750000e+01
5.000000e+01
6.250000e+01
7.500000e+01
8.750000e+01
1.000000e+02
1.125000e+02
1.250000e+02
1.375000e+02
1.500000e+02
1.625000e+02
1.750000e+02
1.875000e+02
2.000000e+02
0.000000e+00
1.250000e+01
2.500000e+01
3.750000e+01
5.000000e+01
6.250000e+01
7.500000e+01
8.750000e+01
1.000000e+02
1.125000e+02
1.250000e+02
1.375000e+02
1.500000e+02
1.625000e+02
1.750000e+02
1.875000e+02
2.000000e+02
0.000000e+00
1.250000e+01
2.500000e+01
3.750000e+01
5.000000e+01
6.250000e+01
7.500000e+01
8.750000e+01
1.000000e+02
1.125000e+02
1.250000e+02
1.375000e+02
1.500000e+02
1.625000e+02
1.750000e+02
1.875000e+02
2.000000e+02
0.000000e+00
1.250000e+01
2.500000e+01
3.750000e+01
5.000000e+01
6.250000e+01
7.500000e+01
8.750000e+01
1.000000e+02
1.125000e+02
1.250000e+02
1.375000e+02
1.500000e+02
1.625000e+02
1.750000e+02
1.875000e+02
2.000000e+02
0.000000e+00
1.250000e+01
2.500000e+01
3.750000e+01
5.000000e+01
6.250000e+01
7.500000e+01
8.750000e+01
1.000000e+02
1.125000e+02
1.250000e+02
1.375000e+02
1.500000e+02
1.625000e+02
1.750000e+02
1.875000e+02
2.000000e+02
0.000000e+00
1.250000e+01
2.500000e+01
3.750000e+01
5.000000e+01
6.250000e+01
7.500000e+01
8.750000e+01
1.000000e+02
1.125000e+02
1.250000e+02
1.375000e+02
1.500000e+02
1.625000e+02
1.750000e+02
1.875000e+02
2.000000e+02
0.000000e+00
1.250000e+01
2.500000e+01
3.750000e+01
5.000000e+01
6.250000e+01
7.500000e+01
8.750000e+01
1.000000e+02
1.125000e+02
1.250000e+02
1.375000e+02
1.500000e+02
1.625000e+02
1.750000e+02
1.875000e+02
2.000000e+02
0.000000e+00
0.000000e+00
0.000000e+00
0.000000e+00
0.000000e+00
0.000000e+00
0.000000e+00
0.000000e+00
0.000000e+00
0.000000e+00
0.000000e+00
0.000000e+00
0.000000e+00
0.000000e+00
0.000000e+00
0.000000e+00
0.000000e+00
1.250000e+01
1.250000e+01
1.250000e+01
1.250000e+01
1.250000e+01
1.250000e+01
1.250000e+01
1.250000e+01
1.250000e+01
1.250000e+01
1.250000e+01
1.250000e+01
1.250000e+01
1.250000e+01
1.250000e+01
1.250000e+01
1.250000e+01
2.500000e+01
2.500000e+01
2.500000e+01
2.500000e+01
2.500000e+01
2.500000e+01
2.500000e+01
2.500000e+01
2.500000e+01
2.500000e+01
2.500000e+01
2.500000e+01
2.500000e+01
2.500000e+01
2.500000e+01
2.500000e+01
2.500000e+01
3.750000e+01
3.750000e+01
3.750000e+01
3.750000e+01
3.750000e+01
3.750000e+01
3.750000e+01
3.750000e+01
3.750000e+01
3.750000e+01
3.750000e+01
3.750000e+01
3.750000e+01
3.750000e+01
3.750000e+01
3.750000e+01
3.750000e+01
5.000000e+01
5.000000e+01
5.000000e+01
5.000000e+01
5.000000e+01
5.000000e+01
5.000000e+01
5.000000e+01
5.000000e+01
5.000000e+01
5.000000e+01
5.000000e+01
5.000000e+01
5.000000e+01
5.000000e+01
5.000000e+01
5.000000e+01
6.250000e+01
6.250000e+01
6.250000e+01
6.250000e+01
6.250000e+01
6.250000e+01
6.250000e+01
6.250000e+01
6.250000e+01
6.250000e+01
6.250000e+01
6.250000e+01
6.250000e+01
6.250000e+01
6.250000e+01
6.250000e+01
6.250000e+01
7.500000e+01
7.500000e+01
7.500000e+01
7.500000e+01
7.500000e+01
7.500000e+01
7.500000e+01
7.500000e+01
7.500000e+01
7.500000e+01
7.500000e+01
7.500000e+01
7.500000e+01
7.500000e+01
7.500000e+01
7.500000e+01
7.500000e+01
8.750000e+01
8.750000e+01
8.750000e+01
8.750000e+01
8.750000e+01
8.750000e+01
8.750000e+01
8.750000e+01
8.750000e+01
8.750000e+01
8.750000e+01
8.750000e+01
8.750000e+01
8.750000e+01
8.750000e+01
8.750000e+01
8.750000e+01
1.000000e+02
1.000000e+02
1.000000e+02
1.000000e+02
1.000000e+02
1.000000e+02
1.000000e+02
1.000000e+02
1.000000e+02
1.000000e+02
1.000000e+02
1.000000e+02
1.000000e+02
1.000000e+02
1.000000e+02
1.000000e+02
1.000000e+02
0.000000e+00
-7.090556e-02
-1.305596e-01
-1.854491e-01
-2.365665e-01
-2.838041e-01
-3.270605e-01
-3.663022e-01
-4.015861e-01
-4.330750e-01
-4.610808e-01
-4.861510e-01
-5.092272e-01
-5.319361e-01
-5.570833e-01
-5.879672e-01
-6.111422e-01
0.000000e+00
-4.234353e-02
-8.796045e-02
-1.300848e-01
-1.688942e-01
-2.045364e-01
-2.370852e-01
-2.665842e-01
-2.930865e-01
-3.166739e-01
-3.374661e-01
-3.556128e-01
-3.712300e-01
-3.841568e-01
-3.932748e-01
-3.952733e-01
-4.024384e-01
0.000000e+00
-2.648043e-02
-5.445039e-02
-8.235457e-02
-1.084023e-01
-1.323177e-01
-1.540815e-01
-1.737182e-01
-1.912327e-01
-2.065959e-01
-2.197249e-01
-2.304364e-01
-2.383486e-01
-2.427653e-01
-2.428879e-01
-2.411235e-01
-2.484314e-01
0.000000e+00
-1.278109e-02
-2.631159e-02
-3.992754e-02
-5.294686e-02
-6.493846e-02
-7.580768e-02
-8.552285e-02
-9.402835e-02
-1.012135e-01
-1.068947e-01
-1.108038e-01
-1.126208e-01
-1.121963e-01
-1.104523e-01
-1.109292e-01
-1.163707e-01
0.000000e+00
-1.177394e-05
-2.676586e-05
-4.170856e-05
-4.963900e-05
-3.502990e-05
3.293842e-05
2.095681e-04
5.855898e-04
1.296152e-03
2.517574e-03
4.426986e-03
7.072248e-03
1.006153e-02
1.212643e-02
1.156009e-02
7.957361e-03
0.000000e+00
1.276297e-02
2.626953e-02
3.986026e-02
5.286318e-02
6.487040e-02
7.583408e-02
8.580783e-02
9.487814e-02
1.031502e-01
1.107321e-01
1.176800e-01
1.238731e-01
1.288393e-01
1.317607e-01
1.319924e-01
1.301638e-01
0.000000e+00
2.647746e-02
5.444133e-02
8.233654e-02
1.083741e-01
1.322826e-01
1.540524e-01
1.737277e-01
1.913491e-01
2.069482e-01
2.205384e-01
2.320865e-01
2.414598e-01
2.483898e-01
2.525493e-01
2.538999e-01
2.534735e-01
0.000000e+00
4.236090e-02
8.799822e-02
1.301450e-01
1.689750e-01
2.046228e-01
2.371337e-01
2.664955e-01
2.926635e-01
3.155622e-01
3.350829e-01
3.510906e-01
3.634574e-01
3.721423e-01
3.773230e-01
3.795322e-01
3.799380e-01
0.000000e+00
7.093461e-02
1.306362e-01
1.855926e-01
2.367958e-01
2.841266e-01
3.274452e-01
3.666257e-01
4.015369e-01
4.319975e-01
4.577433e-01
4.784311e-01
4.937211e-01
5.034930e-01
5.082189e-01
5.093854e-01
5.093629e-01
0.000000e+00
-4.292109e-02
-8.425911e-02
-1.378236e-01
-2.035628e-01
-2.813540e-01
-3.703450e-01
-4.695400e-01
-5.778842e-01
-6.943368e-01
-8.179364e-01
-9.479178e-01
-1.083968e+00
-1.226812e+00
-1.380157e+00
-1.555612e+00
-1.807709e+00
0.000000e+00
-2.642301e-02
-6.954535e-02
-1.237740e-01
-1.905877e-01
-2.694404e-01
-3.595095e-01
-4.597748e-01
-5.691690e-01
-6.866329e-01
-8.111781e-01
-9.420046e-01
-1.078750e+00
-1.222123e+00
-1.375408e+00
-1.549798e+00
-1.763444e+00
0.000000e+00
-1.993851e-02
-5.934504e-02
-1.137739e-01
-1.812192e-01
-2.608836e-01
-3.517806e-01
-4.528801e-01
-5.631223e-01
-6.814628e-01
-8.069326e-01
-9.387589e-01
-1.076614e+00
-1.221089e+00
-1.374506e+00
-1.539747e+00
-1.699665e+00
0.000000e+00
-1.718160e-02
-5.427350e-02
-1.079040e-01
-1.755932e-01
-2.557479e-01
-3.472116e-01
-4.489150e-01
-5.598183e-01
-6.789052e-01
-8.052278e-01
-9.379983e-01
-1.076733e+00
-1.221368e+00
-1.371716e+00
-1.523549e+00
-1.663422e+00
0.000000e+00
-1.638739e-02
-5.273862e-02
-1.060315e-01
-1.737391e-01
-2.540933e-01
-3.458200e-01
-4.478508e-01
-5.591657e-01
-6.787651e-01
-8.056798e-01
-9.389974e-01
-1.077856e+00
-1.221232e+00
-1.366979e+00
-1.510112e+00
-1.641973e+00
0.000000e+00
-1.717140e-02
-5.426624e-02
-1.079170e-01
-1.756567e-01
-2.559151e-01
-3.475692e-01
-4.495922e-01
-5.609857e-01
-6.807453e-01
-8.078390e-01
-9.411630e-01
-1.079427e+00
-1.220873e+00
-1.362781e+00
-1.501007e+00
-1.630053e+00
0.000000e+00
-1.992188e-02
-5.933301e-02
-1.137954e-01
-1.813261e-01
-2.611663e-01
-3.523867e-01
-4.540298e-01
-5.651073e-01
-6.845973e-01
-8.113984e-01
-9.442370e-01
-1.081513e+00
-1.221104e+00
-1.360262e+00
-1.495835e+00
-1.624796e+00
0.000000e+00
-2.640742e-02
-6.953488e-02
-1.238026e-01
-1.907161e-01
-2.697729e-01
-3.602151e-01
-4.611037e-01
-5.714492e-01
-6.902113e-01
-8.162434e-01
-9.481807e-01
-1.084287e+00
-1.222324e+00
-1.359631e+00
-1.493696e+00
-1.623562e+00
0.000000e+00
-4.291465e-02
-8.426001e-02
-1.378679e-01
-2.037116e-01
-2.817093e-01
-3.710670e-01
-4.708573e-01
-5.800804e-01
-6.976776e-01
-8.224748e-01
-9.530770e-01
-1.087735e+00
-1.224263e+00
-1.360167e+00
-1.493305e+00
-1.623581e+00


0.000000e+00
9.915192e-08
1.986689e-07
2.910926e-07
3.777710e-07
4.582144e-07
5.320852e-07
5.993626e-07
6.601818e-07
7.147977e-07
7.635721e-07
8.069078e-07
8.450403e-07
8.776698e-07
9.043765e-07
9.271982e-07
9.475046e-07
0.000000e+00
5.576015e-08
1.356865e-07
2.075575e-07
2.734579e-07
3.342069e-07
3.897492e-07
4.400851e-07
4.852547e-07
5.252902e-07
5.601795e-07
5.898195e-07
6.140598e-07
6.333991e-07
6.510636e-07
6.720293e-07
6.936082e-07
0.000000e+00
3.513216e-08
8.574637e-08
1.332374e-07
1.775121e-07
2.182352e-07
2.552462e-07
2.885005e-07
3.179475e-07
3.434878e-07
3.649752e-07
3.823054e-07
3.957500e-07
4.066889e-07
4.182268e-07
4.338161e-07
4.518282e-07
0.000000e+00
1.716173e-08
4.110551e-08
6.436397e-08
8.650316e-08
1.068430e-07
1.251636e-07
1.413810e-07
1.554001e-07
1.670987e-07
1.763753e-07
1.832848e-07
1.882939e-07
1.925831e-07
1.981094e-07
2.071956e-07
2.197006e-07
0.000000e+00
1.796937e-11
2.225378e-11
-9.475783e-12
-1.077330e-10
-3.212009e-10
-7.212601e-10
-1.402905e-09
-2.476358e-09
-4.039668e-09
-6.118617e-09
-8.566301e-09
-1.094554e-08
-1.245488e-08
-1.185997e-08
-7.583195e-09
6.315826e-10
0.000000e+00
-1.712815e-08
-4.106044e-08
-6.436570e-08
-8.666008e-08
-1.073451e-07
-1.263224e-07
-1.436729e-07
-1.594970e-07
-1.738567e-07
-1.867236e-07
-1.979221e-07
-2.070940e-07
-2.137043e-07
-2.170918e-07
-2.164458e-07
-2.119461e-07
0.000000e+00
-3.511101e-08
-8.571513e-08
-1.332188e-07
-1.775491e-07
-2.184091e-07
-2.556989e-07
-2.894597e-07
-3.197503e-07
-3.465889e-07
-3.699101e-07
-3.895292e-07
-4.051350e-07
-4.163620e-07
-4.230241e-07
-4.252427e-07
-4.239141e-07
0.000000e+00
-5.578137e-08
-1.357288e-07
-2.075957e-07
-2.734509e-07
-3.340843e-07
-3.893952e-07
-4.393209e-07
-4.838216e-07
-5.228405e-07
-5.562886e-07
-5.840335e-07
-6.059026e-07
-6.217506e-07
-6.317171e-07
-6.366171e-07
-6.378010e-07
0.000000e+00
-9.926912e-08
-1.988766e-07
-2.913495e-07
-3.779905e-07
-4.582163e-07
-5.315281e-07
-5.976561e-07
-6.563839e-07
-7.075134e-07
-7.508886e-07
-7.864403e-07
-8.142289e-07
-8.344827e-07
-8.476751e-07
-8.544949e-07
-8.566855e-07
0.000000e+00
8.976049e-08
1.751172e-07
2.709006e-07
3.851396e-07
5.190128e-07
6.716434e-07
8.416217e-07
1.027323e-06
1.227170e-06
1.439811e-06
1.664413e-06
1.901429e-06
2.154269e-06
2.429174e-06
2.721186e-06
3.010903e-06
0.000000e+00
5.430162e-08
1.372609e-07
2.337917e-07
3.502504e-07
4.868106e-07
6.423272e-07
8.152066e-07
1.003782e-06
1.206454e-06
1.421846e-06
1.649062e-06
1.888123e-06
2.140527e-06
2.408741e-06
2.693348e-06
2.979251e-06
0.000000e+00
3.459443e-08
1.069124e-07
2.033338e-07
3.214671e-07
4.603566e-07
6.183850e-07
7.938339e-07
9.850079e-07
1.190300e-06
1.408286e-06
1.637848e-06
1.878217e-06
2.128687e-06
2.388844e-06
2.663058e-06
2.939746e-06
0.000000e+00
2.538603e-08
9.094519e-08
1.855722e-07
3.044774e-07
4.448106e-07
6.044746e-07
7.816416e-07
9.745932e-07
1.181693e-06
1.401400e-06
1.632246e-06
1.872683e-06
2.120776e-06
2.374971e-06
2.638609e-06
2.901515e-06
0.000000e+00
2.273945e-08
8.610345e-08
1.798583e-07
2.989719e-07
4.398835e-07
6.002535e-07
7.782051e-07
9.719979e-07
1.179934e-06
1.400313e-06
1.631342e-06
1.870953e-06
2.116584e-06
2.365711e-06
2.619887e-06
2.869236e-06
0.000000e+00
2.540654e-08
9.102211e-08
1.857624e-07
3.048555e-07
4.454781e-07
6.055578e-07
7.832743e-07
9.768683e-07
1.184566e-06
1.404511e-06
1.634673e-06
1.872684e-06
2.115628e-06
2.360352e-06
2.606626e-06
2.846086e-06
0.000000e+00
3.462750e-08
1.070464e-07
2.036672e-07
3.221302e-07
4.615286e-07
6.202894e-07
7.967067e-07
9.890149e-07
1.195364e-06
1.413770e-06
1.642037e-06
1.877634e-06
2.117515e-06
2.358317e-06
2.598680e-06
2.831982e-06
0.000000e+00
5.434361e-08
1.374309e-07
2.342023e-07
3.510596e-07
4.882335e-07
6.446298e-07
8.186638e-07
1.008573e-06
1.212446e-06
1.428198e-06
1.653513e-06
1.885772e-06
2.121984e-06
2.359047e-06
2.595108e-06
2.825249e-06
0.000000e+00
8.983007e-08
1.753159e-07
2.713435e-07
3.859822e-07
5.204605e-07
6.739390e-07
8.449949e-07
1.031871e-06
1.232627e-06
1.445124e-06
1.666988e-06
1.895575e-06
2.128013e-06
2.361574e-06
2.594526e-06
2.823286e-06


2.071797e-01
2.071797e-01
2.071798e-01
2.071800e-01
2.071802e-01
2.071804e-01
2.071806e-01
2.071807e-01
2.071809e-01
2.071810e-01
2.071811e-01
2.071812e-01
2.071812e-01
2.071812e-01
2.071810e-01
2.071810e-01
2.071801e-01
2.071800e-01
2.071801e-01
2.071803e-01
2.071804e-01
2.071806e-01
2.071807e-01
2.071808e-01
2.071809e-01
2.071810e-01
2.071811e-01
2.071812e-01
2.071812e-01
2.071812e-01
2.071810e-01
2.071809e-01
2.071807e-01
2.071806e-01
2.071806e-01
2.071807e-01
2.071808e-01
2.071809e-01
2.071809e-01
2.071810e-01
2.071811e-01
2.071811e-01
2.071812e-01
2.071812e-01
2.071812e-01
2.071812e-01
2.071811e-01
2.071810e-01
2.071810e-01
2.071810e-01
2.071810e-01
2.071810e-01
2.071810e-01
2.071811e-01
2.071811e-01
2.071811e-01
2.071812e-01
2.071812e-01
2.071812e-01
2.071812e-01
2.071812e-01
2.071812e-01
2.071811e-01
2.071811e-01
2.071810e-01
2.071810e-01
2.071810e-01
2.071810e-01
2.071810e-01
2.071811e-01
2.071811e-01
2.071811e-01
2.071811e-01
2.071812e-01
2.071812e-01
2.071812e-01
2.071812e-01
2.071812e-01
2.071812e-01
2.071812e-01
2.071807e-01
2.071806e-01
2.071806e-01
2.071807e-01
2.071808e-01
2.071809e-01
2.071809e-01
2.071810e-01
2.071811e-01
2.071811e-01
2.071811e-01
2.071812e-01
2.071812e-01
2.071812e-01
2.071813e-01
2.071813e-01
2.071801e-01
2.071800e-01
2.071801e-01
2.071803e-01
2.071804e-01
2.071806e-01
2.071807e-01
2.071808e-01
2.071809e-01
2.071810e-01
2.071811e-01
2.071812e-01
2.071812e-01
2.071813e-01
2.071813e-01
2.071813e-01
2.071797e-01
2.071797e-01
2.071798e-01
2.071800e-01
2.071802e-01
2.071804e-01
2.071806e-01
2.071807e-01
2.071809e-01
2.071810e-01
2.071811e-01
2.071812e-01
2.071813e-01
2.071813e-01
2.071814e-01
2.071814e-01


9.886888e-01
9.902928e-01
9.917766e-01
9.929188e-01
9.939791e-01
9.949568e-01
9.958474e-01
9.966408e-01
9.973283e-01
9.979034e-01
9.983607e-01
9.986957e-01
9.989039e-01
9.989782e-01
9.990318e-01
9.957261e-01
9.957207e-01
9.949857e-01
9.954586e-01
9.960758e-01
9.966513e-01
9.971743e-01
9.976478e-01
9.980766e-01
9.984649e-01
9.988166e-01
9.991357e-01
9.994247e-01
9.996768e-01
9.998419e-01
9.994244e-01
9.937657e-01
9.985131e-01
9.980910e-01
9.979770e-01
9.981373e-01
9.983482e-01
9.985525e-01
9.987422e-01
9.989214e-01
9.990950e-01
9.992642e-01
9.994223e-01
9.995447e-01
9.995702e-01
9.993498e-01
9.985503e-01
9.971122e-01
9.996974e-01
9.993895e-01
9.991993e-01
9.991510e-01
9.991703e-01
9.992026e-01
9.992349e-01
9.992665e-01
9.992974e-01
9.993233e-01
9.993306e-01
9.992920e-01
9.991698e-01
9.989503e-01
9.987643e-01
9.987172e-01
9.996985e-01
9.993911e-01
9.992007e-01
9.991507e-01
9.991655e-01
9.991888e-01
9.992050e-01
9.992104e-01
9.992030e-01
9.991792e-01
9.991348e-01
9.990708e-01
9.990099e-01
9.990220e-01
9.991942e-01
9.994923e-01
9.985153e-01
9.980942e-01
9.979801e-01
9.981373e-01
9.983400e-01
9.985272e-01
9.986856e-01
9.988129e-01
9.989082e-01
9.989724e-01
9.990130e-01
9.990527e-01
9.991361e-01
9.993109e-01
9.995734e-01
9.998449e-01
9.957203e-01
9.949854e-01
9.954580e-01
9.960741e-01
9.966468e-01
9.971640e-01
9.976264e-01
9.980359e-01
9.983927e-01
9.986977e-01
9.989558e-01
9.991813e-01
9.993984e-01
9.996261e-01
9.998390e-01
9.999730e-01
9.886810e-01
9.902807e-01
9.917618e-01
9.929022e-01
9.939642e-01
9.949513e-01
9.958659e-01
9.967056e-01
9.974707e-01
9.981598e-01
9.987645e-01
9.992662e-01
9.996394e-01
9.998697e-01
9.999745e-01
9.999995e-01
1 2 19 18
2 3 20 19
3 4 21 20
4 5 22 21
5 6 23 22
6 7 24 23
7 8 25 24
8 9 26 25
9 10 27 26
10 11 28 27
11 12 29 28
12 13 30 29
13 14 31 30
14 15 32 31
15 16 33 32
16 17 34 33
18 19 36 35
19 20 37 36
20 21 38 37
21 22 39 38
22 23 40 39
23 24 41 40
24 25 42 41
25 26 43 42
26 27 44 43
27 28 45 44
28 29 46 45
29 30 47 46
30 31 48 47
31 32 49 48
32 33 50 49
33 34 51 50
35 36 53 52
36 37 54 53
37 38 55 54
38 39 56 55
39 40 57 56
40 41 58 57
41 42 59 58
42 43 60 59
43 44 61 60
44 45 62 61
45 46 63 62
46 47 64 63
47 48 65 64
48 49 66 65
49 50 67 66
50 51 68 67
52 53 70 69
53 54 71 70
54 55 72 71
55 56 73 72
56 57 74 73
57 58 75 74
58 59 76 75
59 60 77 76
60 61 78 77
61 62 79 78
62 63 80 79
63 64 81 80
64 65 82 81
65 66 83 82
66 67 84 83
67 68 85 84
69 70 87 86
70 71 88 87
71 72 89 88
72 73 90 89
73 74 91 90
74 75 92 91
75 76 93 92
76 77 94 93
77 78 95 94
78 79 96 95
79 80 97 96
80 81 98 97
81 82 99 98
82 83 100 99
83 84 101 100
84 85 102 101
86 87 104 103
87 88 105 104
88 89 106 105
89 90 107 106
90 91 108 107
91 92 109 108
92 93 110 109
93 94 111 110
94 95 112 111
95 96 113 112
96 97 114 113
97 98 115 114
98 99 116 115
99 100 117 116
100 101 118 117
101 102 119 118
103 104 121 120
104 105 122 121
105 106 123 122
106 107 124 123
107 108 125 124
108 109 126 125
109 110 127 126
110 111 128 127
111 112 129 128
112 113 130 129
113 114 131 130
114 115 132 131
115 116 133 132
116 117 134 133
117 118 135 134
118 119 136 135
120 121 138 137
121 122 139 138
122 123 140 139
123 124 141 140
124 125 142 141
125 126 143 142
126 127 144 143
127 128 145 144
128 129 146 145
129 130 147 146
130 131 148 147
131 132 149 148
132 133 150 149
133 134 151 150
134 135 152 151
135 136 153 152
