TITLE = "Solution"
VARIABLES = x, y, u, v, psiu, psiv, t, stress
ZONE T="structure" N=153 E=128 F=FEBLOCK ET=QUADRILATERAL VARLOCATION=([7,8]=cellcentered)
0.000000e+00
1.250000e+01
2.500000e+01
3.750000e+01
5.000000e+01
6.250000e+01
7.500000e+01
8.750000e+01
1.000000e+02
1.125000e+02
1.250000e+02
1.375000e+02
1.500000e+02
1.625000e+02
1.750000e+02
1.875000e+02
2.000000e+02
0.000000e+00
1.250000e+01
2.500000e+01
3.750000e+01
5.000000e+01
6.250000e+01
7.500000e+01
8.750000e+01
1.000000e+02
1.125000e+02
1.250000e+02
1.375000e+02
1.500000e+02
1.625000e+02
1.750000e+02
1.875000e+02
2.000000e+02
0.000000e+00
1.250000e+01
2.500000e+01
3.750000e+01
5.000000e+01
6.250000e+01
7.500000e+01
8.750000e+01
1.000000e+02
1.125000e+02
1.250000e+02
1.375000e+02
1.500000e+02
1.625000e+02
1.750000e+02
1.875000e+02
2.000000e+02
0.000000e+00
1.250000e+01
2.500000e+01
3.750000e+01
5.000000e+01
6.250000e+01
7.500000e+01
8.750000e+01
1.000000e+02
1.125000e+02
1.250000e+02
1.375000e+02
1.500000e+02
1.625000e+02
1.750000e+02
1.875000e+02
2.000000e+02
0.000000e+00
1.250000e+01
2.500000e+01
3.750000e+01
5.000000e+01
6.250000e+01
7.500000e+01
8.750000e+01
1.000000e+02
1.125000e+02
1.250000e+02
1.375000e+02
1.500000e+02
1.625000e+02
1.750000e+02
1.875000e+02
2.000000e+02
0.000000e+00
1.250000e+01
2.500000e+01
3.750000e+01
5.000000e+01
6.250000e+01
7.500000e+01
8.750000e+01
1.000000e+02
1.125000e+02
1.250000e+02
1.375000e+02
1.500000e+02
1.625000e+02
1.750000e+02
1.875000e+02
2.000000e+02
0.000000e+00
1.250000e+01
2.500000e+01
3.750000e+01
5.000000e+01
6.250000e+01
7.500000e+01
8.750000e+01
1.000000e+02
1.125000e+02
1.250000e+02
1.375000e+02
1.500000e+02
1.625000e+02
1.750000e+02
1.875000e+02
2.000000e+02
0.000000e+00
1.250000e+01
2.500000e+01
3.750000e+01
5.000000e+01
6.250000e+01
7.500000e+01
8.750000e+01
1.000000e+02
1.125000e+02
1.250000e+02
1.375000e+02
1.500000e+02
1.625000e+02
1.750000e+02
1.875000e+02
2.000000e+02
0.000000e+00
1.250000e+01
2.500000e+01
3.750000e+01
5.000000e+01
6.250000e+01
7.500000e+01
8.750000e+01
1.000000e+02
1.125000e+02
1.250000e+02
1.375000e+02
1.500000e+02
1.625000e+02
1.750000e+02
1.875000e+02
2.000000e+02
0.000000e+00
0.000000e+00
0.000000e+00
0.000000e+00
0.000000e+00
0.000000e+00
0.000000e+00
0.000000e+00
0.000000e+00
0.000000e+00
0.000000e+00
0.000000e+00
0.000000e+00
0.000000e+00
0.000000e+00
0.000000e+00
0.000000e+00
1.250000e+01
1.250000e+01
1.250000e+01
1.250000e+01
1.250000e+01
1.250000e+01
1.250000e+01
1.250000e+01
1.250000e+01
1.250000e+01
1.250000e+01
1.250000e+01
1.250000e+01
1.250000e+01
1.250000e+01
1.250000e+01
1.250000e+01
2.500000e+01
2.500000e+01
2.500000e+01
2.500000e+01
2.500000e+01
2.500000e+01
2.500000e+01
2.500000e+01
2.500000e+01
2.500000e+01
2.500000e+01
2.500000e+01
2.500000e+01
2.500000e+01
2.500000e+01
2.500000e+01
2.500000e+01
3.750000e+01
3.750000e+01
3.750000e+01
3.750000e+01
3.750000e+01
3.750000e+01
3.750000e+01
3.750000e+01
3.750000e+01
3.750000e+01
3.750000e+01
3.750000e+01
3.750000e+01
3.750000e+01
3.750000e+01
3.750000e+01
3.750000e+01
5.000000e+01
5.000000e+01
5.000000e+01
5.000000e+01
5.000000e+01
5.000000e+01
5.000000e+01
5.000000e+01
5.000000e+01
5.000000e+01
5.000000e+01
5.000000e+01
5.000000e+01
5.000000e+01
5.000000e+01
5.000000e+01
5.000000e+01
6.250000e+01
6.250000e+01
6.250000e+01
6.250000e+01
6.250000e+01
6.250000e+01
6.250000e+01
6.250000e+01
6.250000e+01
6.250000e+01
6.250000e+01
6.250000e+01
6.250000e+01
6.250000e+01
6.250000e+01
6.250000e+01
6.250000e+01
7.500000e+01
7.500000e+01
7.500000e+01
7.500000e+01
7.500000e+01
7.500000e+01
7.500000e+01
7.500000e+01
7.500000e+01
7.500000e+01
7.500000e+01
7.500000e+01
7.500000e+01
7.500000e+01
7.500000e+01
7.500000e+01
7.500000e+01
8.750000e+01
8.750000e+01
8.750000e+01
8.750000e+01
8.750000e+01
8.750000e+01
8.750000e+01
8.750000e+01
8.750000e+01
8.750000e+01
8.750000e+01
8.750000e+01
8.750000e+01
8.750000e+01
8.750000e+01
8.750000e+01
8.750000e+01
1.000000e+02
1.000000e+02
1.000000e+02
1.000000e+02
1.000000e+02
1.000000e+02
1.000000e+02
1.000000e+02
1.000000e+02
1.000000e+02
1.000000e+02
1.000000e+02
1.000000e+02
1.000000e+02
1.000000e+02
1.000000e+02
1.000000e+02
0.000000e+00
-7.064663e-02
-1.300828e-01
-1.847718e-01
-2.357026e-01
-2.827677e-01
-3.258661e-01
-3.649644e-01
-4.001195e-01
-4.314933e-01
-4.593968e-01
-4.843754e-01
-5.073673e-01
-5.299933e-01
-5.550486e-01
-5.858197e-01
-6.089101e-01
0.000000e+00
-4.218891e-02
-8.763924e-02
-1.296097e-01
-1.682775e-01
-2.037894e-01
-2.362193e-01
-2.656106e-01
-2.920162e-01
-3.155174e-01
-3.362336e-01
-3.543140e-01
-3.698742e-01
-3.827537e-01
-3.918384e-01
-3.938296e-01
-4.009686e-01
0.000000e+00
-2.638373e-02
-5.425155e-02
-8.205384e-02
-1.080064e-01
-1.318345e-01
-1.535188e-01
-1.730838e-01
-1.905344e-01
-2.058413e-01
-2.189224e-01
-2.295948e-01
-2.374781e-01
-2.418787e-01
-2.420008e-01
-2.402429e-01
-2.475241e-01
0.000000e+00
-1.273442e-02
-2.621551e-02
-3.978174e-02
-5.275351e-02
-6.470132e-02
-7.553084e-02
-8.521052e-02
-9.368496e-02
-1.008439e-01
-1.065043e-01
-1.103991e-01
-1.122094e-01
-1.117865e-01
-1.100489e-01
-1.105241e-01
-1.159456e-01
0.000000e+00
-1.173090e-05
-2.666802e-05
-4.155609e-05
-4.945752e-05
-3.490174e-05
3.281834e-05
2.088028e-04
5.834509e-04
1.291417e-03
2.508378e-03
4.410814e-03
7.046412e-03
1.002477e-02
1.208213e-02
1.151786e-02
7.928289e-03
0.000000e+00
1.271637e-02
2.617361e-02
3.971471e-02
5.267014e-02
6.463351e-02
7.555714e-02
8.549446e-02
9.453164e-02
1.027735e-01
1.103277e-01
1.172502e-01
1.234207e-01
1.283688e-01
1.312795e-01
1.315104e-01
1.296884e-01
0.000000e+00
2.638077e-02
5.424253e-02
8.203587e-02
1.079784e-01
1.317996e-01
1.534898e-01
1.730932e-01
1.906503e-01
2.061924e-01
2.197329e-01
2.312389e-01
2.405779e-01
2.474826e-01
2.516269e-01
2.529726e-01
2.525477e-01
0.000000e+00
4.220621e-02
8.767687e-02
1.296697e-01
1.683579e-01
2.038756e-01
2.362677e-01
2.655222e-01
2.915946e-01
3.144097e-01
3.338591e-01
3.498084e-01
3.621299e-01
3.707831e-01
3.759449e-01
3.781461e-01
3.785504e-01
0.000000e+00
7.067557e-02
1.301592e-01
1.849149e-01
2.359311e-01
2.830890e-01
3.262494e-01
3.652867e-01
4.000704e-01
4.304198e-01
4.560715e-01
4.766837e-01
4.919179e-01
5.016541e-01
5.063627e-01
5.075249e-01
5.075025e-01
0.000000e+00
-4.276435e-02
-8.395140e-02
-1.373202e-01
-2.028194e-01
-2.803264e-01
-3.689925e-01
-4.678252e-01
-5.757737e-01
-6.918010e-01
-8.149492e-01
-9.444559e-01
-1.080009e+00
-1.222331e+00
-1.375116e+00
-1.549930e+00
-1.801107e+00
0.000000e+00
-2.632652e-02
-6.929138e-02
-1.233220e-01
-1.898917e-01
-2.684564e-01
-3.581966e-01
-4.580956e-01
-5.670904e-01
-6.841252e-01
-8.082156e-01
-9.385643e-01
-1.074810e+00
-1.217659e+00
-1.370385e+00
-1.544138e+00
-1.757004e+00
0.000000e+00
-1.986570e-02
-5.912831e-02
-1.133584e-01
-1.805574e-01
-2.599308e-01
-3.504959e-01
-4.512261e-01
-5.610657e-01
-6.789740e-01
-8.039856e-01
-9.353304e-01
-1.072682e+00
-1.216629e+00
-1.369486e+00
-1.534123e+00
-1.693457e+00
0.000000e+00
-1.711885e-02
-5.407529e-02
-1.075100e-01
-1.749520e-01
-2.548139e-01
-3.459436e-01
-4.472756e-01
-5.577738e-01
-6.764258e-01
-8.022870e-01
-9.345726e-01
-1.072801e+00
-1.216907e+00
-1.366706e+00
-1.517984e+00
-1.657347e+00
0.000000e+00
-1.632754e-02
-5.254601e-02
-1.056443e-01
-1.731046e-01
-2.531654e-01
-3.445571e-01
-4.462152e-01
-5.571236e-01
-6.762861e-01
-8.027374e-01
-9.355681e-01
-1.073920e+00
-1.216772e+00
-1.361986e+00
-1.504597e+00
-1.635976e+00
0.000000e+00
-1.710869e-02
-5.406806e-02
-1.075228e-01
-1.750152e-01
-2.549805e-01
-3.462998e-01
-4.479502e-01
-5.589369e-01
-6.782591e-01
-8.048887e-01
-9.377257e-01
-1.075485e+00
-1.216414e+00
-1.357804e+00
-1.495525e+00
-1.624100e+00
0.000000e+00
-1.984912e-02
-5.911633e-02
-1.133798e-01
-1.806639e-01
-2.602126e-01
-3.510998e-01
-4.523717e-01
-5.630435e-01
-6.820970e-01
-8.084351e-01
-9.407885e-01
-1.077563e+00
-1.216645e+00
-1.355294e+00
-1.490372e+00
-1.618862e+00
0.000000e+00
-2.631098e-02
-6.928094e-02
-1.233505e-01
-1.900196e-01
-2.687877e-01
-3.588996e-01
-4.594197e-01
-5.693623e-01
-6.876906e-01
-8.132623e-01
-9.447178e-01
-1.080327e+00
-1.217860e+00
-1.354666e+00
-1.488241e+00
-1.617632e+00
0.000000e+00
-4.275793e-02
-8.395230e-02
-1.373644e-01
-2.029677e-01
-2.806805e-01
-3.697118e-01
-4.691377e-01
-5.779619e-01
-6.951296e-01
-8.194710e-01
-9.495962e-01
-1.083763e+00
-1.219792e+00
-1.355200e+00
-1.487851e+00
-1.617651e+00


0.000000e+00
9.962674e-08
1.996193e-07
2.924854e-07
3.795800e-07
4.604111e-07
5.346394e-07
6.022435e-07
6.633590e-07
7.182418e-07
7.672551e-07
8.108035e-07
8.491235e-07
8.819134e-07
9.087514e-07
9.316850e-07
9.520906e-07
0.000000e+00
5.602530e-08
1.363326e-07
2.085473e-07
2.747643e-07
3.358063e-07
3.916177e-07
4.421982e-07
4.875880e-07
5.278194e-07
5.628797e-07
5.926654e-07
6.170250e-07
6.364597e-07
6.542113e-07
6.752799e-07
6.969642e-07
0.000000e+00
3.529799e-08
8.615306e-08
1.338711e-07
1.783584e-07
2.192780e-07
2.564684e-07
2.898845e-07
3.194752e-07
3.451406e-07
3.667334e-07
3.841489e-07
3.976598e-07
4.086528e-07
4.202476e-07
4.359133e-07
4.540134e-07
0.000000e+00
1.724236e-08
4.130013e-08
6.466967e-08
8.691512e-08
1.073531e-07
1.257625e-07
1.420589e-07
1.561463e-07
1.679022e-07
1.772244e-07
1.841679e-07
1.892017e-07
1.935121e-07
1.990655e-07
2.081963e-07
2.207625e-07
0.000000e+00
1.806289e-11
2.237472e-11
-9.503113e-12
-1.082339e-10
-3.227396e-10
-7.247515e-10
-1.409731e-09
-2.488443e-09
-4.059423e-09
-6.148585e-09
-8.608315e-09
-1.099930e-08
-1.251615e-08
-1.191841e-08
-7.620677e-09
6.344000e-10
0.000000e+00
-1.720861e-08
-4.125481e-08
-6.467137e-08
-8.707277e-08
-1.078576e-07
-1.269269e-07
-1.443619e-07
-1.602632e-07
-1.746933e-07
-1.876234e-07
-1.988771e-07
-2.080942e-07
-2.147371e-07
-2.181414e-07
-2.174923e-07
-2.129705e-07
0.000000e+00
-3.527673e-08
-8.612165e-08
-1.338523e-07
-1.783955e-07
-2.194528e-07
-2.569232e-07
-2.908483e-07
-3.212868e-07
-3.482569e-07
-3.716926e-07
-3.914082e-07
-4.070909e-07
-4.183732e-07
-4.250683e-07
-4.272978e-07
-4.259626e-07
0.000000e+00
-5.604663e-08
-1.363750e-07
-2.085857e-07
-2.747573e-07
-3.356831e-07
-3.912619e-07
-4.414302e-07
-4.861479e-07
-5.253576e-07
-5.589697e-07
-5.868508e-07
-6.088276e-07
-6.247537e-07
-6.347692e-07
-6.396935e-07
-6.408831e-07
0.000000e+00
-9.974451e-08
-1.998280e-07
-2.927435e-07
-3.798006e-07
-4.604131e-07
-5.340796e-07
-6.005287e-07
-6.595424e-07
-7.109215e-07
-7.545091e-07
-7.902352e-07
-8.181602e-07
-8.385137e-07
-8.517711e-07
-8.586245e-07
-8.608259e-07
0.000000e+00
9.019028e-08
1.759579e-07
2.722033e-07
3.869931e-07
5.215117e-07
6.748783e-07
8.456768e-07
1.032275e-06
1.233087e-06
1.446756e-06
1.672445e-06
1.910610e-06
2.164675e-06
2.440913e-06
2.734342e-06
3.025463e-06
0.000000e+00
5.456260e-08
1.379212e-07
2.349168e-07
3.519362e-07
4.891541e-07
6.454201e-07
8.191332e-07
1.008619e-06
1.212270e-06
1.428704e-06
1.657019e-06
1.897237e-06
2.150865e-06
2.420380e-06
2.706367e-06
2.993657e-06
0.000000e+00
3.476180e-08
1.074279e-07
2.043130e-07
3.230143e-07
4.625722e-07
6.213617e-07
7.976564e-07
9.897530e-07
1.196037e-06
1.415077e-06
1.645750e-06
1.887283e-06
2.138967e-06
2.400385e-06
2.675929e-06
2.953959e-06
0.000000e+00
2.550948e-08
9.138427e-08
1.864659e-07
3.059426e-07
4.469508e-07
6.073836e-07
7.854047e-07
9.792873e-07
1.187388e-06
1.408156e-06
1.640120e-06
1.881722e-06
2.131017e-06
2.386444e-06
2.651361e-06
2.915541e-06
0.000000e+00
2.285022e-08
8.651927e-08
1.807246e-07
3.004105e-07
4.419999e-07
6.031420e-07
7.819514e-07
9.766794e-07
1.185620e-06
1.407065e-06
1.639211e-06
1.879983e-06
2.126804e-06
2.377138e-06
2.632546e-06
2.883103e-06
0.000000e+00
2.553009e-08
9.146157e-08
1.866571e-07
3.063226e-07
4.476216e-07
6.084722e-07
7.870453e-07
9.815736e-07
1.190274e-06
1.411283e-06
1.642559e-06
1.881723e-06
2.125844e-06
2.371753e-06
2.619221e-06
2.859840e-06
0.000000e+00
3.479504e-08
1.075626e-07
2.046480e-07
3.236808e-07
4.637500e-07
6.232755e-07
8.005434e-07
9.937797e-07
1.201126e-06
1.420588e-06
1.649960e-06
1.886697e-06
2.127740e-06
2.369708e-06
2.611236e-06
2.845667e-06
0.000000e+00
5.460479e-08
1.380921e-07
2.353294e-07
3.527495e-07
4.905841e-07
6.477341e-07
8.226074e-07
1.013433e-06
1.218291e-06
1.435086e-06
1.661492e-06
1.894875e-06
2.132230e-06
2.370442e-06
2.607646e-06
2.838901e-06
0.000000e+00
9.026020e-08
1.761576e-07
2.726483e-07
3.878398e-07
5.229665e-07
6.771853e-07
8.490666e-07
1.036845e-06
1.238571e-06
1.452096e-06
1.675033e-06
1.904726e-06
2.138290e-06
2.372981e-06
2.607061e-06
2.836928e-06


2.064232e-01
2.064232e-01
2.064233e-01
2.064234e-01
2.064236e-01
2.064237e-01
2.064239e-01
2.064240e-01
2.064241e-01
2.064242e-01
2.064242e-01
2.064243e-01
2.064243e-01
2.064243e-01
2.064242e-01
2.064241e-01
2.064235e-01
2.064235e-01
2.064235e-01
2.064236e-01
2.064237e-01
2.064239e-01
2.064240e-01
2.064241e-01
2.064241e-01
2.064242e-01
2.064243e-01
2.064243e-01
2.064243e-01
2.064243e-01
2.064242e-01
2.064241e-01
2.064239e-01
2.064239e-01
2.064239e-01
2.064239e-01
2.064240e-01
2.064241e-01
2.064241e-01
2.064242e-01
2.064242e-01
2.064243e-01
2.064243e-01
2.064243e-01
2.064243e-01
2.064243e-01
2.064242e-01
2.064242e-01
2.064242e-01
2.064242e-01
2.064242e-01
2.064242e-01
2.064242e-01
2.064242e-01
2.064242e-01
2.064243e-01
2.064243e-01
2.064243e-01
2.064243e-01
2.064243e-01
2.064243e-01
2.064243e-01
2.064243e-01
2.064242e-01
2.064242e-01
2.064242e-01
2.064242e-01
2.064242e-01
2.064242e-01
2.064242e-01
2.064242e-01
2.064243e-01
2.064243e-01
2.064243e-01
2.064243e-01
2.064243e-01
2.064243e-01
2.064243e-01
2.064243e-01
2.064243e-01
2.064239e-01
2.064239e-01
2.064239e-01
2.064239e-01
2.064240e-01
2.064241e-01
2.064241e-01
2.064242e-01
2.064242e-01
2.064243e-01
2.064243e-01
2.064243e-01
2.064243e-01
2.064244e-01
2.064244e-01
2.064244e-01
2.064235e-01
2.064235e-01
2.064235e-01
2.064236e-01
2.064237e-01
2.064239e-01
2.064240e-01
2.064240e-01
2.064241e-01
2.064242e-01
2.064243e-01
2.064243e-01
2.064244e-01
2.064244e-01
2.064244e-01
2.064244e-01
2.064232e-01
2.064232e-01
2.064233e-01
2.064234e-01
2.064236e-01
2.064237e-01
2.064239e-01
2.064240e-01
2.064241e-01
2.064242e-01
2.064242e-01
2.064243e-01
2.064244e-01
2.064244e-01
2.064244e-01
2.064245e-01


9.887712e-01
9.903635e-01
9.918365e-01
9.929705e-01
9.940230e-01
9.949935e-01
9.958777e-01
9.966653e-01
9.973478e-01
9.979187e-01
9.983726e-01
9.987052e-01
9.989119e-01
9.989856e-01
9.990388e-01
9.957573e-01
9.957519e-01
9.950222e-01
9.954917e-01
9.961044e-01
9.966757e-01
9.971949e-01
9.976649e-01
9.980906e-01
9.984761e-01
9.988252e-01
9.991420e-01
9.994289e-01
9.996792e-01
9.998430e-01
9.994286e-01
9.938112e-01
9.985240e-01
9.981049e-01
9.979917e-01
9.981509e-01
9.983603e-01
9.985630e-01
9.987513e-01
9.989292e-01
9.991016e-01
9.992696e-01
9.994265e-01
9.995480e-01
9.995734e-01
9.993546e-01
9.985608e-01
9.971333e-01
9.996996e-01
9.993939e-01
9.992051e-01
9.991572e-01
9.991763e-01
9.992084e-01
9.992405e-01
9.992718e-01
9.993025e-01
9.993283e-01
9.993354e-01
9.992972e-01
9.991758e-01
9.989580e-01
9.987733e-01
9.987265e-01
9.997007e-01
9.993955e-01
9.992065e-01
9.991569e-01
9.991716e-01
9.991947e-01
9.992108e-01
9.992162e-01
9.992088e-01
9.991852e-01
9.991411e-01
9.990776e-01
9.990171e-01
9.990291e-01
9.992001e-01
9.994960e-01
9.985261e-01
9.981081e-01
9.979948e-01
9.981509e-01
9.983521e-01
9.985380e-01
9.986952e-01
9.988216e-01
9.989162e-01
9.989799e-01
9.990202e-01
9.990596e-01
9.991424e-01
9.993159e-01
9.995765e-01
9.998460e-01
9.957515e-01
9.950219e-01
9.954911e-01
9.961027e-01
9.966712e-01
9.971847e-01
9.976438e-01
9.980502e-01
9.984044e-01
9.987071e-01
9.989634e-01
9.991873e-01
9.994028e-01
9.996288e-01
9.998401e-01
9.999732e-01
9.887636e-01
9.903515e-01
9.918219e-01
9.929540e-01
9.940082e-01
9.949881e-01
9.958960e-01
9.967296e-01
9.974892e-01
9.981732e-01
9.987735e-01
9.992716e-01
9.996421e-01
9.998707e-01
9.999747e-01
9.999995e-01
1 2 19 18
2 3 20 19
3 4 21 20
4 5 22 21
5 6 23 22
6 7 24 23
7 8 25 24
8 9 26 25
9 10 27 26
10 11 28 27
11 12 29 28
12 13 30 29
13 14 31 30
14 15 32 31
15 16 33 32
16 17 34 33
18 19 36 35
19 20 37 36
20 21 38 37
21 22 39 38
22 23 40 39
23 24 41 40
24 25 42 41
25 26 43 42
26 27 44 43
27 28 45 44
28 29 46 45
29 30 47 46
30 31 48 47
31 32 49 48
32 33 50 49
33 34 51 50
35 36 53 52
36 37 54 53
37 38 55 54
38 39 56 55
39 40 57 56
40 41 58 57
41 42 59 58
42 43 60 59
43 44 61 60
44 45 62 61
45 46 63 62
46 47 64 63
47 48 65 64
48 49 66 65
49 50 67 66
50 51 68 67
52 53 70 69
53 54 71 70
54 55 72 71
55 56 73 72
56 57 74 73
57 58 75 74
58 59 76 75
59 60 77 76
60 61 78 77
61 62 79 78
62 63 80 79
63 64 81 80
64 65 82 81
65 66 83 82
66 67 84 83
67 68 85 84
69 70 87 86
70 71 88 87
71 72 89 88
72 73 90 89
73 74 91 90
74 75 92 91
75 76 93 92
76 77 94 93
77 78 95 94
78 79 96 95
79 80 97 96
80 81 98 97
81 82 99 98
82 83 100 99
83 84 101 100
84 85 102 101
86 87 104 103
87 88 105 104
88 89 106 105
89 90 107 106
90 91 108 107
91 92 109 108
92 93 110 109
93 94 111 110
94 95 112 111
95 96 113 112
96 97 114 113
97 98 115 114
98 99 116 115
99 100 117 116
100 101 118 117
101 102 119 118
103 104 121 120
104 105 122 121
105 106 123 122
106 107 124 123
107 108 125 124
108 109 126 125
109 110 127 126
110 111 128 127
111 112 129 128
112 113 130 129
113 114 131 130
114 115 132 131
115 116 133 132
116 117 134 133
117 118 135 134
118 119 136 135
120 121 138 137
121 122 139 138
122 123 140 139
123 124 141 140
124 125 142 141
125 126 143 142
126 127 144 143
127 128 145 144
128 129 146 145
129 130 147 146
130 131 148 147
131 132 149 148
132 133 150 149
133 134 151 150
134 135 152 151
135 136 153 152
