TITLE = "Solution"
VARIABLES = x, y, u, v, psiu, psiv, t, stress
ZONE T="structure" N=153 E=128 F=FEBLOCK ET=QUADRILATERAL VARLOCATION=([7,8]=cellcentered)
0.000000e+00
1.250000e+01
2.500000e+01
3.750000e+01
5.000000e+01
6.250000e+01
7.500000e+01
8.750000e+01
1.000000e+02
1.125000e+02
1.250000e+02
1.375000e+02
1.500000e+02
1.625000e+02
1.750000e+02
1.875000e+02
2.000000e+02
0.000000e+00
1.250000e+01
2.500000e+01
3.750000e+01
5.000000e+01
6.250000e+01
7.500000e+01
8.750000e+01
1.000000e+02
1.125000e+02
1.250000e+02
1.375000e+02
1.500000e+02
1.625000e+02
1.750000e+02
1.875000e+02
2.000000e+02
0.000000e+00
1.250000e+01
2.500000e+01
3.750000e+01
5.000000e+01
6.250000e+01
7.500000e+01
8.750000e+01
1.000000e+02
1.125000e+02
1.250000e+02
1.375000e+02
1.500000e+02
1.625000e+02
1.750000e+02
1.875000e+02
2.000000e+02
0.000000e+00
1.250000e+01
2.500000e+01
3.750000e+01
5.000000e+01
6.250000e+01
7.500000e+01
8.750000e+01
1.000000e+02
1.125000e+02
1.250000e+02
1.375000e+02
1.500000e+02
1.625000e+02
1.750000e+02
1.875000e+02
2.000000e+02
0.000000e+00
1.250000e+01
2.500000e+01
3.750000e+01
5.000000e+01
6.250000e+01
7.500000e+01
8.750000e+01
1.000000e+02
1.125000e+02
1.250000e+02
1.375000e+02
1.500000e+02
1.625000e+02
1.750000e+02
1.875000e+02
2.000000e+02
0.000000e+00
1.250000e+01
2.500000e+01
3.750000e+01
5.000000e+01
6.250000e+01
7.500000e+01
8.750000e+01
1.000000e+02
1.125000e+02
1.250000e+02
1.375000e+02
1.500000e+02
1.625000e+02
1.750000e+02
1.875000e+02
2.000000e+02
0.000000e+00
1.250000e+01
2.500000e+01
3.750000e+01
5.000000e+01
6.250000e+01
7.500000e+01
8.750000e+01
1.000000e+02
1.125000e+02
1.250000e+02
1.375000e+02
1.500000e+02
1.625000e+02
1.750000e+02
1.875000e+02
2.000000e+02
0.000000e+00
1.250000e+01
2.500000e+01
3.750000e+01
5.000000e+01
6.250000e+01
7.500000e+01
8.750000e+01
1.000000e+02
1.125000e+02
1.250000e+02
1.375000e+02
1.500000e+02
1.625000e+02
1.750000e+02
1.875000e+02
2.000000e+02
0.000000e+00
1.250000e+01
2.500000e+01
3.750000e+01
5.000000e+01
6.250000e+01
7.500000e+01
8.750000e+01
1.000000e+02
1.125000e+02
1.250000e+02
1.375000e+02
1.500000e+02
1.625000e+02
1.750000e+02
1.875000e+02
2.000000e+02
0.000000e+00
0.000000e+00
0.000000e+00
0.000000e+00
0.000000e+00
0.000000e+00
0.000000e+00
0.000000e+00
0.000000e+00
0.000000e+00
0.000000e+00
0.000000e+00
0.000000e+00
0.000000e+00
0.000000e+00
0.000000e+00
0.000000e+00
1.250000e+01
1.250000e+01
1.250000e+01
1.250000e+01
1.250000e+01
1.250000e+01
1.250000e+01
1.250000e+01
1.250000e+01
1.250000e+01
1.250000e+01
1.250000e+01
1.250000e+01
1.250000e+01
1.250000e+01
1.250000e+01
1.250000e+01
2.500000e+01
2.500000e+01
2.500000e+01
2.500000e+01
2.500000e+01
2.500000e+01
2.500000e+01
2.500000e+01
2.500000e+01
2.500000e+01
2.500000e+01
2.500000e+01
2.500000e+01
2.500000e+01
2.500000e+01
2.500000e+01
2.500000e+01
3.750000e+01
3.750000e+01
3.750000e+01
3.750000e+01
3.750000e+01
3.750000e+01
3.750000e+01
3.750000e+01
3.750000e+01
3.750000e+01
3.750000e+01
3.750000e+01
3.750000e+01
3.750000e+01
3.750000e+01
3.750000e+01
3.750000e+01
5.000000e+01
5.000000e+01
5.000000e+01
5.000000e+01
5.000000e+01
5.000000e+01
5.000000e+01
5.000000e+01
5.000000e+01
5.000000e+01
5.000000e+01
5.000000e+01
5.000000e+01
5.000000e+01
5.000000e+01
5.000000e+01
5.000000e+01
6.250000e+01
6.250000e+01
6.250000e+01
6.250000e+01
6.250000e+01
6.250000e+01
6.250000e+01
6.250000e+01
6.250000e+01
6.250000e+01
6.250000e+01
6.250000e+01
6.250000e+01
6.250000e+01
6.250000e+01
6.250000e+01
6.250000e+01
7.500000e+01
7.500000e+01
7.500000e+01
7.500000e+01
7.500000e+01
7.500000e+01
7.500000e+01
7.500000e+01
7.500000e+01
7.500000e+01
7.500000e+01
7.500000e+01
7.500000e+01
7.500000e+01
7.500000e+01
7.500000e+01
7.500000e+01
8.750000e+01
8.750000e+01
8.750000e+01
8.750000e+01
8.750000e+01
8.750000e+01
8.750000e+01
8.750000e+01
8.750000e+01
8.750000e+01
8.750000e+01
8.750000e+01
8.750000e+01
8.750000e+01
8.750000e+01
8.750000e+01
8.750000e+01
1.000000e+02
1.000000e+02
1.000000e+02
1.000000e+02
1.000000e+02
1.000000e+02
1.000000e+02
1.000000e+02
1.000000e+02
1.000000e+02
1.000000e+02
1.000000e+02
1.000000e+02
1.000000e+02
1.000000e+02
1.000000e+02
1.000000e+02
0.000000e+00
-7.031833e-02
-1.294783e-01
-1.839132e-01
-2.346073e-01
-2.814536e-01
-3.243517e-01
-3.632683e-01
-3.982600e-01
-4.294879e-01
-4.572617e-01
-4.821242e-01
-5.050093e-01
-5.275300e-01
-5.524689e-01
-5.830970e-01
-6.060800e-01
0.000000e+00
-4.199286e-02
-8.723199e-02
-1.290074e-01
-1.674955e-01
-2.028424e-01
-2.351216e-01
-2.643762e-01
-2.906590e-01
-3.140510e-01
-3.346709e-01
-3.526673e-01
-3.681551e-01
-3.809748e-01
-3.900172e-01
-3.919992e-01
-3.991050e-01
0.000000e+00
-2.626114e-02
-5.399946e-02
-8.167254e-02
-1.075045e-01
-1.312219e-01
-1.528054e-01
-1.722794e-01
-1.896489e-01
-2.048847e-01
-2.179050e-01
-2.285278e-01
-2.363744e-01
-2.407545e-01
-2.408761e-01
-2.391263e-01
-2.463736e-01
0.000000e+00
-1.267525e-02
-2.609369e-02
-3.959688e-02
-5.250837e-02
-6.440065e-02
-7.517984e-02
-8.481453e-02
-9.324957e-02
-1.003752e-01
-1.060094e-01
-1.098860e-01
-1.116879e-01
-1.112670e-01
-1.095374e-01
-1.100104e-01
-1.154068e-01
0.000000e+00
-1.167633e-05
-2.654397e-05
-4.136279e-05
-4.922743e-05
-3.473926e-05
3.266608e-05
2.078326e-04
5.807390e-04
1.285414e-03
2.496717e-03
4.390309e-03
7.013655e-03
9.978166e-03
1.202596e-02
1.146432e-02
7.891431e-03
0.000000e+00
1.265728e-02
2.605198e-02
3.953016e-02
5.242539e-02
6.433316e-02
7.520602e-02
8.509715e-02
9.409232e-02
1.022958e-01
1.098150e-01
1.167053e-01
1.228471e-01
1.277722e-01
1.306693e-01
1.308991e-01
1.290857e-01
0.000000e+00
2.625819e-02
5.399047e-02
8.165466e-02
1.074766e-01
1.311871e-01
1.527766e-01
1.722888e-01
1.897643e-01
2.052341e-01
2.187117e-01
2.301642e-01
2.394598e-01
2.463324e-01
2.504574e-01
2.517968e-01
2.513739e-01
0.000000e+00
4.201009e-02
8.726945e-02
1.290672e-01
1.675756e-01
2.029282e-01
2.351697e-01
2.642883e-01
2.902395e-01
3.129485e-01
3.323075e-01
3.481826e-01
3.604469e-01
3.690598e-01
3.741976e-01
3.763886e-01
3.767910e-01
0.000000e+00
7.034714e-02
1.295543e-01
1.840556e-01
2.348347e-01
2.817735e-01
3.247333e-01
3.635891e-01
3.982112e-01
4.284194e-01
4.539519e-01
4.744683e-01
4.896316e-01
4.993226e-01
5.040093e-01
5.051661e-01
5.051438e-01
0.000000e+00
-4.256562e-02
-8.356127e-02
-1.366821e-01
-2.018769e-01
-2.790237e-01
-3.672776e-01
-4.656510e-01
-5.730979e-01
-6.885859e-01
-8.111618e-01
-9.400665e-01
-1.074989e+00
-1.216651e+00
-1.368725e+00
-1.542727e+00
-1.792736e+00
0.000000e+00
-2.620418e-02
-6.896936e-02
-1.227489e-01
-1.890092e-01
-2.672088e-01
-3.565319e-01
-4.559667e-01
-5.644549e-01
-6.809458e-01
-8.044594e-01
-9.342023e-01
-1.069815e+00
-1.212000e+00
-1.364016e+00
-1.536961e+00
-1.748838e+00
0.000000e+00
-1.977338e-02
-5.885353e-02
-1.128316e-01
-1.797183e-01
-2.587229e-01
-3.488670e-01
-4.491291e-01
-5.584583e-01
-6.758186e-01
-8.002491e-01
-9.309834e-01
-1.067697e+00
-1.210975e+00
-1.363121e+00
-1.526993e+00
-1.685587e+00
0.000000e+00
-1.703929e-02
-5.382399e-02
-1.070103e-01
-1.741389e-01
-2.536298e-01
-3.443359e-01
-4.451969e-01
-5.551816e-01
-6.732822e-01
-7.985584e-01
-9.302292e-01
-1.067815e+00
-1.211252e+00
-1.360354e+00
-1.510929e+00
-1.649644e+00
0.000000e+00
-1.625165e-02
-5.230181e-02
-1.051533e-01
-1.723002e-01
-2.519889e-01
-3.429558e-01
-4.441415e-01
-5.545344e-01
-6.731432e-01
-7.990067e-01
-9.312200e-01
-1.068929e+00
-1.211117e+00
-1.355656e+00
-1.497604e+00
-1.628373e+00
0.000000e+00
-1.702917e-02
-5.381679e-02
-1.070232e-01
-1.742018e-01
-2.537955e-01
-3.446905e-01
-4.458685e-01
-5.563394e-01
-6.751070e-01
-8.011480e-01
-9.333676e-01
-1.070487e+00
-1.210760e+00
-1.351494e+00
-1.488574e+00
-1.616552e+00
0.000000e+00
-1.975688e-02
-5.884160e-02
-1.128529e-01
-1.798243e-01
-2.590033e-01
-3.494682e-01
-4.502694e-01
-5.604268e-01
-6.789271e-01
-8.046779e-01
-9.364162e-01
-1.072555e+00
-1.210990e+00
-1.348995e+00
-1.483445e+00
-1.611338e+00
0.000000e+00
-2.618871e-02
-6.895898e-02
-1.227773e-01
-1.891365e-01
-2.675386e-01
-3.572317e-01
-4.572846e-01
-5.667162e-01
-6.844946e-01
-8.094827e-01
-9.403272e-01
-1.075306e+00
-1.212200e+00
-1.348370e+00
-1.481324e+00
-1.610114e+00
0.000000e+00
-4.255923e-02
-8.356216e-02
-1.367260e-01
-2.020244e-01
-2.793761e-01
-3.679937e-01
-4.669575e-01
-5.752759e-01
-6.918991e-01
-8.156625e-01
-9.451829e-01
-1.078726e+00
-1.214123e+00
-1.348901e+00
-1.480936e+00
-1.610133e+00


0.000000e+00
9.957260e-08
1.995101e-07
2.923256e-07
3.793737e-07
4.601627e-07
5.343533e-07
6.019239e-07
6.630098e-07
7.178666e-07
7.668571e-07
8.103856e-07
8.486882e-07
8.814635e-07
9.082893e-07
9.312122e-07
9.516081e-07
0.000000e+00
5.599350e-08
1.362558e-07
2.084309e-07
2.746126e-07
3.356231e-07
3.914063e-07
4.419619e-07
4.873300e-07
5.275424e-07
5.625865e-07
5.923587e-07
6.167074e-07
6.361335e-07
6.538773e-07
6.749362e-07
6.966102e-07
0.000000e+00
3.527706e-08
8.610339e-08
1.337952e-07
1.782587e-07
2.191572e-07
2.563289e-07
2.897288e-07
3.193053e-07
3.449587e-07
3.665416e-07
3.839493e-07
3.974543e-07
4.084424e-07
4.200321e-07
4.356906e-07
4.537822e-07
0.000000e+00
1.723187e-08
4.127608e-08
6.463270e-08
8.686624e-08
1.072937e-07
1.256938e-07
1.419822e-07
1.560630e-07
1.678134e-07
1.771313e-07
1.840717e-07
1.891033e-07
1.934118e-07
1.989627e-07
2.080893e-07
2.206496e-07
0.000000e+00
1.805845e-11
2.237291e-11
-9.484949e-12
-1.081643e-10
-3.225645e-10
-7.243845e-10
-1.409042e-09
-2.487254e-09
-4.057512e-09
-6.145723e-09
-8.604350e-09
-1.099429e-08
-1.251052e-08
-1.191312e-08
-7.617376e-09
6.339075e-10
0.000000e+00
-1.719812e-08
-4.123076e-08
-6.463438e-08
-8.702378e-08
-1.077978e-07
-1.268576e-07
-1.442841e-07
-1.601779e-07
-1.746013e-07
-1.875255e-07
-1.987741e-07
-2.079872e-07
-2.146272e-07
-2.180300e-07
-2.173813e-07
-2.128615e-07
0.000000e+00
-3.525581e-08
-8.607198e-08
-1.337764e-07
-1.782958e-07
-2.193318e-07
-2.567835e-07
-2.906921e-07
-3.211160e-07
-3.480736e-07
-3.714985e-07
-3.912053e-07
-4.068810e-07
-4.181584e-07
-4.248505e-07
-4.270790e-07
-4.257444e-07
0.000000e+00
-5.601481e-08
-1.362982e-07
-2.084694e-07
-2.746056e-07
-3.354999e-07
-3.910507e-07
-4.411943e-07
-4.858905e-07
-5.250817e-07
-5.586783e-07
-5.865467e-07
-6.085136e-07
-6.244326e-07
-6.344437e-07
-6.393658e-07
-6.405549e-07
0.000000e+00
-9.969031e-08
-1.997186e-07
-2.925835e-07
-3.795942e-07
-4.601647e-07
-5.337937e-07
-6.002098e-07
-6.591949e-07
-7.105496e-07
-7.541168e-07
-7.898264e-07
-8.177388e-07
-8.380831e-07
-8.513346e-07
-8.581849e-07
-8.603854e-07
0.000000e+00
9.014123e-08
1.758638e-07
2.720592e-07
3.867894e-07
5.212380e-07
6.745250e-07
8.452351e-07
1.031737e-06
1.232447e-06
1.446006e-06
1.671581e-06
1.909625e-06
2.163563e-06
2.439663e-06
2.732945e-06
3.023921e-06
0.000000e+00
5.453363e-08
1.378484e-07
2.347932e-07
3.517512e-07
4.888972e-07
6.450816e-07
8.187045e-07
1.008092e-06
1.211639e-06
1.427962e-06
1.656162e-06
1.896259e-06
2.149759e-06
2.419140e-06
2.704984e-06
2.992130e-06
0.000000e+00
3.474415e-08
1.073721e-07
2.042059e-07
3.228445e-07
4.623289e-07
6.210352e-07
7.972381e-07
9.892354e-07
1.195413e-06
1.414342e-06
1.644898e-06
1.886309e-06
2.137866e-06
2.399154e-06
2.674560e-06
2.952451e-06
0.000000e+00
2.549699e-08
9.133719e-08
1.863683e-07
3.057815e-07
4.467153e-07
6.070639e-07
7.849923e-07
9.787746e-07
1.186768e-06
1.407424e-06
1.639270e-06
1.880750e-06
2.129920e-06
2.385219e-06
2.650003e-06
2.914051e-06
0.000000e+00
2.283916e-08
8.647477e-08
1.806299e-07
3.002523e-07
4.417668e-07
6.028243e-07
7.815406e-07
9.761679e-07
1.185002e-06
1.406333e-06
1.638362e-06
1.879012e-06
2.125709e-06
2.375918e-06
2.631198e-06
2.881628e-06
0.000000e+00
2.551758e-08
9.141445e-08
1.865594e-07
3.061614e-07
4.473858e-07
6.081520e-07
7.866322e-07
9.810599e-07
1.189653e-06
1.410550e-06
1.641708e-06
1.880751e-06
2.124749e-06
2.370534e-06
2.617878e-06
2.858376e-06
0.000000e+00
3.477737e-08
1.075067e-07
2.045408e-07
3.235106e-07
4.635061e-07
6.229481e-07
8.001239e-07
9.932603e-07
1.200500e-06
1.419850e-06
1.649105e-06
1.885723e-06
2.126644e-06
2.368491e-06
2.609896e-06
2.844209e-06
0.000000e+00
5.457580e-08
1.380192e-07
2.352056e-07
3.525640e-07
4.903265e-07
6.473946e-07
8.221772e-07
1.012904e-06
1.217657e-06
1.434342e-06
1.660632e-06
1.893898e-06
2.131133e-06
2.369224e-06
2.606308e-06
2.837446e-06
0.000000e+00
9.021111e-08
1.760634e-07
2.725041e-07
3.876357e-07
5.226922e-07
6.768309e-07
8.486233e-07
1.036306e-06
1.237928e-06
1.451343e-06
1.674167e-06
1.903744e-06
2.137189e-06
2.371762e-06
2.605724e-06
2.835474e-06


2.054641e-01
2.054640e-01
2.054641e-01
2.054642e-01
2.054643e-01
2.054644e-01
2.054644e-01
2.054645e-01
2.054646e-01
2.054646e-01
2.054646e-01
2.054647e-01
2.054647e-01
2.054647e-01
2.054646e-01
2.054646e-01
2.054642e-01
2.054642e-01
2.054642e-01
2.054643e-01
2.054644e-01
2.054644e-01
2.054645e-01
2.054645e-01
2.054646e-01
2.054646e-01
2.054647e-01
2.054647e-01
2.054647e-01
2.054647e-01
2.054646e-01
2.054646e-01
2.054645e-01
2.054644e-01
2.054644e-01
2.054645e-01
2.054645e-01
2.054646e-01
2.054646e-01
2.054646e-01
2.054646e-01
2.054647e-01
2.054647e-01
2.054647e-01
2.054647e-01
2.054647e-01
2.054646e-01
2.054646e-01
2.054646e-01
2.054646e-01
2.054646e-01
2.054646e-01
2.054646e-01
2.054646e-01
2.054647e-01
2.054647e-01
2.054647e-01
2.054647e-01
2.054647e-01
2.054647e-01
2.054647e-01
2.054647e-01
2.054647e-01
2.054647e-01
2.054646e-01
2.054646e-01
2.054646e-01
2.054646e-01
2.054646e-01
2.054646e-01
2.054647e-01
2.054647e-01
2.054647e-01
2.054647e-01
2.054647e-01
2.054647e-01
2.054647e-01
2.054647e-01
2.054647e-01
2.054647e-01
2.054645e-01
2.054644e-01
2.054644e-01
2.054645e-01
2.054645e-01
2.054645e-01
2.054646e-01
2.054646e-01
2.054646e-01
2.054647e-01
2.054647e-01
2.054647e-01
2.054647e-01
2.054647e-01
2.054647e-01
2.054647e-01
2.054642e-01
2.054642e-01
2.054642e-01
2.054643e-01
2.054644e-01
2.054644e-01
2.054645e-01
2.054645e-01
2.054646e-01
2.054646e-01
2.054647e-01
2.054647e-01
2.054647e-01
2.054647e-01
2.054648e-01
2.054648e-01
2.054641e-01
2.054640e-01
2.054641e-01
2.054642e-01
2.054643e-01
2.054644e-01
2.054644e-01
2.054645e-01
2.054646e-01
2.054646e-01
2.054647e-01
2.054647e-01
2.054647e-01
2.054648e-01
2.054648e-01
2.054648e-01


9.888753e-01
9.904529e-01
9.919122e-01
9.930357e-01
9.940784e-01
9.950400e-01
9.959160e-01
9.966962e-01
9.973724e-01
9.979380e-01
9.983877e-01
9.987172e-01
9.989220e-01
9.989950e-01
9.990478e-01
9.957966e-01
9.957913e-01
9.950684e-01
9.955335e-01
9.961406e-01
9.967065e-01
9.972209e-01
9.976866e-01
9.981083e-01
9.984902e-01
9.988361e-01
9.991500e-01
9.994342e-01
9.996821e-01
9.998445e-01
9.994339e-01
9.938686e-01
9.985377e-01
9.981225e-01
9.980104e-01
9.981680e-01
9.983755e-01
9.985764e-01
9.987629e-01
9.989392e-01
9.991099e-01
9.992764e-01
9.994318e-01
9.995522e-01
9.995773e-01
9.993606e-01
9.985742e-01
9.971599e-01
9.997024e-01
9.993996e-01
9.992125e-01
9.991650e-01
9.991840e-01
9.992158e-01
9.992475e-01
9.992786e-01
9.993090e-01
9.993345e-01
9.993416e-01
9.993037e-01
9.991835e-01
9.989677e-01
9.987847e-01
9.987383e-01
9.997035e-01
9.994011e-01
9.992139e-01
9.991647e-01
9.991793e-01
9.992022e-01
9.992181e-01
9.992235e-01
9.992162e-01
9.991927e-01
9.991491e-01
9.990861e-01
9.990262e-01
9.990381e-01
9.992075e-01
9.995007e-01
9.985398e-01
9.981256e-01
9.980134e-01
9.981681e-01
9.983674e-01
9.985515e-01
9.987073e-01
9.988325e-01
9.989262e-01
9.989894e-01
9.990293e-01
9.990683e-01
9.991503e-01
9.993222e-01
9.995804e-01
9.998474e-01
9.957909e-01
9.950681e-01
9.955329e-01
9.961388e-01
9.967021e-01
9.972108e-01
9.976656e-01
9.980683e-01
9.984192e-01
9.987191e-01
9.989731e-01
9.991948e-01
9.994084e-01
9.996323e-01
9.998416e-01
9.999735e-01
9.888677e-01
9.904410e-01
9.918977e-01
9.930193e-01
9.940638e-01
9.950346e-01
9.959341e-01
9.967599e-01
9.975124e-01
9.981901e-01
9.987849e-01
9.992783e-01
9.996454e-01
9.998719e-01
9.999749e-01
9.999995e-01
1 2 19 18
2 3 20 19
3 4 21 20
4 5 22 21
5 6 23 22
6 7 24 23
7 8 25 24
8 9 26 25
9 10 27 26
10 11 28 27
11 12 29 28
12 13 30 29
13 14 31 30
14 15 32 31
15 16 33 32
16 17 34 33
18 19 36 35
19 20 37 36
20 21 38 37
21 22 39 38
22 23 40 39
23 24 41 40
24 25 42 41
25 26 43 42
26 27 44 43
27 28 45 44
28 29 46 45
29 30 47 46
30 31 48 47
31 32 49 48
32 33 50 49
33 34 51 50
35 36 53 52
36 37 54 53
37 38 55 54
38 39 56 55
39 40 57 56
40 41 58 57
41 42 59 58
42 43 60 59
43 44 61 60
44 45 62 61
45 46 63 62
46 47 64 63
47 48 65 64
48 49 66 65
49 50 67 66
50 51 68 67
52 53 70 69
53 54 71 70
54 55 72 71
55 56 73 72
56 57 74 73
57 58 75 74
58 59 76 75
59 60 77 76
60 61 78 77
61 62 79 78
62 63 80 79
63 64 81 80
64 65 82 81
65 66 83 82
66 67 84 83
67 68 85 84
69 70 87 86
70 71 88 87
71 72 89 88
72 73 90 89
73 74 91 90
74 75 92 91
75 76 93 92
76 77 94 93
77 78 95 94
78 79 96 95
79 80 97 96
80 81 98 97
81 82 99 98
82 83 100 99
83 84 101 100
84 85 102 101
86 87 104 103
87 88 105 104
88 89 106 105
89 90 107 106
90 91 108 107
91 92 109 108
92 93 110 109
93 94 111 110
94 95 112 111
95 96 113 112
96 97 114 113
97 98 115 114
98 99 116 115
99 100 117 116
100 101 118 117
101 102 119 118
103 104 121 120
104 105 122 121
105 106 123 122
106 107 124 123
107 108 125 124
108 109 126 125
109 110 127 126
110 111 128 127
111 112 129 128
112 113 130 129
113 114 131 130
114 115 132 131
115 116 133 132
116 117 134 133
117 118 135 134
118 119 136 135
120 121 138 137
121 122 139 138
122 123 140 139
123 124 141 140
124 125 142 141
125 126 143 142
126 127 144 143
127 128 145 144
128 129 146 145
129 130 147 146
130 131 148 147
131 132 149 148
132 133 150 149
133 134 151 150
134 135 152 151
135 136 153 152
