TITLE = "Solution"
VARIABLES = x, y, u, v, psiu, psiv, t, stress
ZONE T="structure" N=153 E=128 F=FEBLOCK ET=QUADRILATERAL VARLOCATION=([7,8]=cellcentered)
0.000000e+00
1.250000e+01
2.500000e+01
3.750000e+01
5.000000e+01
6.250000e+01
7.500000e+01
8.750000e+01
1.000000e+02
1.125000e+02
1.250000e+02
1.375000e+02
1.500000e+02
1.625000e+02
1.750000e+02
1.875000e+02
2.000000e+02
0.000000e+00
1.250000e+01
2.500000e+01
3.750000e+01
5.000000e+01
6.250000e+01
7.500000e+01
8.750000e+01
1.000000e+02
1.125000e+02
1.250000e+02
1.375000e+02
1.500000e+02
1.625000e+02
1.750000e+02
1.875000e+02
2.000000e+02
0.000000e+00
1.250000e+01
2.500000e+01
3.750000e+01
5.000000e+01
6.250000e+01
7.500000e+01
8.750000e+01
1.000000e+02
1.125000e+02
1.250000e+02
1.375000e+02
1.500000e+02
1.625000e+02
1.750000e+02
1.875000e+02
2.000000e+02
0.000000e+00
1.250000e+01
2.500000e+01
3.750000e+01
5.000000e+01
6.250000e+01
7.500000e+01
8.750000e+01
1.000000e+02
1.125000e+02
1.250000e+02
1.375000e+02
1.500000e+02
1.625000e+02
1.750000e+02
1.875000e+02
2.000000e+02
0.000000e+00
1.250000e+01
2.500000e+01
3.750000e+01
5.000000e+01
6.250000e+01
7.500000e+01
8.750000e+01
1.000000e+02
1.125000e+02
1.250000e+02
1.375000e+02
1.500000e+02
1.625000e+02
1.750000e+02
1.875000e+02
2.000000e+02
0.000000e+00
1.250000e+01
2.500000e+01
3.750000e+01
5.000000e+01
6.250000e+01
7.500000e+01
8.750000e+01
1.000000e+02
1.125000e+02
1.250000e+02
1.375000e+02
1.500000e+02
1.625000e+02
1.750000e+02
1.875000e+02
2.000000e+02
0.000000e+00
1.250000e+01
2.500000e+01
3.750000e+01
5.000000e+01
6.250000e+01
7.500000e+01
8.750000e+01
1.000000e+02
1.125000e+02
1.250000e+02
1.375000e+02
1.500000e+02
1.625000e+02
1.750000e+02
1.875000e+02
2.000000e+02
0.000000e+00
1.250000e+01
2.500000e+01
3.750000e+01
5.000000e+01
6.250000e+01
7.500000e+01
8.750000e+01
1.000000e+02
1.125000e+02
1.250000e+02
1.375000e+02
1.500000e+02
1.625000e+02
1.750000e+02
1.875000e+02
2.000000e+02
0.000000e+00
1.250000e+01
2.500000e+01
3.750000e+01
5.000000e+01
6.250000e+01
7.500000e+01
8.750000e+01
1.000000e+02
1.125000e+02
1.250000e+02
1.375000e+02
1.500000e+02
1.625000e+02
1.750000e+02
1.875000e+02
2.000000e+02
0.000000e+00
0.000000e+00
0.000000e+00
0.000000e+00
0.000000e+00
0.000000e+00
0.000000e+00
0.000000e+00
0.000000e+00
0.000000e+00
0.000000e+00
0.000000e+00
0.000000e+00
0.000000e+00
0.000000e+00
0.000000e+00
0.000000e+00
1.250000e+01
1.250000e+01
1.250000e+01
1.250000e+01
1.250000e+01
1.250000e+01
1.250000e+01
1.250000e+01
1.250000e+01
1.250000e+01
1.250000e+01
1.250000e+01
1.250000e+01
1.250000e+01
1.250000e+01
1.250000e+01
1.250000e+01
2.500000e+01
2.500000e+01
2.500000e+01
2.500000e+01
2.500000e+01
2.500000e+01
2.500000e+01
2.500000e+01
2.500000e+01
2.500000e+01
2.500000e+01
2.500000e+01
2.500000e+01
2.500000e+01
2.500000e+01
2.500000e+01
2.500000e+01
3.750000e+01
3.750000e+01
3.750000e+01
3.750000e+01
3.750000e+01
3.750000e+01
3.750000e+01
3.750000e+01
3.750000e+01
3.750000e+01
3.750000e+01
3.750000e+01
3.750000e+01
3.750000e+01
3.750000e+01
3.750000e+01
3.750000e+01
5.000000e+01
5.000000e+01
5.000000e+01
5.000000e+01
5.000000e+01
5.000000e+01
5.000000e+01
5.000000e+01
5.000000e+01
5.000000e+01
5.000000e+01
5.000000e+01
5.000000e+01
5.000000e+01
5.000000e+01
5.000000e+01
5.000000e+01
6.250000e+01
6.250000e+01
6.250000e+01
6.250000e+01
6.250000e+01
6.250000e+01
6.250000e+01
6.250000e+01
6.250000e+01
6.250000e+01
6.250000e+01
6.250000e+01
6.250000e+01
6.250000e+01
6.250000e+01
6.250000e+01
6.250000e+01
7.500000e+01
7.500000e+01
7.500000e+01
7.500000e+01
7.500000e+01
7.500000e+01
7.500000e+01
7.500000e+01
7.500000e+01
7.500000e+01
7.500000e+01
7.500000e+01
7.500000e+01
7.500000e+01
7.500000e+01
7.500000e+01
7.500000e+01
8.750000e+01
8.750000e+01
8.750000e+01
8.750000e+01
8.750000e+01
8.750000e+01
8.750000e+01
8.750000e+01
8.750000e+01
8.750000e+01
8.750000e+01
8.750000e+01
8.750000e+01
8.750000e+01
8.750000e+01
8.750000e+01
8.750000e+01
1.000000e+02
1.000000e+02
1.000000e+02
1.000000e+02
1.000000e+02
1.000000e+02
1.000000e+02
1.000000e+02
1.000000e+02
1.000000e+02
1.000000e+02
1.000000e+02
1.000000e+02
1.000000e+02
1.000000e+02
1.000000e+02
1.000000e+02
0.000000e+00
-7.198901e-02
-1.325546e-01
-1.882828e-01
-2.401813e-01
-2.881408e-01
-3.320583e-01
-3.718997e-01
-4.077230e-01
-4.396931e-01
-4.681270e-01
-4.935804e-01
-5.170093e-01
-5.400654e-01
-5.655970e-01
-5.969530e-01
-6.204822e-01
0.000000e+00
-4.299053e-02
-8.930446e-02
-1.320724e-01
-1.714749e-01
-2.076618e-01
-2.407080e-01
-2.706579e-01
-2.975653e-01
-3.215132e-01
-3.426232e-01
-3.610473e-01
-3.769032e-01
-3.900276e-01
-3.992849e-01
-4.013140e-01
-4.085887e-01
0.000000e+00
-2.688503e-02
-5.528235e-02
-8.361291e-02
-1.100586e-01
-1.343396e-01
-1.564360e-01
-1.763728e-01
-1.941550e-01
-2.097530e-01
-2.230827e-01
-2.339579e-01
-2.419910e-01
-2.464753e-01
-2.465998e-01
-2.448084e-01
-2.522280e-01
0.000000e+00
-1.297637e-02
-2.671360e-02
-4.053761e-02
-5.375587e-02
-6.593074e-02
-7.696606e-02
-8.682971e-02
-9.546522e-02
-1.027602e-01
-1.085282e-01
-1.124971e-01
-1.143418e-01
-1.139108e-01
-1.121402e-01
-1.126244e-01
-1.181490e-01
0.000000e+00
-1.195403e-05
-2.717523e-05
-4.234648e-05
-5.039830e-05
-3.556608e-05
3.344097e-05
2.127704e-04
5.945397e-04
1.315963e-03
2.556056e-03
4.494655e-03
7.180354e-03
1.021533e-02
1.231180e-02
1.173681e-02
8.079003e-03
0.000000e+00
1.295798e-02
2.667090e-02
4.046930e-02
5.367092e-02
6.586163e-02
7.699287e-02
8.711905e-02
9.632799e-02
1.047265e-01
1.124243e-01
1.194784e-01
1.257662e-01
1.308083e-01
1.337743e-01
1.340096e-01
1.321530e-01
0.000000e+00
2.688201e-02
5.527315e-02
8.359461e-02
1.100301e-01
1.343040e-01
1.564064e-01
1.763824e-01
1.942732e-01
2.101107e-01
2.239086e-01
2.356332e-01
2.451498e-01
2.521857e-01
2.564088e-01
2.577801e-01
2.573471e-01
0.000000e+00
4.300817e-02
8.934280e-02
1.321336e-01
1.715569e-01
2.077496e-01
2.407573e-01
2.705678e-01
2.971358e-01
3.203845e-01
3.402035e-01
3.564560e-01
3.690118e-01
3.778294e-01
3.830893e-01
3.853324e-01
3.857443e-01
0.000000e+00
7.201850e-02
1.326324e-01
1.884285e-01
2.404141e-01
2.884683e-01
3.324489e-01
3.722282e-01
4.076730e-01
4.385991e-01
4.647385e-01
4.857425e-01
5.012662e-01
5.111876e-01
5.159856e-01
5.171699e-01
5.171471e-01
0.000000e+00
-4.357694e-02
-8.554664e-02
-1.399296e-01
-2.066735e-01
-2.856533e-01
-3.760043e-01
-4.767152e-01
-5.867151e-01
-7.049473e-01
-8.304358e-01
-9.624036e-01
-1.100533e+00
-1.245560e+00
-1.401249e+00
-1.579385e+00
-1.835335e+00
0.000000e+00
-2.682677e-02
-7.060806e-02
-1.256654e-01
-1.935001e-01
-2.735577e-01
-3.650032e-01
-4.668007e-01
-5.778667e-01
-6.971256e-01
-8.235742e-01
-9.564000e-01
-1.095236e+00
-1.240799e+00
-1.396427e+00
-1.573482e+00
-1.790394e+00
0.000000e+00
-2.024319e-02
-6.025189e-02
-1.155124e-01
-1.839884e-01
-2.648701e-01
-3.571562e-01
-4.598006e-01
-5.717275e-01
-6.918765e-01
-8.192638e-01
-9.531047e-01
-1.093067e+00
-1.239749e+00
-1.395511e+00
-1.563277e+00
-1.725640e+00
0.000000e+00
-1.744416e-02
-5.510286e-02
-1.095529e-01
-1.782764e-01
-2.596560e-01
-3.525174e-01
-4.557750e-01
-5.683730e-01
-6.892798e-01
-8.175329e-01
-9.523325e-01
-1.093188e+00
-1.240033e+00
-1.392678e+00
-1.546832e+00
-1.688843e+00
0.000000e+00
-1.663782e-02
-5.354453e-02
-1.076518e-01
-1.763940e-01
-2.579761e-01
-3.511045e-01
-4.546945e-01
-5.677104e-01
-6.891376e-01
-8.179918e-01
-9.533469e-01
-1.094328e+00
-1.239895e+00
-1.387869e+00
-1.533190e+00
-1.667066e+00
0.000000e+00
-1.743381e-02
-5.509549e-02
-1.095660e-01
-1.783409e-01
-2.598257e-01
-3.528804e-01
-4.564625e-01
-5.695583e-01
-6.911480e-01
-8.201841e-01
-9.555455e-01
-1.095923e+00
-1.239530e+00
-1.383607e+00
-1.523945e+00
-1.654964e+00
0.000000e+00
-2.022630e-02
-6.023968e-02
-1.155343e-01
-1.840970e-01
-2.651572e-01
-3.577716e-01
-4.609680e-01
-5.737429e-01
-6.950589e-01
-8.237979e-01
-9.586666e-01
-1.098040e+00
-1.239765e+00
-1.381050e+00
-1.518694e+00
-1.649626e+00
0.000000e+00
-2.681094e-02
-7.059743e-02
-1.256945e-01
-1.936304e-01
-2.738953e-01
-3.657196e-01
-4.681499e-01
-5.801818e-01
-7.007588e-01
-8.287169e-01
-9.626706e-01
-1.100857e+00
-1.241004e+00
-1.380409e+00
-1.516523e+00
-1.648373e+00
0.000000e+00
-4.357040e-02
-8.554756e-02
-1.399746e-01
-2.068245e-01
-2.860141e-01
-3.767373e-01
-4.780526e-01
-5.889449e-01
-7.083392e-01
-8.350435e-01
-9.676417e-01
-1.104358e+00
-1.242972e+00
-1.380953e+00
-1.516126e+00
-1.648393e+00


0.000000e+00
9.152461e-08
1.833945e-07
2.687103e-07
3.487113e-07
4.229456e-07
4.911038e-07
5.531690e-07
6.092684e-07
6.596396e-07
7.046183e-07
7.445778e-07
7.797372e-07
8.098219e-07
8.344465e-07
8.554918e-07
8.742203e-07
0.000000e+00
5.148599e-08
1.252791e-07
1.916247e-07
2.524478e-07
3.085061e-07
3.597511e-07
4.061851e-07
4.478476e-07
4.847701e-07
5.169429e-07
5.442727e-07
5.666217e-07
5.844506e-07
6.007357e-07
6.200686e-07
6.399702e-07
0.000000e+00
3.244925e-08
7.918238e-08
1.230238e-07
1.638876e-07
2.014656e-07
2.356120e-07
2.662875e-07
2.934470e-07
3.170003e-07
3.368138e-07
3.527924e-07
3.651871e-07
3.752710e-07
3.859080e-07
4.002834e-07
4.168953e-07
0.000000e+00
1.585422e-08
3.796163e-08
5.943338e-08
7.986747e-08
9.863669e-08
1.155392e-07
1.304989e-07
1.434288e-07
1.542171e-07
1.627709e-07
1.691412e-07
1.737590e-07
1.777134e-07
1.828088e-07
1.911877e-07
2.027199e-07
0.000000e+00
1.652593e-11
2.042417e-11
-8.894646e-12
-9.956858e-11
-2.964881e-10
-6.654701e-10
-1.294101e-09
-2.284002e-09
-3.725553e-09
-5.642472e-09
-7.899211e-09
-1.009254e-08
-1.148346e-08
-1.093415e-08
-6.990281e-09
5.847063e-10
0.000000e+00
-1.582333e-08
-3.792022e-08
-5.943524e-08
-8.001255e-08
-9.910013e-08
-1.166084e-07
-1.326130e-07
-1.472073e-07
-1.604494e-07
-1.723136e-07
-1.826384e-07
-1.910940e-07
-1.971876e-07
-2.003101e-07
-1.997143e-07
-1.955654e-07
0.000000e+00
-3.242979e-08
-7.915367e-08
-1.230068e-07
-1.639219e-07
-2.016264e-07
-2.360298e-07
-2.671723e-07
-2.951096e-07
-3.198601e-07
-3.413643e-07
-3.594533e-07
-3.738409e-07
-3.841910e-07
-3.903328e-07
-3.923781e-07
-3.911530e-07
0.000000e+00
-5.150556e-08
-1.253180e-07
-1.916601e-07
-2.524415e-07
-3.083933e-07
-3.594249e-07
-4.054808e-07
-4.465265e-07
-4.825116e-07
-5.133557e-07
-5.389382e-07
-5.591016e-07
-5.737127e-07
-5.829011e-07
-5.874186e-07
-5.885099e-07
0.000000e+00
-9.163270e-08
-1.835860e-07
-2.689472e-07
-3.489137e-07
-4.229474e-07
-4.905901e-07
-5.515956e-07
-6.057667e-07
-6.529235e-07
-6.929244e-07
-7.257076e-07
-7.513304e-07
-7.700046e-07
-7.821676e-07
-7.884548e-07
-7.904742e-07
0.000000e+00
8.285608e-08
1.616291e-07
2.500178e-07
3.554380e-07
4.789774e-07
6.198249e-07
7.766775e-07
9.480341e-07
1.132438e-06
1.328640e-06
1.535872e-06
1.754551e-06
1.987821e-06
2.241440e-06
2.510842e-06
2.778131e-06
0.000000e+00
5.011683e-08
1.266778e-07
2.157620e-07
3.232373e-07
4.492620e-07
5.927774e-07
7.523104e-07
9.263214e-07
1.113333e-06
1.312074e-06
1.521718e-06
1.742283e-06
1.975151e-06
2.222599e-06
2.485167e-06
2.748937e-06
0.000000e+00
3.191931e-08
9.865913e-08
1.876479e-07
2.966740e-07
4.248530e-07
5.706896e-07
7.325960e-07
9.090061e-07
1.098436e-06
1.299571e-06
1.511379e-06
1.733151e-06
1.964235e-06
2.204251e-06
2.457232e-06
2.712502e-06
0.000000e+00
2.341787e-08
8.392015e-08
1.712554e-07
2.809968e-07
4.105105e-07
5.578580e-07
7.213508e-07
8.994014e-07
1.090499e-06
1.293221e-06
1.506214e-06
1.728049e-06
1.956941e-06
2.191458e-06
2.434686e-06
2.677243e-06
0.000000e+00
2.097493e-08
7.945148e-08
1.659823e-07
2.759169e-07
4.059650e-07
5.539643e-07
7.181811e-07
8.970079e-07
1.088877e-06
1.292220e-06
1.505380e-06
1.726454e-06
1.953076e-06
2.182921e-06
2.417422e-06
2.647476e-06
0.000000e+00
2.343680e-08
8.399109e-08
1.714308e-07
2.813455e-07
4.111258e-07
5.588567e-07
7.228560e-07
9.014990e-07
1.093148e-06
1.296090e-06
1.508451e-06
1.728050e-06
1.952195e-06
2.177980e-06
2.405196e-06
2.626130e-06
0.000000e+00
3.194983e-08
9.878273e-08
1.879553e-07
2.972854e-07
4.259336e-07
5.724454e-07
7.352447e-07
9.127006e-07
1.103105e-06
1.304628e-06
1.515242e-06
1.732614e-06
1.953935e-06
2.176105e-06
2.397870e-06
2.613126e-06
0.000000e+00
5.015559e-08
1.268347e-07
2.161407e-07
3.239834e-07
4.505740e-07
5.949004e-07
7.554979e-07
9.307382e-07
1.118857e-06
1.317931e-06
1.525823e-06
1.740117e-06
1.958055e-06
2.176778e-06
2.394577e-06
2.606918e-06
0.000000e+00
8.292030e-08
1.618124e-07
2.504263e-07
3.562150e-07
4.803122e-07
6.219415e-07
7.797876e-07
9.522277e-07
1.137469e-06
1.333539e-06
1.538248e-06
1.749155e-06
1.963614e-06
2.179108e-06
2.394041e-06
2.605108e-06


2.103452e-01
2.103451e-01
2.103454e-01
2.103458e-01
2.103462e-01
2.103466e-01
2.103469e-01
2.103473e-01
2.103475e-01
2.103478e-01
2.103480e-01
2.103481e-01
2.103482e-01
2.103481e-01
2.103479e-01
2.103477e-01
2.103459e-01
2.103458e-01
2.103460e-01
2.103463e-01
2.103466e-01
2.103469e-01
2.103472e-01
2.103475e-01
2.103477e-01
2.103479e-01
2.103480e-01
2.103482e-01
2.103482e-01
2.103481e-01
2.103479e-01
2.103477e-01
2.103471e-01
2.103470e-01
2.103470e-01
2.103472e-01
2.103473e-01
2.103475e-01
2.103477e-01
2.103478e-01
2.103479e-01
2.103481e-01
2.103481e-01
2.103482e-01
2.103482e-01
2.103481e-01
2.103479e-01
2.103478e-01
2.103479e-01
2.103478e-01
2.103477e-01
2.103478e-01
2.103478e-01
2.103479e-01
2.103480e-01
2.103481e-01
2.103481e-01
2.103482e-01
2.103482e-01
2.103482e-01
2.103482e-01
2.103481e-01
2.103481e-01
2.103480e-01
2.103479e-01
2.103478e-01
2.103477e-01
2.103478e-01
2.103478e-01
2.103479e-01
2.103480e-01
2.103480e-01
2.103481e-01
2.103481e-01
2.103482e-01
2.103482e-01
2.103482e-01
2.103482e-01
2.103482e-01
2.103482e-01
2.103471e-01
2.103470e-01
2.103470e-01
2.103472e-01
2.103473e-01
2.103475e-01
2.103476e-01
2.103478e-01
2.103479e-01
2.103480e-01
2.103481e-01
2.103482e-01
2.103482e-01
2.103483e-01
2.103483e-01
2.103484e-01
2.103459e-01
2.103458e-01
2.103460e-01
2.103463e-01
2.103466e-01
2.103469e-01
2.103472e-01
2.103474e-01
2.103477e-01
2.103478e-01
2.103480e-01
2.103481e-01
2.103483e-01
2.103484e-01
2.103484e-01
2.103485e-01
2.103452e-01
2.103451e-01
2.103453e-01
2.103458e-01
2.103462e-01
2.103466e-01
2.103470e-01
2.103473e-01
2.103475e-01
2.103478e-01
2.103480e-01
2.103482e-01
2.103483e-01
2.103484e-01
2.103485e-01
2.103485e-01


9.883404e-01
9.899939e-01
9.915234e-01
9.927008e-01
9.937937e-01
9.948014e-01
9.957195e-01
9.965373e-01
9.972460e-01
9.978388e-01
9.983102e-01
9.986555e-01
9.988701e-01
9.989467e-01
9.990020e-01
9.955944e-01
9.955890e-01
9.948313e-01
9.953188e-01
9.959550e-01
9.965482e-01
9.970873e-01
9.975753e-01
9.980174e-01
9.984176e-01
9.987802e-01
9.991091e-01
9.994070e-01
9.996668e-01
9.998370e-01
9.994067e-01
9.935737e-01
9.984674e-01
9.980322e-01
9.979147e-01
9.980800e-01
9.982973e-01
9.985079e-01
9.987034e-01
9.988881e-01
9.990671e-01
9.992416e-01
9.994045e-01
9.995306e-01
9.995570e-01
9.993298e-01
9.985056e-01
9.970233e-01
9.996881e-01
9.993707e-01
9.991746e-01
9.991249e-01
9.991447e-01
9.991781e-01
9.992113e-01
9.992439e-01
9.992758e-01
9.993025e-01
9.993099e-01
9.992702e-01
9.991442e-01
9.989180e-01
9.987262e-01
9.986776e-01
9.996892e-01
9.993723e-01
9.991761e-01
9.991246e-01
9.991398e-01
9.991638e-01
9.991805e-01
9.991861e-01
9.991785e-01
9.991539e-01
9.991081e-01
9.990422e-01
9.989794e-01
9.989919e-01
9.991694e-01
9.994767e-01
9.984696e-01
9.980355e-01
9.979179e-01
9.980800e-01
9.982889e-01
9.984819e-01
9.986451e-01
9.987763e-01
9.988746e-01
9.989408e-01
9.989826e-01
9.990235e-01
9.991095e-01
9.992896e-01
9.995603e-01
9.998401e-01
9.955885e-01
9.948310e-01
9.953181e-01
9.959532e-01
9.965435e-01
9.970767e-01
9.975533e-01
9.979754e-01
9.983432e-01
9.986575e-01
9.989237e-01
9.991561e-01
9.993799e-01
9.996146e-01
9.998340e-01
9.999722e-01
9.883325e-01
9.899814e-01
9.915081e-01
9.926837e-01
9.937783e-01
9.947958e-01
9.957385e-01
9.966041e-01
9.973928e-01
9.981031e-01
9.987265e-01
9.992436e-01
9.996283e-01
9.998657e-01
9.999737e-01
9.999994e-01
1 2 19 18
2 3 20 19
3 4 21 20
4 5 22 21
5 6 23 22
6 7 24 23
7 8 25 24
8 9 26 25
9 10 27 26
10 11 28 27
11 12 29 28
12 13 30 29
13 14 31 30
14 15 32 31
15 16 33 32
16 17 34 33
18 19 36 35
19 20 37 36
20 21 38 37
21 22 39 38
22 23 40 39
23 24 41 40
24 25 42 41
25 26 43 42
26 27 44 43
27 28 45 44
28 29 46 45
29 30 47 46
30 31 48 47
31 32 49 48
32 33 50 49
33 34 51 50
35 36 53 52
36 37 54 53
37 38 55 54
38 39 56 55
39 40 57 56
40 41 58 57
41 42 59 58
42 43 60 59
43 44 61 60
44 45 62 61
45 46 63 62
46 47 64 63
47 48 65 64
48 49 66 65
49 50 67 66
50 51 68 67
52 53 70 69
53 54 71 70
54 55 72 71
55 56 73 72
56 57 74 73
57 58 75 74
58 59 76 75
59 60 77 76
60 61 78 77
61 62 79 78
62 63 80 79
63 64 81 80
64 65 82 81
65 66 83 82
66 67 84 83
67 68 85 84
69 70 87 86
70 71 88 87
71 72 89 88
72 73 90 89
73 74 91 90
74 75 92 91
75 76 93 92
76 77 94 93
77 78 95 94
78 79 96 95
79 80 97 96
80 81 98 97
81 82 99 98
82 83 100 99
83 84 101 100
84 85 102 101
86 87 104 103
87 88 105 104
88 89 106 105
89 90 107 106
90 91 108 107
91 92 109 108
92 93 110 109
93 94 111 110
94 95 112 111
95 96 113 112
96 97 114 113
97 98 115 114
98 99 116 115
99 100 117 116
100 101 118 117
101 102 119 118
103 104 121 120
104 105 122 121
105 106 123 122
106 107 124 123
107 108 125 124
108 109 126 125
109 110 127 126
110 111 128 127
111 112 129 128
112 113 130 129
113 114 131 130
114 115 132 131
115 116 133 132
116 117 134 133
117 118 135 134
118 119 136 135
120 121 138 137
121 122 139 138
122 123 140 139
123 124 141 140
124 125 142 141
125 126 143 142
126 127 144 143
127 128 145 144
128 129 146 145
129 130 147 146
130 131 148 147
131 132 149 148
132 133 150 149
133 134 151 150
134 135 152 151
135 136 153 152
