TITLE = "Solution"
VARIABLES = x, y, u, v, psiu, psiv, t, stress
ZONE T="structure" N=561 E=512 F=FEBLOCK ET=QUADRILATERAL VARLOCATION=([7,8]=cellcentered)
0.000000e+00
6.250000e+00
1.250000e+01
1.875000e+01
2.500000e+01
3.125000e+01
3.750000e+01
4.375000e+01
5.000000e+01
5.625000e+01
6.250000e+01
6.875000e+01
7.500000e+01
8.125000e+01
8.750000e+01
9.375000e+01
1.000000e+02
1.062500e+02
1.125000e+02
1.187500e+02
1.250000e+02
1.312500e+02
1.375000e+02
1.437500e+02
1.500000e+02
1.562500e+02
1.625000e+02
1.687500e+02
1.750000e+02
1.812500e+02
1.875000e+02
1.937500e+02
2.000000e+02
0.000000e+00
6.250000e+00
1.250000e+01
1.875000e+01
2.500000e+01
3.125000e+01
3.750000e+01
4.375000e+01
5.000000e+01
5.625000e+01
6.250000e+01
6.875000e+01
7.500000e+01
8.125000e+01
8.750000e+01
9.375000e+01
1.000000e+02
1.062500e+02
1.125000e+02
1.187500e+02
1.250000e+02
1.312500e+02
1.375000e+02
1.437500e+02
1.500000e+02
1.562500e+02
1.625000e+02
1.687500e+02
1.750000e+02
1.812500e+02
1.875000e+02
1.937500e+02
2.000000e+02
0.000000e+00
6.250000e+00
1.250000e+01
1.875000e+01
2.500000e+01
3.125000e+01
3.750000e+01
4.375000e+01
5.000000e+01
5.625000e+01
6.250000e+01
6.875000e+01
7.500000e+01
8.125000e+01
8.750000e+01
9.375000e+01
1.000000e+02
1.062500e+02
1.125000e+02
1.187500e+02
1.250000e+02
1.312500e+02
1.375000e+02
1.437500e+02
1.500000e+02
1.562500e+02
1.625000e+02
1.687500e+02
1.750000e+02
1.812500e+02
1.875000e+02
1.937500e+02
2.000000e+02
0.000000e+00
6.250000e+00
1.250000e+01
1.875000e+01
2.500000e+01
3.125000e+01
3.750000e+01
4.375000e+01
5.000000e+01
5.625000e+01
6.250000e+01
6.875000e+01
7.500000e+01
8.125000e+01
8.750000e+01
9.375000e+01
1.000000e+02
1.062500e+02
1.125000e+02
1.187500e+02
1.250000e+02
1.312500e+02
1.375000e+02
1.437500e+02
1.500000e+02
1.562500e+02
1.625000e+02
1.687500e+02
1.750000e+02
1.812500e+02
1.875000e+02
1.937500e+02
2.000000e+02
0.000000e+00
6.250000e+00
1.250000e+01
1.875000e+01
2.500000e+01
3.125000e+01
3.750000e+01
4.375000e+01
5.000000e+01
5.625000e+01
6.250000e+01
6.875000e+01
7.500000e+01
8.125000e+01
8.750000e+01
9.375000e+01
1.000000e+02
1.062500e+02
1.125000e+02
1.187500e+02
1.250000e+02
1.312500e+02
1.375000e+02
1.437500e+02
1.500000e+02
1.562500e+02
1.625000e+02
1.687500e+02
1.750000e+02
1.812500e+02
1.875000e+02
1.937500e+02
2.000000e+02
0.000000e+00
6.250000e+00
1.250000e+01
1.875000e+01
2.500000e+01
3.125000e+01
3.750000e+01
4.375000e+01
5.000000e+01
5.625000e+01
6.250000e+01
6.875000e+01
7.500000e+01
8.125000e+01
8.750000e+01
9.375000e+01
1.000000e+02
1.062500e+02
1.125000e+02
1.187500e+02
1.250000e+02
1.312500e+02
1.375000e+02
1.437500e+02
1.500000e+02
1.562500e+02
1.625000e+02
1.687500e+02
1.750000e+02
1.812500e+02
1.875000e+02
1.937500e+02
2.000000e+02
0.000000e+00
6.250000e+00
1.250000e+01
1.875000e+01
2.500000e+01
3.125000e+01
3.750000e+01
4.375000e+01
5.000000e+01
5.625000e+01
6.250000e+01
6.875000e+01
7.500000e+01
8.125000e+01
8.750000e+01
9.375000e+01
1.000000e+02
1.062500e+02
1.125000e+02
1.187500e+02
1.250000e+02
1.312500e+02
1.375000e+02
1.437500e+02
1.500000e+02
1.562500e+02
1.625000e+02
1.687500e+02
1.750000e+02
1.812500e+02
1.875000e+02
1.937500e+02
2.000000e+02
0.000000e+00
6.250000e+00
1.250000e+01
1.875000e+01
2.500000e+01
3.125000e+01
3.750000e+01
4.375000e+01
5.000000e+01
5.625000e+01
6.250000e+01
6.875000e+01
7.500000e+01
8.125000e+01
8.750000e+01
9.375000e+01
1.000000e+02
1.062500e+02
1.125000e+02
1.187500e+02
1.250000e+02
1.312500e+02
1.375000e+02
1.437500e+02
1.500000e+02
1.562500e+02
1.625000e+02
1.687500e+02
1.750000e+02
1.812500e+02
1.875000e+02
1.937500e+02
2.000000e+02
0.000000e+00
6.250000e+00
1.250000e+01
1.875000e+01
2.500000e+01
3.125000e+01
3.750000e+01
4.375000e+01
5.000000e+01
5.625000e+01
6.250000e+01
6.875000e+01
7.500000e+01
8.125000e+01
8.750000e+01
9.375000e+01
1.000000e+02
1.062500e+02
1.125000e+02
1.187500e+02
1.250000e+02
1.312500e+02
1.375000e+02
1.437500e+02
1.500000e+02
1.562500e+02
1.625000e+02
1.687500e+02
1.750000e+02
1.812500e+02
1.875000e+02
1.937500e+02
2.000000e+02
0.000000e+00
6.250000e+00
1.250000e+01
1.875000e+01
2.500000e+01
3.125000e+01
3.750000e+01
4.375000e+01
5.000000e+01
5.625000e+01
6.250000e+01
6.875000e+01
7.500000e+01
8.125000e+01
8.750000e+01
9.375000e+01
1.000000e+02
1.062500e+02
1.125000e+02
1.187500e+02
1.250000e+02
1.312500e+02
1.375000e+02
1.437500e+02
1.500000e+02
1.562500e+02
1.625000e+02
1.687500e+02
1.750000e+02
1.812500e+02
1.875000e+02
1.937500e+02
2.000000e+02
0.000000e+00
6.250000e+00
1.250000e+01
1.875000e+01
2.500000e+01
3.125000e+01
3.750000e+01
4.375000e+01
5.000000e+01
5.625000e+01
6.250000e+01
6.875000e+01
7.500000e+01
8.125000e+01
8.750000e+01
9.375000e+01
1.000000e+02
1.062500e+02
1.125000e+02
1.187500e+02
1.250000e+02
1.312500e+02
1.375000e+02
1.437500e+02
1.500000e+02
1.562500e+02
1.625000e+02
1.687500e+02
1.750000e+02
1.812500e+02
1.875000e+02
1.937500e+02
2.000000e+02
0.000000e+00
6.250000e+00
1.250000e+01
1.875000e+01
2.500000e+01
3.125000e+01
3.750000e+01
4.375000e+01
5.000000e+01
5.625000e+01
6.250000e+01
6.875000e+01
7.500000e+01
8.125000e+01
8.750000e+01
9.375000e+01
1.000000e+02
1.062500e+02
1.125000e+02
1.187500e+02
1.250000e+02
1.312500e+02
1.375000e+02
1.437500e+02
1.500000e+02
1.562500e+02
1.625000e+02
1.687500e+02
1.750000e+02
1.812500e+02
1.875000e+02
1.937500e+02
2.000000e+02
0.000000e+00
6.250000e+00
1.250000e+01
1.875000e+01
2.500000e+01
3.125000e+01
3.750000e+01
4.375000e+01
5.000000e+01
5.625000e+01
6.250000e+01
6.875000e+01
7.500000e+01
8.125000e+01
8.750000e+01
9.375000e+01
1.000000e+02
1.062500e+02
1.125000e+02
1.187500e+02
1.250000e+02
1.312500e+02
1.375000e+02
1.437500e+02
1.500000e+02
1.562500e+02
1.625000e+02
1.687500e+02
1.750000e+02
1.812500e+02
1.875000e+02
1.937500e+02
2.000000e+02
0.000000e+00
6.250000e+00
1.250000e+01
1.875000e+01
2.500000e+01
3.125000e+01
3.750000e+01
4.375000e+01
5.000000e+01
5.625000e+01
6.250000e+01
6.875000e+01
7.500000e+01
8.125000e+01
8.750000e+01
9.375000e+01
1.000000e+02
1.062500e+02
1.125000e+02
1.187500e+02
1.250000e+02
1.312500e+02
1.375000e+02
1.437500e+02
1.500000e+02
1.562500e+02
1.625000e+02
1.687500e+02
1.750000e+02
1.812500e+02
1.875000e+02
1.937500e+02
2.000000e+02
0.000000e+00
6.250000e+00
1.250000e+01
1.875000e+01
2.500000e+01
3.125000e+01
3.750000e+01
4.375000e+01
5.000000e+01
5.625000e+01
6.250000e+01
6.875000e+01
7.500000e+01
8.125000e+01
8.750000e+01
9.375000e+01
1.000000e+02
1.062500e+02
1.125000e+02
1.187500e+02
1.250000e+02
1.312500e+02
1.375000e+02
1.437500e+02
1.500000e+02
1.562500e+02
1.625000e+02
1.687500e+02
1.750000e+02
1.812500e+02
1.875000e+02
1.937500e+02
2.000000e+02
0.000000e+00
6.250000e+00
1.250000e+01
1.875000e+01
2.500000e+01
3.125000e+01
3.750000e+01
4.375000e+01
5.000000e+01
5.625000e+01
6.250000e+01
6.875000e+01
7.500000e+01
8.125000e+01
8.750000e+01
9.375000e+01
1.000000e+02
1.062500e+02
1.125000e+02
1.187500e+02
1.250000e+02
1.312500e+02
1.375000e+02
1.437500e+02
1.500000e+02
1.562500e+02
1.625000e+02
1.687500e+02
1.750000e+02
1.812500e+02
1.875000e+02
1.937500e+02
2.000000e+02
0.000000e+00
6.250000e+00
1.250000e+01
1.875000e+01
2.500000e+01
3.125000e+01
3.750000e+01
4.375000e+01
5.000000e+01
5.625000e+01
6.250000e+01
6.875000e+01
7.500000e+01
8.125000e+01
8.750000e+01
9.375000e+01
1.000000e+02
1.062500e+02
1.125000e+02
1.187500e+02
1.250000e+02
1.312500e+02
1.375000e+02
1.437500e+02
1.500000e+02
1.562500e+02
1.625000e+02
1.687500e+02
1.750000e+02
1.812500e+02
1.875000e+02
1.937500e+02
2.000000e+02
0.000000e+00
0.000000e+00
0.000000e+00
0.000000e+00
0.000000e+00
0.000000e+00
0.000000e+00
0.000000e+00
0.000000e+00
0.000000e+00
0.000000e+00
0.000000e+00
0.000000e+00
0.000000e+00
0.000000e+00
0.000000e+00
0.000000e+00
0.000000e+00
0.000000e+00
0.000000e+00
0.000000e+00
0.000000e+00
0.000000e+00
0.000000e+00
0.000000e+00
0.000000e+00
0.000000e+00
0.000000e+00
0.000000e+00
0.000000e+00
0.000000e+00
0.000000e+00
0.000000e+00
6.250000e+00
6.250000e+00
6.250000e+00
6.250000e+00
6.250000e+00
6.250000e+00
6.250000e+00
6.250000e+00
6.250000e+00
6.250000e+00
6.250000e+00
6.250000e+00
6.250000e+00
6.250000e+00
6.250000e+00
6.250000e+00
6.250000e+00
6.250000e+00
6.250000e+00
6.250000e+00
6.250000e+00
6.250000e+00
6.250000e+00
6.250000e+00
6.250000e+00
6.250000e+00
6.250000e+00
6.250000e+00
6.250000e+00
6.250000e+00
6.250000e+00
6.250000e+00
6.250000e+00
1.250000e+01
1.250000e+01
1.250000e+01
1.250000e+01
1.250000e+01
1.250000e+01
1.250000e+01
1.250000e+01
1.250000e+01
1.250000e+01
1.250000e+01
1.250000e+01
1.250000e+01
1.250000e+01
1.250000e+01
1.250000e+01
1.250000e+01
1.250000e+01
1.250000e+01
1.250000e+01
1.250000e+01
1.250000e+01
1.250000e+01
1.250000e+01
1.250000e+01
1.250000e+01
1.250000e+01
1.250000e+01
1.250000e+01
1.250000e+01
1.250000e+01
1.250000e+01
1.250000e+01
1.875000e+01
1.875000e+01
1.875000e+01
1.875000e+01
1.875000e+01
1.875000e+01
1.875000e+01
1.875000e+01
1.875000e+01
1.875000e+01
1.875000e+01
1.875000e+01
1.875000e+01
1.875000e+01
1.875000e+01
1.875000e+01
1.875000e+01
1.875000e+01
1.875000e+01
1.875000e+01
1.875000e+01
1.875000e+01
1.875000e+01
1.875000e+01
1.875000e+01
1.875000e+01
1.875000e+01
1.875000e+01
1.875000e+01
1.875000e+01
1.875000e+01
1.875000e+01
1.875000e+01
2.500000e+01
2.500000e+01
2.500000e+01
2.500000e+01
2.500000e+01
2.500000e+01
2.500000e+01
2.500000e+01
2.500000e+01
2.500000e+01
2.500000e+01
2.500000e+01
2.500000e+01
2.500000e+01
2.500000e+01
2.500000e+01
2.500000e+01
2.500000e+01
2.500000e+01
2.500000e+01
2.500000e+01
2.500000e+01
2.500000e+01
2.500000e+01
2.500000e+01
2.500000e+01
2.500000e+01
2.500000e+01
2.500000e+01
2.500000e+01
2.500000e+01
2.500000e+01
2.500000e+01
3.125000e+01
3.125000e+01
3.125000e+01
3.125000e+01
3.125000e+01
3.125000e+01
3.125000e+01
3.125000e+01
3.125000e+01
3.125000e+01
3.125000e+01
3.125000e+01
3.125000e+01
3.125000e+01
3.125000e+01
3.125000e+01
3.125000e+01
3.125000e+01
3.125000e+01
3.125000e+01
3.125000e+01
3.125000e+01
3.125000e+01
3.125000e+01
3.125000e+01
3.125000e+01
3.125000e+01
3.125000e+01
3.125000e+01
3.125000e+01
3.125000e+01
3.125000e+01
3.125000e+01
3.750000e+01
3.750000e+01
3.750000e+01
3.750000e+01
3.750000e+01
3.750000e+01
3.750000e+01
3.750000e+01
3.750000e+01
3.750000e+01
3.750000e+01
3.750000e+01
3.750000e+01
3.750000e+01
3.750000e+01
3.750000e+01
3.750000e+01
3.750000e+01
3.750000e+01
3.750000e+01
3.750000e+01
3.750000e+01
3.750000e+01
3.750000e+01
3.750000e+01
3.750000e+01
3.750000e+01
3.750000e+01
3.750000e+01
3.750000e+01
3.750000e+01
3.750000e+01
3.750000e+01
4.375000e+01
4.375000e+01
4.375000e+01
4.375000e+01
4.375000e+01
4.375000e+01
4.375000e+01
4.375000e+01
4.375000e+01
4.375000e+01
4.375000e+01
4.375000e+01
4.375000e+01
4.375000e+01
4.375000e+01
4.375000e+01
4.375000e+01
4.375000e+01
4.375000e+01
4.375000e+01
4.375000e+01
4.375000e+01
4.375000e+01
4.375000e+01
4.375000e+01
4.375000e+01
4.375000e+01
4.375000e+01
4.375000e+01
4.375000e+01
4.375000e+01
4.375000e+01
4.375000e+01
5.000000e+01
5.000000e+01
5.000000e+01
5.000000e+01
5.000000e+01
5.000000e+01
5.000000e+01
5.000000e+01
5.000000e+01
5.000000e+01
5.000000e+01
5.000000e+01
5.000000e+01
5.000000e+01
5.000000e+01
5.000000e+01
5.000000e+01
5.000000e+01
5.000000e+01
5.000000e+01
5.000000e+01
5.000000e+01
5.000000e+01
5.000000e+01
5.000000e+01
5.000000e+01
5.000000e+01
5.000000e+01
5.000000e+01
5.000000e+01
5.000000e+01
5.000000e+01
5.000000e+01
5.625000e+01
5.625000e+01
5.625000e+01
5.625000e+01
5.625000e+01
5.625000e+01
5.625000e+01
5.625000e+01
5.625000e+01
5.625000e+01
5.625000e+01
5.625000e+01
5.625000e+01
5.625000e+01
5.625000e+01
5.625000e+01
5.625000e+01
5.625000e+01
5.625000e+01
5.625000e+01
5.625000e+01
5.625000e+01
5.625000e+01
5.625000e+01
5.625000e+01
5.625000e+01
5.625000e+01
5.625000e+01
5.625000e+01
5.625000e+01
5.625000e+01
5.625000e+01
5.625000e+01
6.250000e+01
6.250000e+01
6.250000e+01
6.250000e+01
6.250000e+01
6.250000e+01
6.250000e+01
6.250000e+01
6.250000e+01
6.250000e+01
6.250000e+01
6.250000e+01
6.250000e+01
6.250000e+01
6.250000e+01
6.250000e+01
6.250000e+01
6.250000e+01
6.250000e+01
6.250000e+01
6.250000e+01
6.250000e+01
6.250000e+01
6.250000e+01
6.250000e+01
6.250000e+01
6.250000e+01
6.250000e+01
6.250000e+01
6.250000e+01
6.250000e+01
6.250000e+01
6.250000e+01
6.875000e+01
6.875000e+01
6.875000e+01
6.875000e+01
6.875000e+01
6.875000e+01
6.875000e+01
6.875000e+01
6.875000e+01
6.875000e+01
6.875000e+01
6.875000e+01
6.875000e+01
6.875000e+01
6.875000e+01
6.875000e+01
6.875000e+01
6.875000e+01
6.875000e+01
6.875000e+01
6.875000e+01
6.875000e+01
6.875000e+01
6.875000e+01
6.875000e+01
6.875000e+01
6.875000e+01
6.875000e+01
6.875000e+01
6.875000e+01
6.875000e+01
6.875000e+01
6.875000e+01
7.500000e+01
7.500000e+01
7.500000e+01
7.500000e+01
7.500000e+01
7.500000e+01
7.500000e+01
7.500000e+01
7.500000e+01
7.500000e+01
7.500000e+01
7.500000e+01
7.500000e+01
7.500000e+01
7.500000e+01
7.500000e+01
7.500000e+01
7.500000e+01
7.500000e+01
7.500000e+01
7.500000e+01
7.500000e+01
7.500000e+01
7.500000e+01
7.500000e+01
7.500000e+01
7.500000e+01
7.500000e+01
7.500000e+01
7.500000e+01
7.500000e+01
7.500000e+01
7.500000e+01
8.125000e+01
8.125000e+01
8.125000e+01
8.125000e+01
8.125000e+01
8.125000e+01
8.125000e+01
8.125000e+01
8.125000e+01
8.125000e+01
8.125000e+01
8.125000e+01
8.125000e+01
8.125000e+01
8.125000e+01
8.125000e+01
8.125000e+01
8.125000e+01
8.125000e+01
8.125000e+01
8.125000e+01
8.125000e+01
8.125000e+01
8.125000e+01
8.125000e+01
8.125000e+01
8.125000e+01
8.125000e+01
8.125000e+01
8.125000e+01
8.125000e+01
8.125000e+01
8.125000e+01
8.750000e+01
8.750000e+01
8.750000e+01
8.750000e+01
8.750000e+01
8.750000e+01
8.750000e+01
8.750000e+01
8.750000e+01
8.750000e+01
8.750000e+01
8.750000e+01
8.750000e+01
8.750000e+01
8.750000e+01
8.750000e+01
8.750000e+01
8.750000e+01
8.750000e+01
8.750000e+01
8.750000e+01
8.750000e+01
8.750000e+01
8.750000e+01
8.750000e+01
8.750000e+01
8.750000e+01
8.750000e+01
8.750000e+01
8.750000e+01
8.750000e+01
8.750000e+01
8.750000e+01
9.375000e+01
9.375000e+01
9.375000e+01
9.375000e+01
9.375000e+01
9.375000e+01
9.375000e+01
9.375000e+01
9.375000e+01
9.375000e+01
9.375000e+01
9.375000e+01
9.375000e+01
9.375000e+01
9.375000e+01
9.375000e+01
9.375000e+01
9.375000e+01
9.375000e+01
9.375000e+01
9.375000e+01
9.375000e+01
9.375000e+01
9.375000e+01
9.375000e+01
9.375000e+01
9.375000e+01
9.375000e+01
9.375000e+01
9.375000e+01
9.375000e+01
9.375000e+01
9.375000e+01
1.000000e+02
1.000000e+02
1.000000e+02
1.000000e+02
1.000000e+02
1.000000e+02
1.000000e+02
1.000000e+02
1.000000e+02
1.000000e+02
1.000000e+02
1.000000e+02
1.000000e+02
1.000000e+02
1.000000e+02
1.000000e+02
1.000000e+02
1.000000e+02
1.000000e+02
1.000000e+02
1.000000e+02
1.000000e+02
1.000000e+02
1.000000e+02
1.000000e+02
1.000000e+02
1.000000e+02
1.000000e+02
1.000000e+02
1.000000e+02
1.000000e+02
1.000000e+02
1.000000e+02
0.000000e+00
-3.694956e-01
-6.690118e-01
-9.508684e-01
-1.229142e+00
-1.503424e+00
-1.772855e+00
-2.037071e+00
-2.295663e+00
-2.548092e+00
-2.793756e+00
-3.032050e+00
-3.262386e+00
-3.484219e+00
-3.697084e+00
-3.900619e+00
-4.094584e+00
-4.278879e+00
-4.453570e+00
-4.618906e+00
-4.775347e+00
-4.923604e+00
-5.064706e+00
-5.200079e+00
-5.331676e+00
-5.462165e+00
-5.595230e+00
-5.736062e+00
-5.892175e+00
-6.074171e+00
-6.293732e+00
-6.547250e+00
-6.699574e+00
0.000000e+00
-2.443243e-01
-5.080051e-01
-7.608010e-01
-1.008688e+00
-1.251533e+00
-1.488996e+00
-1.721204e+00
-1.948098e+00
-2.169379e+00
-2.384624e+00
-2.593370e+00
-2.795142e+00
-2.989491e+00
-3.176019e+00
-3.354411e+00
-3.524445e+00
-3.686009e+00
-3.839114e+00
-3.983902e+00
-4.120657e+00
-4.249814e+00
-4.371981e+00
-4.487948e+00
-4.598695e+00
-4.705367e+00
-4.809179e+00
-4.911134e+00
-5.011158e+00
-5.105640e+00
-5.182642e+00
-5.226446e+00
-5.286321e+00
0.000000e+00
-1.917308e-01
-3.954608e-01
-6.069812e-01
-8.184547e-01
-1.026770e+00
-1.230834e+00
-1.430432e+00
-1.625381e+00
-1.815397e+00
-2.000129e+00
-2.179202e+00
-2.352229e+00
-2.518833e+00
-2.678674e+00
-2.831468e+00
-2.976990e+00
-3.115089e+00
-3.245689e+00
-3.368784e+00
-3.484432e+00
-3.592738e+00
-3.693834e+00
-3.787827e+00
-3.874712e+00
-3.954205e+00
-4.025454e+00
-4.086502e+00
-4.133434e+00
-4.159666e+00
-4.159584e+00
-4.148159e+00
-4.217453e+00
0.000000e+00
-1.520291e-01
-3.131724e-01
-4.818134e-01
-6.542150e-01
-8.260342e-01
-9.954785e-01
-1.161732e+00
-1.324292e+00
-1.482756e+00
-1.636763e+00
-1.785974e+00
-1.930056e+00
-2.068688e+00
-2.201573e+00
-2.328443e+00
-2.449062e+00
-2.563230e+00
-2.670776e+00
-2.771545e+00
-2.865379e+00
-2.952090e+00
-3.031412e+00
-3.102931e+00
-3.165978e+00
-3.219474e+00
-3.261739e+00
-3.290336e+00
-3.302333e+00
-3.296285e+00
-3.279172e+00
-3.278632e+00
-3.345162e+00
0.000000e+00
-1.188343e-01
-2.436627e-01
-3.743042e-01
-5.086042e-01
-6.439314e-01
-7.784149e-01
-9.109426e-01
-1.040793e+00
-1.167460e+00
-1.290557e+00
-1.409761e+00
-1.524773e+00
-1.635315e+00
-1.741119e+00
-1.841928e+00
-1.937495e+00
-2.027573e+00
-2.111912e+00
-2.190239e+00
-2.262238e+00
-2.327518e+00
-2.385578e+00
-2.435747e+00
-2.477135e+00
-2.508593e+00
-2.528775e+00
-2.536490e+00
-2.531807e+00
-2.518768e+00
-2.510035e+00
-2.529257e+00
-2.587550e+00
0.000000e+00
-8.792301e-02
-1.797908e-01
-2.755863e-01
-3.742796e-01
-4.742952e-01
-5.742741e-01
-6.731866e-01
-7.703109e-01
-8.651383e-01
-9.572948e-01
-1.046483e+00
-1.132442e+00
-1.214928e+00
-1.293700e+00
-1.368515e+00
-1.439119e+00
-1.505238e+00
-1.566573e+00
-1.622781e+00
-1.673463e+00
-1.718146e+00
-1.756262e+00
-1.787141e+00
-1.810037e+00
-1.824218e+00
-1.829238e+00
-1.825533e+00
-1.815593e+00
-1.805732e+00
-1.807377e+00
-1.832333e+00
-1.881924e+00
0.000000e+00
-5.812284e-02
-1.186635e-01
-1.816580e-01
-2.465723e-01
-3.125503e-01
-3.787280e-01
-4.443783e-01
-5.089456e-01
-5.720229e-01
-6.333071e-01
-6.925566e-01
-7.495596e-01
-8.041129e-01
-8.560083e-01
-9.050230e-01
-9.509110e-01
-9.933969e-01
-1.032168e+00
-1.066867e+00
-1.097087e+00
-1.122372e+00
-1.142227e+00
-1.156154e+00
-1.163743e+00
-1.164846e+00
-1.159904e+00
-1.150500e+00
-1.140096e+00
-1.134618e+00
-1.141558e+00
-1.166347e+00
-1.207173e+00
0.000000e+00
-2.894893e-02
-5.905970e-02
-9.035496e-02
-1.226019e-01
-1.554158e-01
-1.883807e-01
-2.211223e-01
-2.533386e-01
-2.847959e-01
-3.153109e-01
-3.447283e-01
-3.729022e-01
-3.996819e-01
-4.249014e-01
-4.483720e-01
-4.698755e-01
-4.891595e-01
-5.059350e-01
-5.198761e-01
-5.306268e-01
-5.378185e-01
-5.411059e-01
-5.402351e-01
-5.351609e-01
-5.262360e-01
-5.144892e-01
-5.019690e-01
-4.920167e-01
-4.890866e-01
-4.975807e-01
-5.195143e-01
-5.522524e-01
0.000000e+00
-7.021621e-05
-1.489726e-04
-2.321261e-04
-3.155215e-04
-3.938318e-04
-4.593006e-04
-5.002689e-04
-4.993795e-04
-4.314275e-04
-2.608575e-04
6.114113e-05
6.000460e-04
1.441876e-03
2.697266e-03
4.505392e-03
7.037230e-03
1.049711e-02
1.512101e-02
2.116931e-02
2.891072e-02
3.859229e-02
5.038896e-02
6.432410e-02
8.015324e-02
9.720826e-02
1.142187e-01
1.291709e-01
1.393436e-01
1.417326e-01
1.340374e-01
1.160359e-01
9.061808e-02
0.000000e+00
2.881557e-02
5.877607e-02
8.991182e-02
1.219982e-01
1.546606e-01
1.874978e-01
2.201571e-01
2.523686e-01
2.839459e-01
3.147723e-01
3.447843e-01
3.739591e-01
4.023081e-01
4.298739e-01
4.567306e-01
4.829837e-01
5.087687e-01
5.342464e-01
5.595908e-01
5.849675e-01
6.104985e-01
6.362082e-01
6.619485e-01
6.873026e-01
7.114788e-01
7.332244e-01
7.508212e-01
7.622589e-01
7.656838e-01
7.601385e-01
7.464007e-01
7.274933e-01
0.000000e+00
5.801033e-02
1.184225e-01
1.812782e-01
2.460509e-01
3.118934e-01
3.779537e-01
4.435215e-01
5.080667e-01
5.712206e-01
6.327339e-01
6.924397e-01
7.502270e-01
8.060256e-01
8.597988e-01
9.115411e-01
9.612764e-01
1.009055e+00
1.054948e+00
1.099031e+00
1.141366e+00
1.181964e+00
1.220738e+00
1.257443e+00
1.291602e+00
1.322452e+00
1.348913e+00
1.369658e+00
1.383315e+00
1.388864e+00
1.386192e+00
1.376663e+00
1.363453e+00
0.000000e+00
8.784338e-02
1.796180e-01
2.753105e-01
3.738953e-01
4.738036e-01
5.736843e-01
6.725183e-01
7.696004e-01
8.644466e-01
9.567178e-01
1.046165e+00
1.132593e+00
1.215846e+00
1.295797e+00
1.372348e+00
1.445427e+00
1.514986e+00
1.580995e+00
1.643429e+00
1.702248e+00
1.757373e+00
1.808645e+00
1.855785e+00
1.898348e+00
1.935697e+00
1.967012e+00
1.991368e+00
2.007931e+00
2.016268e+00
2.016784e+00
2.011187e+00
2.002833e+00
0.000000e+00
1.187959e-01
2.435779e-01
3.741664e-01
5.084076e-01
6.436708e-01
7.780889e-01
9.105552e-01
1.040355e+00
1.166991e+00
1.290089e+00
1.409341e+00
1.524475e+00
1.635241e+00
1.741413e+00
1.842786e+00
1.939181e+00
2.030440e+00
2.116424e+00
2.197001e+00
2.272035e+00
2.341368e+00
2.404796e+00
2.462047e+00
2.512761e+00
2.556485e+00
2.592698e+00
2.620878e+00
2.640654e+00
2.652031e+00
2.655733e+00
2.653631e+00
2.649228e+00
0.000000e+00
1.520375e-01
3.131882e-01
4.818377e-01
6.542454e-01
8.260627e-01
9.954960e-01
1.161732e+00
1.324265e+00
1.482686e+00
1.636624e+00
1.785724e+00
1.929632e+00
2.067998e+00
2.200483e+00
2.326767e+00
2.446552e+00
2.559561e+00
2.665537e+00
2.764233e+00
2.855411e+00
2.938832e+00
3.014249e+00
3.081405e+00
3.140040e+00
3.189901e+00
3.230775e+00
3.262552e+00
3.285310e+00
3.299461e+00
3.305973e+00
3.306750e+00
3.305287e+00
0.000000e+00
1.917878e-01
3.955822e-01
6.071758e-01
8.187308e-01
1.027126e+00
1.231264e+00
1.430930e+00
1.625930e+00
1.815961e+00
2.000648e+00
2.179571e+00
2.352278e+00
2.518309e+00
2.677207e+00
2.828529e+00
2.971848e+00
3.106765e+00
3.232893e+00
3.349861e+00
3.457308e+00
3.554892e+00
3.642294e+00
3.719240e+00
3.785528e+00
3.841069e+00
3.885936e+00
3.920427e+00
3.945123e+00
3.960945e+00
3.969229e+00
3.971926e+00
3.972247e+00
0.000000e+00
2.444267e-01
5.082240e-01
7.611545e-01
1.009203e+00
1.252226e+00
1.489881e+00
1.722290e+00
1.949381e+00
2.170832e+00
2.386187e+00
2.594924e+00
2.796473e+00
2.990257e+00
3.175705e+00
3.352250e+00
3.519345e+00
3.676462e+00
3.823082e+00
3.958692e+00
4.082782e+00
4.194860e+00
4.294473e+00
4.381243e+00
4.454924e+00
4.515476e+00
4.563154e+00
4.598610e+00
4.622977e+00
4.637913e+00
4.645546e+00
4.648314e+00
4.648992e+00
0.000000e+00
3.696135e-01
6.692834e-01
9.513379e-01
1.229855e+00
1.504426e+00
1.774189e+00
2.038781e+00
2.297783e+00
2.550640e+00
2.796724e+00
3.035371e+00
3.265887e+00
3.487586e+00
3.699795e+00
3.901846e+00
4.093088e+00
4.272875e+00
4.440557e+00
4.595467e+00
4.736913e+00
4.864195e+00
4.976624e+00
5.073581e+00
5.154590e+00
5.219434e+00
5.268307e+00
5.301999e+00
5.322095e+00
5.331159e+00
5.332814e+00
5.331456e+00
5.330690e+00
0.000000e+00
-2.287785e-01
-4.052842e-01
-6.026939e-01
-8.244670e-01
-1.075174e+00
-1.356790e+00
-1.670233e+00
-2.015536e+00
-2.392305e+00
-2.799891e+00
-3.237460e+00
-3.704033e+00
-4.198524e+00
-4.719760e+00
-5.266505e+00
-5.837479e+00
-6.431384e+00
-7.046933e+00
-7.682885e+00
-8.338099e+00
-9.011602e+00
-9.702697e+00
-1.041111e+01
-1.113722e+01
-1.188245e+01
-1.264988e+01
-1.344546e+01
-1.428028e+01
-1.517587e+01
-1.617856e+01
-1.739714e+01
-1.907249e+01
0.000000e+00
-1.425067e-01
-3.269951e-01
-5.238467e-01
-7.465913e-01
-9.985084e-01
-1.281603e+00
-1.596612e+00
-1.943603e+00
-2.322212e+00
-2.731800e+00
-3.171535e+00
-3.640431e+00
-4.137387e+00
-4.661205e+00
-5.210622e+00
-5.784322e+00
-6.380969e+00
-6.999232e+00
-7.637822e+00
-8.295544e+00
-8.971364e+00
-9.664507e+00
-1.037461e+01
-1.110195e+01
-1.184782e+01
-1.261515e+01
-1.340972e+01
-1.424250e+01
-1.513511e+01
-1.613177e+01
-1.732453e+01
-1.888816e+01
0.000000e+00
-1.052429e-01
-2.652765e-01
-4.585021e-01
-6.800842e-01
-9.324347e-01
-1.216537e+00
-1.532829e+00
-1.881278e+00
-2.261501e+00
-2.672853e+00
-3.114494e+00
-3.585433e+00
-4.084556e+00
-4.610652e+00
-5.162436e+00
-5.738573e+00
-6.337703e+00
-6.958471e+00
-7.599564e+00
-8.259766e+00
-8.938023e+00
-9.633549e+00
-1.034598e+01
-1.107562e+01
-1.182381e+01
-1.259362e+01
-1.339100e+01
-1.422701e+01
-1.512147e+01
-1.610671e+01
-1.721717e+01
-1.844195e+01
0.000000e+00
-8.571922e-02
-2.266159e-01
-4.091830e-01
-6.269905e-01
-8.780976e-01
-1.162258e+00
-1.479261e+00
-1.828795e+00
-2.210345e+00
-2.623202e+00
-3.066497e+00
-3.539220e+00
-4.040246e+00
-4.568356e+00
-5.122259e+00
-5.700611e+00
-6.302045e+00
-6.925204e+00
-7.568776e+00
-8.231549e+00
-8.912485e+00
-9.610827e+00
-1.032626e+01
-1.105913e+01
-1.181086e+01
-1.258447e+01
-1.338553e+01
-1.422327e+01
-1.511106e+01
-1.606011e+01
-1.705830e+01
-1.798491e+01
0.000000e+00
-7.443359e-02
-2.021583e-01
-3.749519e-01
-5.872041e-01
-8.357649e-01
-1.119034e+00
-1.436119e+00
-1.786304e+00
-2.168851e+00
-2.582933e+00
-3.027620e+00
-3.501872e+00
-4.004552e+00
-4.534435e+00
-5.090232e+00
-5.670604e+00
-6.274194e+00
-6.899652e+00
-7.545682e+00
-8.211090e+00
-8.894860e+00
-9.596257e+00
-1.031497e+01
-1.105133e+01
-1.180655e+01
-1.258311e+01
-1.338510e+01
-1.421801e+01
-1.508629e+01
-1.598465e+01
-1.687691e+01
-1.768239e+01
0.000000e+00
-6.736312e-02
-1.864772e-01
-3.518783e-01
-5.590357e-01
-8.046440e-01
-1.086539e+00
-1.403271e+00
-1.753743e+00
-2.136977e+00
-2.552006e+00
-2.997821e+00
-3.473346e+00
-3.977429e+00
-4.508846e+00
-5.066315e+00
-5.648511e+00
-6.254089e+00
-6.881717e+00
-7.530112e+00
-8.198091e+00
-8.884637e+00
-9.588984e+00
-1.031073e+01
-1.104998e+01
-1.180746e+01
-1.258457e+01
-1.338317e+01
-1.420444e+01
-1.504565e+01
-1.589268e+01
-1.671242e+01
-1.745594e+01
0.000000e+00
-6.296357e-02
-1.766727e-01
-3.370786e-01
-5.404071e-01
-7.835308e-01
-1.064090e+00
-1.380330e+00
-1.730877e+00
-2.114557e+00
-2.530280e+00
-2.976966e+00
-3.453505e+00
-3.958735e+00
-4.491435e+00
-5.050336e+00
-5.634126e+00
-6.241478e+00
-6.871070e+00
-7.521622e+00
-8.191936e+00
-8.880949e+00
-9.587792e+00
-1.031185e+01
-1.105283e+01
-1.181071e+01
-1.258556e+01
-1.337698e+01
-1.418270e+01
-1.499580e+01
-1.580087e+01
-1.657221e+01
-1.727847e+01
0.000000e+00
-6.054729e-02
-1.712596e-01
-3.287952e-01
-5.298077e-01
-7.713380e-01
-1.050985e+00
-1.366851e+00
-1.717413e+00
-2.101378e+00
-2.517577e+00
-2.964885e+00
-3.442174e+00
-3.948278e+00
-4.481987e+00
-5.042043e+00
-5.627151e+00
-6.235992e+00
-6.867248e+00
-7.519622e+00
-8.191870e+00
-8.882832e+00
-9.591464e+00
-1.031685e+01
-1.105817e+01
-1.181457e+01
-1.258488e+01
-1.336688e+01
-1.415617e+01
-1.494441e+01
-1.571762e+01
-1.645641e+01
-1.713921e+01
0.000000e+00
-5.976771e-02
-1.695149e-01
-3.261177e-01
-5.263681e-01
-7.673716e-01
-1.046725e+00
-1.362496e+00
-1.713117e+00
-2.097262e+00
-2.513741e+00
-2.961424e+00
-3.439183e+00
-3.945866e+00
-4.480273e+00
-5.041163e+00
-5.627252e+00
-6.237225e+00
-6.869752e+00
-7.523499e+00
-8.197148e+00
-8.889404e+00
-9.598996e+00
-1.032465e+01
-1.106501e+01
-1.181846e+01
-1.258280e+01
-1.335466e+01
-1.412865e+01
-1.489649e+01
-1.564632e+01
-1.636334e+01
-1.703181e+01
0.000000e+00
-6.051760e-02
-1.712205e-01
-3.287655e-01
-5.298083e-01
-7.713950e-01
-1.051132e+00
-1.367132e+00
-1.717886e+00
-2.102118e+00
-2.518681e+00
-2.966477e+00
-3.444408e+00
-3.951340e+00
-4.486097e+00
-5.047449e+00
-5.634120e+00
-6.244793e+00
-6.878115e+00
-7.532702e+00
-8.207139e+00
-8.899973e+00
-9.609690e+00
-1.033466e+01
-1.107303e+01
-1.182257e+01
-1.258035e+01
-1.334237e+01
-1.410306e+01
-1.485481e+01
-1.558784e+01
-1.629075e+01
-1.695155e+01
0.000000e+00
-6.290669e-02
-1.765974e-01
-3.370209e-01
-5.404073e-01
-7.836389e-01
-1.064370e+00
-1.380866e+00
-1.731779e+00
-2.115970e+00
-2.532392e+00
-2.980014e+00
-3.457785e+00
-3.964605e+00
-4.499318e+00
-5.060709e+00
-5.647506e+00
-6.258384e+00
-6.891960e+00
-7.546793e+00
-8.221365e+00
-8.914065e+00
-9.623143e+00
-1.034665e+01
-1.108232e+01
-1.182746e+01
-1.257870e+01
-1.333179e+01
-1.408134e+01
-1.482067e+01
-1.554189e+01
-1.623623e+01
-1.689452e+01
0.000000e+00
-6.728407e-02
-1.863719e-01
-3.517968e-01
-5.590346e-01
-8.047930e-01
-1.086927e+00
-1.404016e+00
-1.754998e+00
-2.138946e+00
-2.554952e+00
-3.002077e+00
-3.479326e+00
-3.985635e+00
-4.519871e+00
-5.080832e+00
-5.667249e+00
-6.277783e+00
-6.911024e+00
-7.565473e+00
-8.239518e+00
-8.931405e+00
-9.639180e+00
-1.036063e+01
-1.109318e+01
-1.183381e+01
-1.257890e+01
-1.332418e+01
-1.406462e+01
-1.479448e+01
-1.550756e+01
-1.619732e+01
-1.685711e+01
0.000000e+00
-7.433972e-02
-2.020333e-01
-3.748549e-01
-5.872030e-01
-8.359439e-01
-1.119500e+00
-1.437015e+00
-1.787817e+00
-2.171226e+00
-2.586490e+00
-3.032761e+00
-3.509099e+00
-4.014473e+00
-4.547770e+00
-5.107796e+00
-5.693284e+00
-6.302888e+00
-6.935170e+00
-7.588583e+00
-8.261442e+00
-8.951874e+00
-9.657771e+00
-1.037672e+01
-1.110593e+01
-1.184218e+01
-1.258173e+01
-1.332035e+01
-1.405342e+01
-1.477609e+01
-1.548358e+01
-1.617148e+01
-1.683569e+01
0.000000e+00
-8.562085e-02
-2.264862e-01
-4.090842e-01
-6.269960e-01
-8.782999e-01
-1.162777e+00
-1.480255e+00
-1.830472e+00
-2.212976e+00
-2.627139e+00
-3.072185e+00
-3.547212e+00
-4.051214e+00
-4.583089e+00
-5.141655e+00
-5.725645e+00
-6.333706e+00
-6.964383e+00
-7.616097e+00
-8.287108e+00
-8.975468e+00
-9.678962e+00
-1.039505e+01
-1.112082e+01
-1.185291e+01
-1.258755e+01
-1.332060e+01
-1.404778e+01
-1.476492e+01
-1.546850e+01
-1.615605e+01
-1.682635e+01
0.000000e+00
-1.051539e-01
-2.651611e-01
-4.584199e-01
-6.801094e-01
-9.326639e-01
-1.217096e+00
-1.533886e+00
-1.883049e+00
-2.264268e+00
-2.676978e+00
-3.120439e+00
-3.593766e+00
-4.095963e+00
-4.625940e+00
-5.182520e+00
-5.764438e+00
-6.370339e+00
-6.998761e+00
-7.648108e+00
-8.316609e+00
-9.002275e+00
-9.702840e+00
-1.041570e+01
-1.113789e+01
-1.186600e+01
-1.259628e+01
-1.332468e+01
-1.404716e+01
-1.476003e+01
-1.546068e+01
-1.614830e+01
-1.682471e+01
0.000000e+00
-1.424446e-01
-3.269128e-01
-5.238005e-01
-7.466565e-01
-9.987820e-01
-1.282214e+00
-1.597728e+00
-1.945443e+00
-2.325055e+00
-2.736006e+00
-3.177555e+00
-3.648821e+00
-4.148810e+00
-4.676438e+00
-5.230530e+00
-5.809828e+00
-6.412977e+00
-7.038514e+00
-7.684835e+00
-8.350160e+00
-9.032488e+00
-9.729540e+00
-1.043871e+01
-1.115702e+01
-1.188112e+01
-1.260730e+01
-1.333164e+01
-1.405027e+01
-1.475981e+01
-1.545813e+01
-1.614549e+01
-1.682610e+01
0.000000e+00
-2.287580e-01
-4.052481e-01
-6.027036e-01
-8.245979e-01
-1.075523e+00
-1.357486e+00
-1.671442e+00
-2.017474e+00
-2.395247e+00
-2.804184e+00
-3.243534e+00
-3.712411e+00
-4.209827e+00
-4.734697e+00
-5.285852e+00
-5.862037e+00
-6.461901e+00
-7.083976e+00
-7.726655e+00
-8.388154e+00
-9.066470e+00
-9.759333e+00