TITLE = "Solution"
VARIABLES = x, y, u, v, psiu, psiv, t, stress
ZONE T="structure" N=561 E=512 F=FEBLOCK ET=QUADRILATERAL VARLOCATION=([7,8]=cellcentered)
0.000000e+00
6.250000e+00
1.250000e+01
1.875000e+01
2.500000e+01
3.125000e+01
3.750000e+01
4.375000e+01
5.000000e+01
5.625000e+01
6.250000e+01
6.875000e+01
7.500000e+01
8.125000e+01
8.750000e+01
9.375000e+01
1.000000e+02
1.062500e+02
1.125000e+02
1.187500e+02
1.250000e+02
1.312500e+02
1.375000e+02
1.437500e+02
1.500000e+02
1.562500e+02
1.625000e+02
1.687500e+02
1.750000e+02
1.812500e+02
1.875000e+02
1.937500e+02
2.000000e+02
0.000000e+00
6.250000e+00
1.250000e+01
1.875000e+01
2.500000e+01
3.125000e+01
3.750000e+01
4.375000e+01
5.000000e+01
5.625000e+01
6.250000e+01
6.875000e+01
7.500000e+01
8.125000e+01
8.750000e+01
9.375000e+01
1.000000e+02
1.062500e+02
1.125000e+02
1.187500e+02
1.250000e+02
1.312500e+02
1.375000e+02
1.437500e+02
1.500000e+02
1.562500e+02
1.625000e+02
1.687500e+02
1.750000e+02
1.812500e+02
1.875000e+02
1.937500e+02
2.000000e+02
0.000000e+00
6.250000e+00
1.250000e+01
1.875000e+01
2.500000e+01
3.125000e+01
3.750000e+01
4.375000e+01
5.000000e+01
5.625000e+01
6.250000e+01
6.875000e+01
7.500000e+01
8.125000e+01
8.750000e+01
9.375000e+01
1.000000e+02
1.062500e+02
1.125000e+02
1.187500e+02
1.250000e+02
1.312500e+02
1.375000e+02
1.437500e+02
1.500000e+02
1.562500e+02
1.625000e+02
1.687500e+02
1.750000e+02
1.812500e+02
1.875000e+02
1.937500e+02
2.000000e+02
0.000000e+00
6.250000e+00
1.250000e+01
1.875000e+01
2.500000e+01
3.125000e+01
3.750000e+01
4.375000e+01
5.000000e+01
5.625000e+01
6.250000e+01
6.875000e+01
7.500000e+01
8.125000e+01
8.750000e+01
9.375000e+01
1.000000e+02
1.062500e+02
1.125000e+02
1.187500e+02
1.250000e+02
1.312500e+02
1.375000e+02
1.437500e+02
1.500000e+02
1.562500e+02
1.625000e+02
1.687500e+02
1.750000e+02
1.812500e+02
1.875000e+02
1.937500e+02
2.000000e+02
0.000000e+00
6.250000e+00
1.250000e+01
1.875000e+01
2.500000e+01
3.125000e+01
3.750000e+01
4.375000e+01
5.000000e+01
5.625000e+01
6.250000e+01
6.875000e+01
7.500000e+01
8.125000e+01
8.750000e+01
9.375000e+01
1.000000e+02
1.062500e+02
1.125000e+02
1.187500e+02
1.250000e+02
1.312500e+02
1.375000e+02
1.437500e+02
1.500000e+02
1.562500e+02
1.625000e+02
1.687500e+02
1.750000e+02
1.812500e+02
1.875000e+02
1.937500e+02
2.000000e+02
0.000000e+00
6.250000e+00
1.250000e+01
1.875000e+01
2.500000e+01
3.125000e+01
3.750000e+01
4.375000e+01
5.000000e+01
5.625000e+01
6.250000e+01
6.875000e+01
7.500000e+01
8.125000e+01
8.750000e+01
9.375000e+01
1.000000e+02
1.062500e+02
1.125000e+02
1.187500e+02
1.250000e+02
1.312500e+02
1.375000e+02
1.437500e+02
1.500000e+02
1.562500e+02
1.625000e+02
1.687500e+02
1.750000e+02
1.812500e+02
1.875000e+02
1.937500e+02
2.000000e+02
0.000000e+00
6.250000e+00
1.250000e+01
1.875000e+01
2.500000e+01
3.125000e+01
3.750000e+01
4.375000e+01
5.000000e+01
5.625000e+01
6.250000e+01
6.875000e+01
7.500000e+01
8.125000e+01
8.750000e+01
9.375000e+01
1.000000e+02
1.062500e+02
1.125000e+02
1.187500e+02
1.250000e+02
1.312500e+02
1.375000e+02
1.437500e+02
1.500000e+02
1.562500e+02
1.625000e+02
1.687500e+02
1.750000e+02
1.812500e+02
1.875000e+02
1.937500e+02
2.000000e+02
0.000000e+00
6.250000e+00
1.250000e+01
1.875000e+01
2.500000e+01
3.125000e+01
3.750000e+01
4.375000e+01
5.000000e+01
5.625000e+01
6.250000e+01
6.875000e+01
7.500000e+01
8.125000e+01
8.750000e+01
9.375000e+01
1.000000e+02
1.062500e+02
1.125000e+02
1.187500e+02
1.250000e+02
1.312500e+02
1.375000e+02
1.437500e+02
1.500000e+02
1.562500e+02
1.625000e+02
1.687500e+02
1.750000e+02
1.812500e+02
1.875000e+02
1.937500e+02
2.000000e+02
0.000000e+00
6.250000e+00
1.250000e+01
1.875000e+01
2.500000e+01
3.125000e+01
3.750000e+01
4.375000e+01
5.000000e+01
5.625000e+01
6.250000e+01
6.875000e+01
7.500000e+01
8.125000e+01
8.750000e+01
9.375000e+01
1.000000e+02
1.062500e+02
1.125000e+02
1.187500e+02
1.250000e+02
1.312500e+02
1.375000e+02
1.437500e+02
1.500000e+02
1.562500e+02
1.625000e+02
1.687500e+02
1.750000e+02
1.812500e+02
1.875000e+02
1.937500e+02
2.000000e+02
0.000000e+00
6.250000e+00
1.250000e+01
1.875000e+01
2.500000e+01
3.125000e+01
3.750000e+01
4.375000e+01
5.000000e+01
5.625000e+01
6.250000e+01
6.875000e+01
7.500000e+01
8.125000e+01
8.750000e+01
9.375000e+01
1.000000e+02
1.062500e+02
1.125000e+02
1.187500e+02
1.250000e+02
1.312500e+02
1.375000e+02
1.437500e+02
1.500000e+02
1.562500e+02
1.625000e+02
1.687500e+02
1.750000e+02
1.812500e+02
1.875000e+02
1.937500e+02
2.000000e+02
0.000000e+00
6.250000e+00
1.250000e+01
1.875000e+01
2.500000e+01
3.125000e+01
3.750000e+01
4.375000e+01
5.000000e+01
5.625000e+01
6.250000e+01
6.875000e+01
7.500000e+01
8.125000e+01
8.750000e+01
9.375000e+01
1.000000e+02
1.062500e+02
1.125000e+02
1.187500e+02
1.250000e+02
1.312500e+02
1.375000e+02
1.437500e+02
1.500000e+02
1.562500e+02
1.625000e+02
1.687500e+02
1.750000e+02
1.812500e+02
1.875000e+02
1.937500e+02
2.000000e+02
0.000000e+00
6.250000e+00
1.250000e+01
1.875000e+01
2.500000e+01
3.125000e+01
3.750000e+01
4.375000e+01
5.000000e+01
5.625000e+01
6.250000e+01
6.875000e+01
7.500000e+01
8.125000e+01
8.750000e+01
9.375000e+01
1.000000e+02
1.062500e+02
1.125000e+02
1.187500e+02
1.250000e+02
1.312500e+02
1.375000e+02
1.437500e+02
1.500000e+02
1.562500e+02
1.625000e+02
1.687500e+02
1.750000e+02
1.812500e+02
1.875000e+02
1.937500e+02
2.000000e+02
0.000000e+00
6.250000e+00
1.250000e+01
1.875000e+01
2.500000e+01
3.125000e+01
3.750000e+01
4.375000e+01
5.000000e+01
5.625000e+01
6.250000e+01
6.875000e+01
7.500000e+01
8.125000e+01
8.750000e+01
9.375000e+01
1.000000e+02
1.062500e+02
1.125000e+02
1.187500e+02
1.250000e+02
1.312500e+02
1.375000e+02
1.437500e+02
1.500000e+02
1.562500e+02
1.625000e+02
1.687500e+02
1.750000e+02
1.812500e+02
1.875000e+02
1.937500e+02
2.000000e+02
0.000000e+00
6.250000e+00
1.250000e+01
1.875000e+01
2.500000e+01
3.125000e+01
3.750000e+01
4.375000e+01
5.000000e+01
5.625000e+01
6.250000e+01
6.875000e+01
7.500000e+01
8.125000e+01
8.750000e+01
9.375000e+01
1.000000e+02
1.062500e+02
1.125000e+02
1.187500e+02
1.250000e+02
1.312500e+02
1.375000e+02
1.437500e+02
1.500000e+02
1.562500e+02
1.625000e+02
1.687500e+02
1.750000e+02
1.812500e+02
1.875000e+02
1.937500e+02
2.000000e+02
0.000000e+00
6.250000e+00
1.250000e+01
1.875000e+01
2.500000e+01
3.125000e+01
3.750000e+01
4.375000e+01
5.000000e+01
5.625000e+01
6.250000e+01
6.875000e+01
7.500000e+01
8.125000e+01
8.750000e+01
9.375000e+01
1.000000e+02
1.062500e+02
1.125000e+02
1.187500e+02
1.250000e+02
1.312500e+02
1.375000e+02
1.437500e+02
1.500000e+02
1.562500e+02
1.625000e+02
1.687500e+02
1.750000e+02
1.812500e+02
1.875000e+02
1.937500e+02
2.000000e+02
0.000000e+00
6.250000e+00
1.250000e+01
1.875000e+01
2.500000e+01
3.125000e+01
3.750000e+01
4.375000e+01
5.000000e+01
5.625000e+01
6.250000e+01
6.875000e+01
7.500000e+01
8.125000e+01
8.750000e+01
9.375000e+01
1.000000e+02
1.062500e+02
1.125000e+02
1.187500e+02
1.250000e+02
1.312500e+02
1.375000e+02
1.437500e+02
1.500000e+02
1.562500e+02
1.625000e+02
1.687500e+02
1.750000e+02
1.812500e+02
1.875000e+02
1.937500e+02
2.000000e+02
0.000000e+00
6.250000e+00
1.250000e+01
1.875000e+01
2.500000e+01
3.125000e+01
3.750000e+01
4.375000e+01
5.000000e+01
5.625000e+01
6.250000e+01
6.875000e+01
7.500000e+01
8.125000e+01
8.750000e+01
9.375000e+01
1.000000e+02
1.062500e+02
1.125000e+02
1.187500e+02
1.250000e+02
1.312500e+02
1.375000e+02
1.437500e+02
1.500000e+02
1.562500e+02
1.625000e+02
1.687500e+02
1.750000e+02
1.812500e+02
1.875000e+02
1.937500e+02
2.000000e+02
0.000000e+00
0.000000e+00
0.000000e+00
0.000000e+00
0.000000e+00
0.000000e+00
0.000000e+00
0.000000e+00
0.000000e+00
0.000000e+00
0.000000e+00
0.000000e+00
0.000000e+00
0.000000e+00
0.000000e+00
0.000000e+00
0.000000e+00
0.000000e+00
0.000000e+00
0.000000e+00
0.000000e+00
0.000000e+00
0.000000e+00
0.000000e+00
0.000000e+00
0.000000e+00
0.000000e+00
0.000000e+00
0.000000e+00
0.000000e+00
0.000000e+00
0.000000e+00
0.000000e+00
6.250000e+00
6.250000e+00
6.250000e+00
6.250000e+00
6.250000e+00
6.250000e+00
6.250000e+00
6.250000e+00
6.250000e+00
6.250000e+00
6.250000e+00
6.250000e+00
6.250000e+00
6.250000e+00
6.250000e+00
6.250000e+00
6.250000e+00
6.250000e+00
6.250000e+00
6.250000e+00
6.250000e+00
6.250000e+00
6.250000e+00
6.250000e+00
6.250000e+00
6.250000e+00
6.250000e+00
6.250000e+00
6.250000e+00
6.250000e+00
6.250000e+00
6.250000e+00
6.250000e+00
1.250000e+01
1.250000e+01
1.250000e+01
1.250000e+01
1.250000e+01
1.250000e+01
1.250000e+01
1.250000e+01
1.250000e+01
1.250000e+01
1.250000e+01
1.250000e+01
1.250000e+01
1.250000e+01
1.250000e+01
1.250000e+01
1.250000e+01
1.250000e+01
1.250000e+01
1.250000e+01
1.250000e+01
1.250000e+01
1.250000e+01
1.250000e+01
1.250000e+01
1.250000e+01
1.250000e+01
1.250000e+01
1.250000e+01
1.250000e+01
1.250000e+01
1.250000e+01
1.250000e+01
1.875000e+01
1.875000e+01
1.875000e+01
1.875000e+01
1.875000e+01
1.875000e+01
1.875000e+01
1.875000e+01
1.875000e+01
1.875000e+01
1.875000e+01
1.875000e+01
1.875000e+01
1.875000e+01
1.875000e+01
1.875000e+01
1.875000e+01
1.875000e+01
1.875000e+01
1.875000e+01
1.875000e+01
1.875000e+01
1.875000e+01
1.875000e+01
1.875000e+01
1.875000e+01
1.875000e+01
1.875000e+01
1.875000e+01
1.875000e+01
1.875000e+01
1.875000e+01
1.875000e+01
2.500000e+01
2.500000e+01
2.500000e+01
2.500000e+01
2.500000e+01
2.500000e+01
2.500000e+01
2.500000e+01
2.500000e+01
2.500000e+01
2.500000e+01
2.500000e+01
2.500000e+01
2.500000e+01
2.500000e+01
2.500000e+01
2.500000e+01
2.500000e+01
2.500000e+01
2.500000e+01
2.500000e+01
2.500000e+01
2.500000e+01
2.500000e+01
2.500000e+01
2.500000e+01
2.500000e+01
2.500000e+01
2.500000e+01
2.500000e+01
2.500000e+01
2.500000e+01
2.500000e+01
3.125000e+01
3.125000e+01
3.125000e+01
3.125000e+01
3.125000e+01
3.125000e+01
3.125000e+01
3.125000e+01
3.125000e+01
3.125000e+01
3.125000e+01
3.125000e+01
3.125000e+01
3.125000e+01
3.125000e+01
3.125000e+01
3.125000e+01
3.125000e+01
3.125000e+01
3.125000e+01
3.125000e+01
3.125000e+01
3.125000e+01
3.125000e+01
3.125000e+01
3.125000e+01
3.125000e+01
3.125000e+01
3.125000e+01
3.125000e+01
3.125000e+01
3.125000e+01
3.125000e+01
3.750000e+01
3.750000e+01
3.750000e+01
3.750000e+01
3.750000e+01
3.750000e+01
3.750000e+01
3.750000e+01
3.750000e+01
3.750000e+01
3.750000e+01
3.750000e+01
3.750000e+01
3.750000e+01
3.750000e+01
3.750000e+01
3.750000e+01
3.750000e+01
3.750000e+01
3.750000e+01
3.750000e+01
3.750000e+01
3.750000e+01
3.750000e+01
3.750000e+01
3.750000e+01
3.750000e+01
3.750000e+01
3.750000e+01
3.750000e+01
3.750000e+01
3.750000e+01
3.750000e+01
4.375000e+01
4.375000e+01
4.375000e+01
4.375000e+01
4.375000e+01
4.375000e+01
4.375000e+01
4.375000e+01
4.375000e+01
4.375000e+01
4.375000e+01
4.375000e+01
4.375000e+01
4.375000e+01
4.375000e+01
4.375000e+01
4.375000e+01
4.375000e+01
4.375000e+01
4.375000e+01
4.375000e+01
4.375000e+01
4.375000e+01
4.375000e+01
4.375000e+01
4.375000e+01
4.375000e+01
4.375000e+01
4.375000e+01
4.375000e+01
4.375000e+01
4.375000e+01
4.375000e+01
5.000000e+01
5.000000e+01
5.000000e+01
5.000000e+01
5.000000e+01
5.000000e+01
5.000000e+01
5.000000e+01
5.000000e+01
5.000000e+01
5.000000e+01
5.000000e+01
5.000000e+01
5.000000e+01
5.000000e+01
5.000000e+01
5.000000e+01
5.000000e+01
5.000000e+01
5.000000e+01
5.000000e+01
5.000000e+01
5.000000e+01
5.000000e+01
5.000000e+01
5.000000e+01
5.000000e+01
5.000000e+01
5.000000e+01
5.000000e+01
5.000000e+01
5.000000e+01
5.000000e+01
5.625000e+01
5.625000e+01
5.625000e+01
5.625000e+01
5.625000e+01
5.625000e+01
5.625000e+01
5.625000e+01
5.625000e+01
5.625000e+01
5.625000e+01
5.625000e+01
5.625000e+01
5.625000e+01
5.625000e+01
5.625000e+01
5.625000e+01
5.625000e+01
5.625000e+01
5.625000e+01
5.625000e+01
5.625000e+01
5.625000e+01
5.625000e+01
5.625000e+01
5.625000e+01
5.625000e+01
5.625000e+01
5.625000e+01
5.625000e+01
5.625000e+01
5.625000e+01
5.625000e+01
6.250000e+01
6.250000e+01
6.250000e+01
6.250000e+01
6.250000e+01
6.250000e+01
6.250000e+01
6.250000e+01
6.250000e+01
6.250000e+01
6.250000e+01
6.250000e+01
6.250000e+01
6.250000e+01
6.250000e+01
6.250000e+01
6.250000e+01
6.250000e+01
6.250000e+01
6.250000e+01
6.250000e+01
6.250000e+01
6.250000e+01
6.250000e+01
6.250000e+01
6.250000e+01
6.250000e+01
6.250000e+01
6.250000e+01
6.250000e+01
6.250000e+01
6.250000e+01
6.250000e+01
6.875000e+01
6.875000e+01
6.875000e+01
6.875000e+01
6.875000e+01
6.875000e+01
6.875000e+01
6.875000e+01
6.875000e+01
6.875000e+01
6.875000e+01
6.875000e+01
6.875000e+01
6.875000e+01
6.875000e+01
6.875000e+01
6.875000e+01
6.875000e+01
6.875000e+01
6.875000e+01
6.875000e+01
6.875000e+01
6.875000e+01
6.875000e+01
6.875000e+01
6.875000e+01
6.875000e+01
6.875000e+01
6.875000e+01
6.875000e+01
6.875000e+01
6.875000e+01
6.875000e+01
7.500000e+01
7.500000e+01
7.500000e+01
7.500000e+01
7.500000e+01
7.500000e+01
7.500000e+01
7.500000e+01
7.500000e+01
7.500000e+01
7.500000e+01
7.500000e+01
7.500000e+01
7.500000e+01
7.500000e+01
7.500000e+01
7.500000e+01
7.500000e+01
7.500000e+01
7.500000e+01
7.500000e+01
7.500000e+01
7.500000e+01
7.500000e+01
7.500000e+01
7.500000e+01
7.500000e+01
7.500000e+01
7.500000e+01
7.500000e+01
7.500000e+01
7.500000e+01
7.500000e+01
8.125000e+01
8.125000e+01
8.125000e+01
8.125000e+01
8.125000e+01
8.125000e+01
8.125000e+01
8.125000e+01
8.125000e+01
8.125000e+01
8.125000e+01
8.125000e+01
8.125000e+01
8.125000e+01
8.125000e+01
8.125000e+01
8.125000e+01
8.125000e+01
8.125000e+01
8.125000e+01
8.125000e+01
8.125000e+01
8.125000e+01
8.125000e+01
8.125000e+01
8.125000e+01
8.125000e+01
8.125000e+01
8.125000e+01
8.125000e+01
8.125000e+01
8.125000e+01
8.125000e+01
8.750000e+01
8.750000e+01
8.750000e+01
8.750000e+01
8.750000e+01
8.750000e+01
8.750000e+01
8.750000e+01
8.750000e+01
8.750000e+01
8.750000e+01
8.750000e+01
8.750000e+01
8.750000e+01
8.750000e+01
8.750000e+01
8.750000e+01
8.750000e+01
8.750000e+01
8.750000e+01
8.750000e+01
8.750000e+01
8.750000e+01
8.750000e+01
8.750000e+01
8.750000e+01
8.750000e+01
8.750000e+01
8.750000e+01
8.750000e+01
8.750000e+01
8.750000e+01
8.750000e+01
9.375000e+01
9.375000e+01
9.375000e+01
9.375000e+01
9.375000e+01
9.375000e+01
9.375000e+01
9.375000e+01
9.375000e+01
9.375000e+01
9.375000e+01
9.375000e+01
9.375000e+01
9.375000e+01
9.375000e+01
9.375000e+01
9.375000e+01
9.375000e+01
9.375000e+01
9.375000e+01
9.375000e+01
9.375000e+01
9.375000e+01
9.375000e+01
9.375000e+01
9.375000e+01
9.375000e+01
9.375000e+01
9.375000e+01
9.375000e+01
9.375000e+01
9.375000e+01
9.375000e+01
1.000000e+02
1.000000e+02
1.000000e+02
1.000000e+02
1.000000e+02
1.000000e+02
1.000000e+02
1.000000e+02
1.000000e+02
1.000000e+02
1.000000e+02
1.000000e+02
1.000000e+02
1.000000e+02
1.000000e+02
1.000000e+02
1.000000e+02
1.000000e+02
1.000000e+02
1.000000e+02
1.000000e+02
1.000000e+02
1.000000e+02
1.000000e+02
1.000000e+02
1.000000e+02
1.000000e+02
1.000000e+02
1.000000e+02
1.000000e+02
1.000000e+02
1.000000e+02
1.000000e+02
0.000000e+00
-3.931993e-01
-7.006883e-01
-1.005178e+00
-1.313116e+00
-1.607834e+00
-1.906604e+00
-2.205546e+00
-2.500846e+00
-2.796927e+00
-3.093141e+00
-3.388174e+00
-3.682902e+00
-3.977391e+00
-4.271246e+00
-4.564522e+00
-4.857230e+00
-5.149233e+00
-5.440441e+00
-5.730781e+00
-6.020203e+00
-6.308653e+00
-6.595847e+00
-6.881143e+00
-7.163867e+00
-7.444063e+00
-7.723245e+00
-8.005045e+00
-8.296336e+00
-8.608981e+00
-8.950638e+00
-9.298025e+00
-9.493253e+00
0.000000e+00
-2.389072e-01
-4.924389e-01
-7.519404e-01
-1.018429e+00
-1.274642e+00
-1.535100e+00
-1.796572e+00
-2.055036e+00
-2.314114e+00
-2.573383e+00
-2.831589e+00
-3.089424e+00
-3.346992e+00
-3.603937e+00
-3.860266e+00
-4.115978e+00
-4.370928e+00
-4.624989e+00
-4.878009e+00
-5.129786e+00
-5.380011e+00
-5.628033e+00
-5.872632e+00
-6.112186e+00
-6.345194e+00
-6.570763e+00
-6.788737e+00
-6.998669e+00
-7.193401e+00
-7.341767e+00
-7.413197e+00
-7.504832e+00
0.000000e+00
-1.658116e-01
-3.455501e-01
-5.517176e-01
-7.696953e-01
-9.845621e-01
-1.205465e+00
-1.428369e+00
-1.650086e+00
-1.872797e+00
-2.095858e+00
-2.318323e+00
-2.540570e+00
-2.762548e+00
-2.983936e+00
-3.204643e+00
-3.424532e+00
-3.643351e+00
-3.860808e+00
-4.076496e+00
-4.289831e+00
-4.499986e+00
-4.705711e+00
-4.905176e+00
-5.096052e+00
-5.275745e+00
-5.441482e+00
-5.589808e+00
-5.714682e+00
-5.802645e+00
-5.832850e+00
-5.830419e+00
-5.917079e+00
0.000000e+00
-1.219840e-01
-2.535067e-01
-4.083198e-01
-5.763536e-01
-7.495767e-01
-9.302260e-01
-1.113833e+00
-1.298413e+00
-1.484545e+00
-1.671258e+00
-1.857902e+00
-2.044493e+00
-2.230761e+00
-2.416381e+00
-2.601127e+00
-2.784692e+00
-2.966667e+00
-3.146545e+00
-3.323624e+00
-3.496947e+00
-3.665239e+00
-3.826814e+00
-3.979495e+00
-4.120625e+00
-4.247105e+00
-4.355299e+00
-4.440657e+00
-4.497053e+00
-4.517335e+00
-4.507017e+00
-4.511633e+00
-4.588518e+00
0.000000e+00
-1.005660e-01
-2.036986e-01
-3.193234e-01
-4.441115e-01
-5.777727e-01
-7.175459e-01
-8.609196e-01
-1.006968e+00
-1.154693e+00
-1.303247e+00
-1.452191e+00
-1.601143e+00
-1.749728e+00
-1.897613e+00
-2.044442e+00
-2.189774e+00
-2.333073e+00
-2.473646e+00
-2.610583e+00
-2.742699e+00
-2.868499e+00
-2.986138e+00
-3.093388e+00
-3.187641e+00
-3.265917e+00
-3.324934e+00
-3.361338e+00
-3.372676e+00
-3.361321e+00
-3.347218e+00
-3.371661e+00
-3.447983e+00
0.000000e+00
-7.701694e-02
-1.559134e-01
-2.393237e-01
-3.298912e-01
-4.266083e-01
-5.282727e-01
-6.336300e-01
-7.415288e-01
-8.510725e-01
-9.615738e-01
-1.072503e+00
-1.183426e+00
-1.293958e+00
-1.403719e+00
-1.512291e+00
-1.619170e+00
-1.723731e+00
-1.825182e+00
-1.922520e+00
-2.014493e+00
-2.099591e+00
-2.176038e+00
-2.241817e+00
-2.294716e+00
-2.332461e+00
-2.353035e+00
-2.355461e+00
-2.341621e+00
-2.320321e+00
-2.314536e+00
-2.348332e+00
-2.425098e+00
0.000000e+00
-5.187326e-02
-1.046932e-01
-1.600629e-01
-2.191080e-01
-2.820981e-01
-3.484524e-01
-4.174536e-01
-4.883635e-01
-5.605133e-01
-6.333648e-01
-7.064769e-01
-7.794678e-01
-8.519860e-01
-9.236707e-01
-9.941101e-01
-1.062803e+00
-1.129122e+00
-1.192283e+00
-1.251312e+00
-1.305036e+00
-1.352092e+00
-1.390957e+00
-1.420036e+00
-1.437785e+00
-1.442978e+00
-1.435207e+00
-1.415838e+00
-1.389716e+00
-1.367975e+00
-1.369059e+00
-1.407640e+00
-1.481512e+00
0.000000e+00
-2.606829e-02
-5.261521e-02
-8.022804e-02
-1.094519e-01
-1.404510e-01
-1.730736e-01
-2.069788e-01
-2.417867e-01
-2.771355e-01
-3.127042e-01
-3.482102e-01
-3.833919e-01
-4.179879e-01
-4.517114e-01
-4.842220e-01
-5.150946e-01
-5.437917e-01
-5.696385e-01
-5.918085e-01
-6.093259e-01
-6.210997e-01
-6.260011e-01
-6.229957e-01
-6.113517e-01
-5.909714e-01
-5.629217e-01
-5.302523e-01
-4.991287e-01
-4.798996e-01
-4.857663e-01
-5.246970e-01
-5.916909e-01
0.000000e+00
-1.404972e-04
-2.193936e-04
-2.250699e-04
-1.365251e-04
7.430725e-05
4.413225e-04
1.004678e-03
1.812316e-03
2.921868e-03
4.403230e-03
6.342389e-03
8.846554e-03
1.205070e-02
1.612643e-02
2.129448e-02
2.784093e-02
3.613619e-02
4.665279e-02
5.997420e-02
7.678015e-02
9.779070e-02
1.236547e-01
1.547742e-01
1.910597e-01
2.316038e-01
2.742494e-01
3.150678e-01
3.479040e-01
3.644609e-01
3.564637e-01
3.209039e-01
2.643530e-01
0.000000e+00
2.577945e-02
5.215502e-02
7.973837e-02
1.091173e-01
1.405115e-01
1.738356e-01
2.088268e-01
2.451988e-01
2.827022e-01
3.211531e-01
3.604371e-01
4.005010e-01
4.413430e-01
4.830031e-01
5.255572e-01
5.691148e-01
6.138246e-01
6.598871e-01
7.075630e-01
7.571571e-01
8.089504e-01
8.630651e-01
9.192675e-01
9.767366e-01
1.033812e+00
1.087732e+00
1.134433e+00
1.168601e+00
1.184377e+00
1.177418e+00
1.148166e+00
1.104130e+00
0.000000e+00
5.155890e-02
1.041652e-01
1.594503e-01
2.185848e-01
2.818903e-01
3.488466e-01
4.188093e-01
4.911259e-01
5.652309e-01
6.407139e-01
7.172913e-01
7.947714e-01
8.730324e-01
9.519942e-01
1.031592e+00
1.111755e+00
1.192392e+00
1.273393e+00
1.354640e+00
1.436006e+00
1.517284e+00
1.598044e+00
1.677445e+00
1.754073e+00
1.825814e+00
1.889766e+00
1.942275e+00
1.979251e+00
1.997026e+00
1.994012e+00
1.972780e+00
1.941326e+00
0.000000e+00
7.665594e-02
1.552637e-01
2.384993e-01
3.290499e-01
4.259499e-01
5.280467e-01
6.341490e-01
7.431782e-01
8.543264e-01
9.670166e-01
1.080856e+00
1.195573e+00
1.310965e+00
1.426868e+00
1.543112e+00
1.659479e+00
1.775668e+00
1.891270e+00
2.005778e+00
2.118596e+00
2.228974e+00
2.335868e+00
2.437823e+00
2.532949e+00
2.618934e+00
2.693096e+00
2.752504e+00
2.794330e+00
2.816608e+00
2.819491e+00
2.806718e+00
2.786601e+00
0.000000e+00
1.001316e-01
2.028854e-01
3.182217e-01
4.428607e-01
5.765326e-01
7.165035e-01
8.603103e-01
1.007083e+00
1.155892e+00
1.305978e+00
1.457009e+00
1.608725e+00
1.760881e+00
1.913282e+00
2.065712e+00
2.217872e+00
2.369330e+00
2.519466e+00
2.667454e+00
2.812217e+00
2.952333e+00
3.085962e+00
3.210918e+00
3.324859e+00
3.425462e+00
3.510499e+00
3.577928e+00
3.626122e+00
3.654414e+00
3.664014e+00
3.659204e+00
3.648510e+00
0.000000e+00
1.214964e-01
2.525736e-01
4.070347e-01
5.748063e-01
7.478716e-01
9.284736e-01
1.112159e+00
1.296973e+00
1.483537e+00
1.670943e+00
1.858620e+00
2.046655e+00
2.234843e+00
2.422922e+00
2.610722e+00
2.797944e+00
2.984109e+00
3.168567e+00
3.350372e+00
3.527999e+00
3.699119e+00
3.860724e+00
4.009619e+00
4.142944e+00
4.258453e+00
4.354525e+00
4.430119e+00
4.484827e+00
4.519148e+00
4.535063e+00
4.536999e+00
4.533389e+00
0.000000e+00
1.654485e-01
3.448642e-01
5.507650e-01
7.685201e-01
9.831879e-01
1.203924e+00
1.426694e+00
1.648295e+00
1.870909e+00
2.093924e+00
2.316427e+00
2.538804e+00
2.760997e+00
2.982675e+00
3.203720e+00
3.423890e+00
3.642732e+00
3.859751e+00
4.074179e+00
4.284236e+00
4.486544e+00
4.676519e+00
4.849557e+00
5.002057e+00
5.131767e+00
5.237664e+00
5.319740e+00
5.378905e+00
5.417017e+00
5.437042e+00
5.443559e+00
5.444281e+00
0.000000e+00
2.388412e-01
4.923308e-01
7.517989e-01
1.018234e+00
1.274364e+00
1.534732e+00
1.796090e+00
2.054384e+00
2.313211e+00
2.572140e+00
2.829902e+00
3.087132e+00
3.343861e+00
3.599658e+00
3.854427e+00
4.107952e+00
4.359777e+00
4.609535e+00
4.856657e+00
5.099148e+00
5.332568e+00
5.550656e+00
5.747246e+00
5.917814e+00
6.059879e+00
6.172760e+00
6.257296e+00
6.315745e+00
6.351769e+00
6.370272e+00
6.377013e+00
6.378651e+00
0.000000e+00
3.935435e-01
7.013006e-01
1.006060e+00
1.314193e+00
1.609063e+00
1.907989e+00
2.207064e+00
2.502449e+00
2.798544e+00
3.094676e+00
3.389492e+00
3.683785e+00
3.977529e+00
4.270231e+00
4.561808e+00
4.852024e+00
5.140393e+00
5.426512e+00
5.709570e+00
5.986838e+00
6.252585e+00
6.499037e+00
6.718722e+00
6.906175e+00
7.058309e+00
7.174169e+00
7.254789e+00
7.303365e+00
7.325608e+00
7.329938e+00
7.326826e+00
7.325010e+00
0.000000e+00
-2.395733e-01
-4.584194e-01
-7.258844e-01
-1.027703e+00
-1.364674e+00
-1.740633e+00
-2.152254e+00
-2.600335e+00
-3.086073e+00
-3.608890e+00
-4.169001e+00
-4.766838e+00
-5.402364e+00
-6.075596e+00
-6.786634e+00
-7.535467e+00
-8.322034e+00
-9.146247e+00
-1.000796e+01
-1.090703e+01
-1.184326e+01
-1.281653e+01
-1.382692e+01
-1.487517e+01
-1.596343e+01
-1.709594e+01
-1.827993e+01
-1.952627e+01
-2.085200e+01
-2.230056e+01
-2.401183e+01
-2.636266e+01
0.000000e+00
-1.488279e-01
-3.783732e-01
-6.413166e-01
-9.443284e-01
-1.282063e+00
-1.656951e+00
-2.068991e+00
-2.517379e+00
-3.002891e+00
-3.525855e+00
-4.086178e+00
-4.684090e+00
-5.319761e+00
-5.993197e+00
-6.704436e+00
-7.453502e+00
-8.240350e+00
-9.064889e+00
-9.926984e+00
-1.082648e+01
-1.176327e+01
-1.273731e+01
-1.374881e+01
-1.479849e+01
-1.588825e+01
-1.702201e+01
-1.820667e+01
-1.945356e+01
-2.078266e+01
-2.223860e+01
-2.392152e+01
-2.605935e+01
0.000000e+00
-1.137611e-01
-3.182808e-01
-5.762738e-01
-8.765504e-01
-1.212757e+00
-1.586374e+00
-1.997869e+00
-2.445988e+00
-2.931267e+00
-3.454190e+00
-4.014596e+00
-4.612623e+00
-5.248476e+00
-5.922177e+00
-6.633749e+00
-7.383227e+00
-8.170590e+00
-8.995775e+00
-9.858681e+00
-1.075920e+01
-1.169730e+01
-1.267308e+01
-1.368685e+01
-1.473937e+01
-1.583251e+01
-1.697015e+01
-1.815968e+01
-1.941468e+01
-2.075945e+01
-2.222246e+01
-2.380594e+01
-2.548653e+01
0.000000e+00
-1.075220e-01
-2.905881e-01
-5.353843e-01
-8.280446e-01
-1.159631e+00
-1.530449e+00
-1.940012e+00
-2.387002e+00
-2.871660e+00
-3.394240e+00
-3.954562e+00
-4.552705e+00
-5.188822e+00
-5.862942e+00
-6.575100e+00
-7.325339e+00
-8.113672e+00
-8.940086e+00
-9.804547e+00
-1.070702e+01
-1.164755e+01
-1.262629e+01
-1.364360e+01
-1.470028e+01
-1.579818e+01
-1.694119e+01
-1.813694e+01
-1.939944e+01
-2.074990e+01
-2.218690e+01
-2.364547e+01
-2.499423e+01
0.000000e+00
-1.144009e-01
-2.863931e-01
-5.180417e-01
-7.992541e-01
-1.123999e+00
-1.490111e+00
-1.896258e+00
-2.341229e+00
-2.824713e+00
-3.346599e+00
-3.906685e+00
-4.504943e+00
-5.141431e+00
-5.816175e+00
-6.529222e+00
-7.280629e+00
-8.070449e+00
-8.898726e+00
-9.765494e+00
-1.067078e+01
-1.161465e+01
-1.259724e+01
-1.361884e+01
-1.468015e+01
-1.578279e+01
-1.693014e+01
-1.812864e+01
-1.938915e+01
-2.072226e+01
-2.210417e+01
-2.344239e+01
-2.463344e+01
0.000000e+00
-1.175951e-01
-2.872030e-01
-5.100914e-01
-7.828895e-01
-1.101072e+00
-1.462385e+00
-1.865019e+00
-2.307724e+00
-2.789855e+00
-3.310982e+00
-3.870818e+00
-4.469241e+00
-5.106219e+00
-5.781771e+00
-6.495956e+00
-7.248856e+00
-8.040567e+00
-8.871186e+00
-9.740792e+00
-1.064943e+01
-1.159712e+01
-1.258388e+01
-1.360980e+01
-1.467520e+01
-1.578105e+01
-1.692944e+01
-1.812408e+01
-1.936995e+01
-2.066638e+01
-2.197501e+01
-2.321560e+01
-2.430348e+01
0.000000e+00
-1.187982e-01
-2.874181e-01
-5.061670e-01
-7.735430e-01
-1.087089e+00
-1.444605e+00
-1.844414e+00
-2.285244e+00
-2.766221e+00
-3.286757e+00
-3.846470e+00
-4.445154e+00
-5.082728e+00
-5.759206e+00
-6.474664e+00
-7.229221e+00
-8.023014e+00
-8.856178e+00
-9.728813e+00
-1.064094e+01
-1.159245e+01
-1.258314e+01
-1.361269e+01
-1.468079e+01
-1.578732e+01
-1.693243e+01
-1.811626e+01
-1.933756e+01
-2.058653e+01
-2.182328e+01
-2.298219e+01
-2.399456e+01
0.000000e+00
-1.193047e-01
-2.873774e-01
-5.042117e-01
-7.688675e-01
-1.079707e+00
-1.434966e+00
-1.833069e+00
-2.272758e+00
-2.753083e+00
-3.273371e+00
-3.833180e+00
-4.432259e+00
-5.070508e+00
-5.747946e+00
-6.464677e+00
-7.220858e+00
-8.016668e+00
-8.852270e+00
-9.727759e+00
-1.064309e+01
-1.159798e+01
-1.259187e+01
-1.362388e+01
-1.469283e+01
-1.579720e+01
-1.693494e+01
-1.810274e+01
-1.929416e+01
-2.049406e+01
-2.166639e+01
-2.275868e+01
-2.371612e+01
0.000000e+00
-1.194968e-01
-2.874510e-01
-5.037887e-01
-7.676964e-01
-1.077775e+00
-1.432413e+00
-1.830105e+00
-2.269599e+00
-2.749935e+00
-3.270419e+00
-3.830596e+00
-4.430213e+00
-5.069177e+00
-5.747525e+00
-6.465394e+00
-7.222979e+00
-8.020496e+00
-8.858136e+00
-9.735980e+00
-1.065389e+01
-1.161137e+01
-1.260744e+01
-1.364054e+01
-1.470842e+01
-1.580810e+01
-1.693545e+01
-1.808433e+01
-1.924486e+01
-2.039960e+01
-2.151777e+01
-2.255838e+01
-2.347884e+01
0.000000e+00
-1.194791e-01
-2.877340e-01
-5.047867e-01
-7.697170e-01
-1.080899e+00
-1.436579e+00
-1.835191e+00
-2.275490e+00
-2.756538e+00
-3.277679e+00
-3.838496e+00
-4.438771e+00
-5.078442e+00
-5.757574e+00
-6.476333e+00
-7.234950e+00
-8.033676e+00
-8.872725e+00
-9.752178e+00
-1.067182e+01
-1.163092e+01
-1.262805e+01
-1.366087e+01
-1.472608e+01
-1.581923e+01
-1.693448e+01
-1.806371e+01
-1.919528e+01
-2.031179e+01
-2.138771e+01
-2.239166e+01
-2.329131e+01
0.000000e+00
-1.191255e-01
-2.880904e-01
-5.072614e-01
-7.751732e-01
-1.089388e+00
-1.447727e+00
-1.848529e+00
-2.290547e+00
-2.772929e+00
-3.295121e+00
-3.856791e+00
-4.457789e+00
-5.098106e+00
-5.777838e+00
-6.497175e+00
-7.256367e+00
-8.055688e+00
-8.895385e+00
-9.775558e+00
-1.069596e+01
-1.165568e+01
-1.265280e+01
-1.368423e+01
-1.474559e+01
-1.583119e+01
-1.693385e+01
-1.804434e+01
-1.915059e+01
-2.023658e+01
-2.128175e+01
-2.226248e+01
-2.315464e+01
0.000000e+00
-1.180290e-01
-2.881055e-01
-5.115946e-01
-7.851647e-01
-1.104312e+00
-1.466806e+00
-1.870865e+00
-2.315268e+00
-2.799408e+00
-3.322899e+00
-3.885520e+00
-4.487227e+00
-5.128077e+00
-5.808196e+00
-6.527785e+00
-7.287095e+00
-8.086400e+00
-8.925966e+00
-9.805957e+00
-1.072617e+01
-1.168556e+01
-1.268179e+01
-1.371097e+01
-1.476775e+01
-1.584545e+01
-1.693597e+01
-1.802963e+01
-1.911470e+01
-2.017722e+01
-2.120108e+01
-2.216908e+01
-2.306399e+01
0.000000e+00
-1.148666e-01
-2.873960e-01
-5.197953e-01
-8.019808e-01
-1.127932e+00
-1.495521e+00
-1.903445e+00
-2.350527e+00
-2.836504e+00
-3.361320e+00
-3.924848e+00
-4.527152e+00
-5.168381e+00
-5.848678e+00
-6.568240e+00
-7.327304e+00
-8.126105e+00
-8.964900e+00
-9.843945e+00
-1.076315e+01
-1.172140e+01
-1.271594e+01
-1.374217e+01
-1.479392e+01
-1.586376e+01
-1.694311e+01
-1.802221e+01
-1.909008e+01
-2.013482e+01
-2.114421e+01
-2.210671e+01
-2.301170e+01
0.000000e+00
-1.079153e-01
-2.915474e-01
-5.372060e-01
-8.309921e-01
-1.163954e+00
-1.536454e+00
-1.948037e+00
-2.397416e+00
-2.884896e+00
-3.410794e+00
-3.975005e+00
-4.577706e+00
-5.219138e+00
-5.899438e+00
-6.618790e+00
-7.377409e+00
-8.175456e+00
-9.013141e+00
-9.890783e+00
-1.080839e+01
-1.176477e+01
-1.275678e+01
-1.377924e+01
-1.482545e+01
-1.588756e+01
-1.695679e+01
-1.802355e+01
-1.907762e+01
-2.010886e+01
-2.110827e+01
-2.206935e+01
-2.298863e+01
0.000000e+00
-1.140208e-01
-3.191376e-01
-5.780458e-01
-8.795259e-01
-1.217192e+00
-1.592584e+00
-2.006207e+00
-2.456843e+00
-2.945099e+00
-3.471529e+00
-4.036047e+00
-4.638884e+00
-5.280329e+00
-5.960500e+00
-6.679561e+00
-7.437691e+00
-8.234992e+00
-9.071608e+00
-9.947806e+00
-1.086351e+01
-1.181731e+01
-1.280573e+01
-1.382331e+01
-1.486316e+01
-1.591739e+01
-1.697731e+01
-1.803358e+01
-1.907662e+01
-2.009751e+01
-2.108958e+01
-2.205051e+01
-2.298431e+01
0.000000e+00
-1.490200e-01
-3.791827e-01
-6.430526e-01
-9.472858e-01
-1.286505e+00
-1.663193e+00
-2.077386e+00
-2.528317e+00
-3.016838e+00
-3.543352e+00
-4.107838e+00
-4.710606e+00
-5.351908e+00
-6.031844e+00
-6.750566e+00
-7.508215e+00
-8.304866e+00
-9.140632e+00
-1.001560e+01
-1.092928e+01
-1.187981e+01
-1.286341e+01
-1.387465e+01
-1.490690e+01
-1.595260e+01
-1.700340e+01
-1.805033e+01
-1.908429e+01
-2.009714e+01
-2.108351e+01
-2.204368e+01
-2.298748e+01
0.000000e+00
-2.398189e-01
-4.592613e-01
-7.276527e-01
-1.030678e+00
-1.369136e+00
-1.746896e+00
-2.160663e+00
-2.611276e+00
-3.100006e+00
-3.626352e+00
-4.190592e+00
-4.793229e+00
-5.434307e+00
-6.113931e+00
-6.832291e+00
-7.589458e+00
-8.385497e+00
-9.220514e+00
-1.009432e+01
-1.100575e+01
-1.195218e+01
-1.292955e+01