TITLE = "Solution"
VARIABLES = x, y, u, v, psiu, psiv, t, stress
ZONE T="structure" N=561 E=512 F=FEBLOCK ET=QUADRILATERAL VARLOCATION=([7,8]=cellcentered)
0.000000e+00
6.250000e+00
1.250000e+01
1.875000e+01
2.500000e+01
3.125000e+01
3.750000e+01
4.375000e+01
5.000000e+01
5.625000e+01
6.250000e+01
6.875000e+01
7.500000e+01
8.125000e+01
8.750000e+01
9.375000e+01
1.000000e+02
1.062500e+02
1.125000e+02
1.187500e+02
1.250000e+02
1.312500e+02
1.375000e+02
1.437500e+02
1.500000e+02
1.562500e+02
1.625000e+02
1.687500e+02
1.750000e+02
1.812500e+02
1.875000e+02
1.937500e+02
2.000000e+02
0.000000e+00
6.250000e+00
1.250000e+01
1.875000e+01
2.500000e+01
3.125000e+01
3.750000e+01
4.375000e+01
5.000000e+01
5.625000e+01
6.250000e+01
6.875000e+01
7.500000e+01
8.125000e+01
8.750000e+01
9.375000e+01
1.000000e+02
1.062500e+02
1.125000e+02
1.187500e+02
1.250000e+02
1.312500e+02
1.375000e+02
1.437500e+02
1.500000e+02
1.562500e+02
1.625000e+02
1.687500e+02
1.750000e+02
1.812500e+02
1.875000e+02
1.937500e+02
2.000000e+02
0.000000e+00
6.250000e+00
1.250000e+01
1.875000e+01
2.500000e+01
3.125000e+01
3.750000e+01
4.375000e+01
5.000000e+01
5.625000e+01
6.250000e+01
6.875000e+01
7.500000e+01
8.125000e+01
8.750000e+01
9.375000e+01
1.000000e+02
1.062500e+02
1.125000e+02
1.187500e+02
1.250000e+02
1.312500e+02
1.375000e+02
1.437500e+02
1.500000e+02
1.562500e+02
1.625000e+02
1.687500e+02
1.750000e+02
1.812500e+02
1.875000e+02
1.937500e+02
2.000000e+02
0.000000e+00
6.250000e+00
1.250000e+01
1.875000e+01
2.500000e+01
3.125000e+01
3.750000e+01
4.375000e+01
5.000000e+01
5.625000e+01
6.250000e+01
6.875000e+01
7.500000e+01
8.125000e+01
8.750000e+01
9.375000e+01
1.000000e+02
1.062500e+02
1.125000e+02
1.187500e+02
1.250000e+02
1.312500e+02
1.375000e+02
1.437500e+02
1.500000e+02
1.562500e+02
1.625000e+02
1.687500e+02
1.750000e+02
1.812500e+02
1.875000e+02
1.937500e+02
2.000000e+02
0.000000e+00
6.250000e+00
1.250000e+01
1.875000e+01
2.500000e+01
3.125000e+01
3.750000e+01
4.375000e+01
5.000000e+01
5.625000e+01
6.250000e+01
6.875000e+01
7.500000e+01
8.125000e+01
8.750000e+01
9.375000e+01
1.000000e+02
1.062500e+02
1.125000e+02
1.187500e+02
1.250000e+02
1.312500e+02
1.375000e+02
1.437500e+02
1.500000e+02
1.562500e+02
1.625000e+02
1.687500e+02
1.750000e+02
1.812500e+02
1.875000e+02
1.937500e+02
2.000000e+02
0.000000e+00
6.250000e+00
1.250000e+01
1.875000e+01
2.500000e+01
3.125000e+01
3.750000e+01
4.375000e+01
5.000000e+01
5.625000e+01
6.250000e+01
6.875000e+01
7.500000e+01
8.125000e+01
8.750000e+01
9.375000e+01
1.000000e+02
1.062500e+02
1.125000e+02
1.187500e+02
1.250000e+02
1.312500e+02
1.375000e+02
1.437500e+02
1.500000e+02
1.562500e+02
1.625000e+02
1.687500e+02
1.750000e+02
1.812500e+02
1.875000e+02
1.937500e+02
2.000000e+02
0.000000e+00
6.250000e+00
1.250000e+01
1.875000e+01
2.500000e+01
3.125000e+01
3.750000e+01
4.375000e+01
5.000000e+01
5.625000e+01
6.250000e+01
6.875000e+01
7.500000e+01
8.125000e+01
8.750000e+01
9.375000e+01
1.000000e+02
1.062500e+02
1.125000e+02
1.187500e+02
1.250000e+02
1.312500e+02
1.375000e+02
1.437500e+02
1.500000e+02
1.562500e+02
1.625000e+02
1.687500e+02
1.750000e+02
1.812500e+02
1.875000e+02
1.937500e+02
2.000000e+02
0.000000e+00
6.250000e+00
1.250000e+01
1.875000e+01
2.500000e+01
3.125000e+01
3.750000e+01
4.375000e+01
5.000000e+01
5.625000e+01
6.250000e+01
6.875000e+01
7.500000e+01
8.125000e+01
8.750000e+01
9.375000e+01
1.000000e+02
1.062500e+02
1.125000e+02
1.187500e+02
1.250000e+02
1.312500e+02
1.375000e+02
1.437500e+02
1.500000e+02
1.562500e+02
1.625000e+02
1.687500e+02
1.750000e+02
1.812500e+02
1.875000e+02
1.937500e+02
2.000000e+02
0.000000e+00
6.250000e+00
1.250000e+01
1.875000e+01
2.500000e+01
3.125000e+01
3.750000e+01
4.375000e+01
5.000000e+01
5.625000e+01
6.250000e+01
6.875000e+01
7.500000e+01
8.125000e+01
8.750000e+01
9.375000e+01
1.000000e+02
1.062500e+02
1.125000e+02
1.187500e+02
1.250000e+02
1.312500e+02
1.375000e+02
1.437500e+02
1.500000e+02
1.562500e+02
1.625000e+02
1.687500e+02
1.750000e+02
1.812500e+02
1.875000e+02
1.937500e+02
2.000000e+02
0.000000e+00
6.250000e+00
1.250000e+01
1.875000e+01
2.500000e+01
3.125000e+01
3.750000e+01
4.375000e+01
5.000000e+01
5.625000e+01
6.250000e+01
6.875000e+01
7.500000e+01
8.125000e+01
8.750000e+01
9.375000e+01
1.000000e+02
1.062500e+02
1.125000e+02
1.187500e+02
1.250000e+02
1.312500e+02
1.375000e+02
1.437500e+02
1.500000e+02
1.562500e+02
1.625000e+02
1.687500e+02
1.750000e+02
1.812500e+02
1.875000e+02
1.937500e+02
2.000000e+02
0.000000e+00
6.250000e+00
1.250000e+01
1.875000e+01
2.500000e+01
3.125000e+01
3.750000e+01
4.375000e+01
5.000000e+01
5.625000e+01
6.250000e+01
6.875000e+01
7.500000e+01
8.125000e+01
8.750000e+01
9.375000e+01
1.000000e+02
1.062500e+02
1.125000e+02
1.187500e+02
1.250000e+02
1.312500e+02
1.375000e+02
1.437500e+02
1.500000e+02
1.562500e+02
1.625000e+02
1.687500e+02
1.750000e+02
1.812500e+02
1.875000e+02
1.937500e+02
2.000000e+02
0.000000e+00
6.250000e+00
1.250000e+01
1.875000e+01
2.500000e+01
3.125000e+01
3.750000e+01
4.375000e+01
5.000000e+01
5.625000e+01
6.250000e+01
6.875000e+01
7.500000e+01
8.125000e+01
8.750000e+01
9.375000e+01
1.000000e+02
1.062500e+02
1.125000e+02
1.187500e+02
1.250000e+02
1.312500e+02
1.375000e+02
1.437500e+02
1.500000e+02
1.562500e+02
1.625000e+02
1.687500e+02
1.750000e+02
1.812500e+02
1.875000e+02
1.937500e+02
2.000000e+02
0.000000e+00
6.250000e+00
1.250000e+01
1.875000e+01
2.500000e+01
3.125000e+01
3.750000e+01
4.375000e+01
5.000000e+01
5.625000e+01
6.250000e+01
6.875000e+01
7.500000e+01
8.125000e+01
8.750000e+01
9.375000e+01
1.000000e+02
1.062500e+02
1.125000e+02
1.187500e+02
1.250000e+02
1.312500e+02
1.375000e+02
1.437500e+02
1.500000e+02
1.562500e+02
1.625000e+02
1.687500e+02
1.750000e+02
1.812500e+02
1.875000e+02
1.937500e+02
2.000000e+02
0.000000e+00
6.250000e+00
1.250000e+01
1.875000e+01
2.500000e+01
3.125000e+01
3.750000e+01
4.375000e+01
5.000000e+01
5.625000e+01
6.250000e+01
6.875000e+01
7.500000e+01
8.125000e+01
8.750000e+01
9.375000e+01
1.000000e+02
1.062500e+02
1.125000e+02
1.187500e+02
1.250000e+02
1.312500e+02
1.375000e+02
1.437500e+02
1.500000e+02
1.562500e+02
1.625000e+02
1.687500e+02
1.750000e+02
1.812500e+02
1.875000e+02
1.937500e+02
2.000000e+02
0.000000e+00
6.250000e+00
1.250000e+01
1.875000e+01
2.500000e+01
3.125000e+01
3.750000e+01
4.375000e+01
5.000000e+01
5.625000e+01
6.250000e+01
6.875000e+01
7.500000e+01
8.125000e+01
8.750000e+01
9.375000e+01
1.000000e+02
1.062500e+02
1.125000e+02
1.187500e+02
1.250000e+02
1.312500e+02
1.375000e+02
1.437500e+02
1.500000e+02
1.562500e+02
1.625000e+02
1.687500e+02
1.750000e+02
1.812500e+02
1.875000e+02
1.937500e+02
2.000000e+02
0.000000e+00
6.250000e+00
1.250000e+01
1.875000e+01
2.500000e+01
3.125000e+01
3.750000e+01
4.375000e+01
5.000000e+01
5.625000e+01
6.250000e+01
6.875000e+01
7.500000e+01
8.125000e+01
8.750000e+01
9.375000e+01
1.000000e+02
1.062500e+02
1.125000e+02
1.187500e+02
1.250000e+02
1.312500e+02
1.375000e+02
1.437500e+02
1.500000e+02
1.562500e+02
1.625000e+02
1.687500e+02
1.750000e+02
1.812500e+02
1.875000e+02
1.937500e+02
2.000000e+02
0.000000e+00
6.250000e+00
1.250000e+01
1.875000e+01
2.500000e+01
3.125000e+01
3.750000e+01
4.375000e+01
5.000000e+01
5.625000e+01
6.250000e+01
6.875000e+01
7.500000e+01
8.125000e+01
8.750000e+01
9.375000e+01
1.000000e+02
1.062500e+02
1.125000e+02
1.187500e+02
1.250000e+02
1.312500e+02
1.375000e+02
1.437500e+02
1.500000e+02
1.562500e+02
1.625000e+02
1.687500e+02
1.750000e+02
1.812500e+02
1.875000e+02
1.937500e+02
2.000000e+02
0.000000e+00
0.000000e+00
0.000000e+00
0.000000e+00
0.000000e+00
0.000000e+00
0.000000e+00
0.000000e+00
0.000000e+00
0.000000e+00
0.000000e+00
0.000000e+00
0.000000e+00
0.000000e+00
0.000000e+00
0.000000e+00
0.000000e+00
0.000000e+00
0.000000e+00
0.000000e+00
0.000000e+00
0.000000e+00
0.000000e+00
0.000000e+00
0.000000e+00
0.000000e+00
0.000000e+00
0.000000e+00
0.000000e+00
0.000000e+00
0.000000e+00
0.000000e+00
0.000000e+00
6.250000e+00
6.250000e+00
6.250000e+00
6.250000e+00
6.250000e+00
6.250000e+00
6.250000e+00
6.250000e+00
6.250000e+00
6.250000e+00
6.250000e+00
6.250000e+00
6.250000e+00
6.250000e+00
6.250000e+00
6.250000e+00
6.250000e+00
6.250000e+00
6.250000e+00
6.250000e+00
6.250000e+00
6.250000e+00
6.250000e+00
6.250000e+00
6.250000e+00
6.250000e+00
6.250000e+00
6.250000e+00
6.250000e+00
6.250000e+00
6.250000e+00
6.250000e+00
6.250000e+00
1.250000e+01
1.250000e+01
1.250000e+01
1.250000e+01
1.250000e+01
1.250000e+01
1.250000e+01
1.250000e+01
1.250000e+01
1.250000e+01
1.250000e+01
1.250000e+01
1.250000e+01
1.250000e+01
1.250000e+01
1.250000e+01
1.250000e+01
1.250000e+01
1.250000e+01
1.250000e+01
1.250000e+01
1.250000e+01
1.250000e+01
1.250000e+01
1.250000e+01
1.250000e+01
1.250000e+01
1.250000e+01
1.250000e+01
1.250000e+01
1.250000e+01
1.250000e+01
1.250000e+01
1.875000e+01
1.875000e+01
1.875000e+01
1.875000e+01
1.875000e+01
1.875000e+01
1.875000e+01
1.875000e+01
1.875000e+01
1.875000e+01
1.875000e+01
1.875000e+01
1.875000e+01
1.875000e+01
1.875000e+01
1.875000e+01
1.875000e+01
1.875000e+01
1.875000e+01
1.875000e+01
1.875000e+01
1.875000e+01
1.875000e+01
1.875000e+01
1.875000e+01
1.875000e+01
1.875000e+01
1.875000e+01
1.875000e+01
1.875000e+01
1.875000e+01
1.875000e+01
1.875000e+01
2.500000e+01
2.500000e+01
2.500000e+01
2.500000e+01
2.500000e+01
2.500000e+01
2.500000e+01
2.500000e+01
2.500000e+01
2.500000e+01
2.500000e+01
2.500000e+01
2.500000e+01
2.500000e+01
2.500000e+01
2.500000e+01
2.500000e+01
2.500000e+01
2.500000e+01
2.500000e+01
2.500000e+01
2.500000e+01
2.500000e+01
2.500000e+01
2.500000e+01
2.500000e+01
2.500000e+01
2.500000e+01
2.500000e+01
2.500000e+01
2.500000e+01
2.500000e+01
2.500000e+01
3.125000e+01
3.125000e+01
3.125000e+01
3.125000e+01
3.125000e+01
3.125000e+01
3.125000e+01
3.125000e+01
3.125000e+01
3.125000e+01
3.125000e+01
3.125000e+01
3.125000e+01
3.125000e+01
3.125000e+01
3.125000e+01
3.125000e+01
3.125000e+01
3.125000e+01
3.125000e+01
3.125000e+01
3.125000e+01
3.125000e+01
3.125000e+01
3.125000e+01
3.125000e+01
3.125000e+01
3.125000e+01
3.125000e+01
3.125000e+01
3.125000e+01
3.125000e+01
3.125000e+01
3.750000e+01
3.750000e+01
3.750000e+01
3.750000e+01
3.750000e+01
3.750000e+01
3.750000e+01
3.750000e+01
3.750000e+01
3.750000e+01
3.750000e+01
3.750000e+01
3.750000e+01
3.750000e+01
3.750000e+01
3.750000e+01
3.750000e+01
3.750000e+01
3.750000e+01
3.750000e+01
3.750000e+01
3.750000e+01
3.750000e+01
3.750000e+01
3.750000e+01
3.750000e+01
3.750000e+01
3.750000e+01
3.750000e+01
3.750000e+01
3.750000e+01
3.750000e+01
3.750000e+01
4.375000e+01
4.375000e+01
4.375000e+01
4.375000e+01
4.375000e+01
4.375000e+01
4.375000e+01
4.375000e+01
4.375000e+01
4.375000e+01
4.375000e+01
4.375000e+01
4.375000e+01
4.375000e+01
4.375000e+01
4.375000e+01
4.375000e+01
4.375000e+01
4.375000e+01
4.375000e+01
4.375000e+01
4.375000e+01
4.375000e+01
4.375000e+01
4.375000e+01
4.375000e+01
4.375000e+01
4.375000e+01
4.375000e+01
4.375000e+01
4.375000e+01
4.375000e+01
4.375000e+01
5.000000e+01
5.000000e+01
5.000000e+01
5.000000e+01
5.000000e+01
5.000000e+01
5.000000e+01
5.000000e+01
5.000000e+01
5.000000e+01
5.000000e+01
5.000000e+01
5.000000e+01
5.000000e+01
5.000000e+01
5.000000e+01
5.000000e+01
5.000000e+01
5.000000e+01
5.000000e+01
5.000000e+01
5.000000e+01
5.000000e+01
5.000000e+01
5.000000e+01
5.000000e+01
5.000000e+01
5.000000e+01
5.000000e+01
5.000000e+01
5.000000e+01
5.000000e+01
5.000000e+01
5.625000e+01
5.625000e+01
5.625000e+01
5.625000e+01
5.625000e+01
5.625000e+01
5.625000e+01
5.625000e+01
5.625000e+01
5.625000e+01
5.625000e+01
5.625000e+01
5.625000e+01
5.625000e+01
5.625000e+01
5.625000e+01
5.625000e+01
5.625000e+01
5.625000e+01
5.625000e+01
5.625000e+01
5.625000e+01
5.625000e+01
5.625000e+01
5.625000e+01
5.625000e+01
5.625000e+01
5.625000e+01
5.625000e+01
5.625000e+01
5.625000e+01
5.625000e+01
5.625000e+01
6.250000e+01
6.250000e+01
6.250000e+01
6.250000e+01
6.250000e+01
6.250000e+01
6.250000e+01
6.250000e+01
6.250000e+01
6.250000e+01
6.250000e+01
6.250000e+01
6.250000e+01
6.250000e+01
6.250000e+01
6.250000e+01
6.250000e+01
6.250000e+01
6.250000e+01
6.250000e+01
6.250000e+01
6.250000e+01
6.250000e+01
6.250000e+01
6.250000e+01
6.250000e+01
6.250000e+01
6.250000e+01
6.250000e+01
6.250000e+01
6.250000e+01
6.250000e+01
6.250000e+01
6.875000e+01
6.875000e+01
6.875000e+01
6.875000e+01
6.875000e+01
6.875000e+01
6.875000e+01
6.875000e+01
6.875000e+01
6.875000e+01
6.875000e+01
6.875000e+01
6.875000e+01
6.875000e+01
6.875000e+01
6.875000e+01
6.875000e+01
6.875000e+01
6.875000e+01
6.875000e+01
6.875000e+01
6.875000e+01
6.875000e+01
6.875000e+01
6.875000e+01
6.875000e+01
6.875000e+01
6.875000e+01
6.875000e+01
6.875000e+01
6.875000e+01
6.875000e+01
6.875000e+01
7.500000e+01
7.500000e+01
7.500000e+01
7.500000e+01
7.500000e+01
7.500000e+01
7.500000e+01
7.500000e+01
7.500000e+01
7.500000e+01
7.500000e+01
7.500000e+01
7.500000e+01
7.500000e+01
7.500000e+01
7.500000e+01
7.500000e+01
7.500000e+01
7.500000e+01
7.500000e+01
7.500000e+01
7.500000e+01
7.500000e+01
7.500000e+01
7.500000e+01
7.500000e+01
7.500000e+01
7.500000e+01
7.500000e+01
7.500000e+01
7.500000e+01
7.500000e+01
7.500000e+01
8.125000e+01
8.125000e+01
8.125000e+01
8.125000e+01
8.125000e+01
8.125000e+01
8.125000e+01
8.125000e+01
8.125000e+01
8.125000e+01
8.125000e+01
8.125000e+01
8.125000e+01
8.125000e+01
8.125000e+01
8.125000e+01
8.125000e+01
8.125000e+01
8.125000e+01
8.125000e+01
8.125000e+01
8.125000e+01
8.125000e+01
8.125000e+01
8.125000e+01
8.125000e+01
8.125000e+01
8.125000e+01
8.125000e+01
8.125000e+01
8.125000e+01
8.125000e+01
8.125000e+01
8.750000e+01
8.750000e+01
8.750000e+01
8.750000e+01
8.750000e+01
8.750000e+01
8.750000e+01
8.750000e+01
8.750000e+01
8.750000e+01
8.750000e+01
8.750000e+01
8.750000e+01
8.750000e+01
8.750000e+01
8.750000e+01
8.750000e+01
8.750000e+01
8.750000e+01
8.750000e+01
8.750000e+01
8.750000e+01
8.750000e+01
8.750000e+01
8.750000e+01
8.750000e+01
8.750000e+01
8.750000e+01
8.750000e+01
8.750000e+01
8.750000e+01
8.750000e+01
8.750000e+01
9.375000e+01
9.375000e+01
9.375000e+01
9.375000e+01
9.375000e+01
9.375000e+01
9.375000e+01
9.375000e+01
9.375000e+01
9.375000e+01
9.375000e+01
9.375000e+01
9.375000e+01
9.375000e+01
9.375000e+01
9.375000e+01
9.375000e+01
9.375000e+01
9.375000e+01
9.375000e+01
9.375000e+01
9.375000e+01
9.375000e+01
9.375000e+01
9.375000e+01
9.375000e+01
9.375000e+01
9.375000e+01
9.375000e+01
9.375000e+01
9.375000e+01
9.375000e+01
9.375000e+01
1.000000e+02
1.000000e+02
1.000000e+02
1.000000e+02
1.000000e+02
1.000000e+02
1.000000e+02
1.000000e+02
1.000000e+02
1.000000e+02
1.000000e+02
1.000000e+02
1.000000e+02
1.000000e+02
1.000000e+02
1.000000e+02
1.000000e+02
1.000000e+02
1.000000e+02
1.000000e+02
1.000000e+02
1.000000e+02
1.000000e+02
1.000000e+02
1.000000e+02
1.000000e+02
1.000000e+02
1.000000e+02
1.000000e+02
1.000000e+02
1.000000e+02
1.000000e+02
1.000000e+02
0.000000e+00
-3.974402e-02
-7.211025e-02
-1.020930e-01
-1.308680e-01
-1.586546e-01
-1.855086e-01
-2.114276e-01
-2.363954e-01
-2.603937e-01
-2.834076e-01
-3.054266e-01
-3.264453e-01
-3.464634e-01
-3.654854e-01
-3.835216e-01
-4.005879e-01
-4.167078e-01
-4.319139e-01
-4.462497e-01
-4.597737e-01
-4.725628e-01
-4.847190e-01
-4.963775e-01
-5.077193e-01
-5.189905e-01
-5.305329e-01
-5.428340e-01
-5.566088e-01
-5.729096e-01
-5.931015e-01
-6.171646e-01
-6.318500e-01
0.000000e+00
-2.664730e-02
-5.544257e-02
-8.259271e-02
-1.083979e-01
-1.331037e-01
-1.568409e-01
-1.796664e-01
-2.016031e-01
-2.226583e-01
-2.428335e-01
-2.621286e-01
-2.805446e-01
-2.980844e-01
-3.147539e-01
-3.305624e-01
-3.455232e-01
-3.596549e-01
-3.729820e-01
-3.855362e-01
-3.973582e-01
-4.084990e-01
-4.190222e-01
-4.290053e-01
-4.385412e-01
-4.477367e-01
-4.567043e-01
-4.655368e-01
-4.742337e-01
-4.825119e-01
-4.894100e-01
-4.934429e-01
-4.990574e-01
0.000000e+00
-2.113670e-02
-4.351499e-02
-6.629964e-02
-8.843926e-02
-1.097630e-01
-1.302572e-01
-1.499413e-01
-1.688328e-01
-1.869434e-01
-2.042810e-01
-2.208509e-01
-2.366577e-01
-2.517060e-01
-2.660015e-01
-2.795511e-01
-2.923636e-01
-3.044500e-01
-3.158239e-01
-3.265016e-01
-3.365016e-01
-3.458444e-01
-3.545496e-01
-3.626329e-01
-3.700973e-01
-3.769190e-01
-3.830198e-01
-3.882204e-01
-3.921688e-01
-3.942949e-01
-3.941085e-01
-3.929146e-01
-3.994709e-01
0.000000e+00
-1.677010e-02
-3.446638e-02
-5.264709e-02
-7.078520e-02
-8.848396e-02
-1.055918e-01
-1.220544e-01
-1.378570e-01
-1.529989e-01
-1.674841e-01
-1.813174e-01
-1.945035e-01
-2.070465e-01
-2.189501e-01
-2.302177e-01
-2.408524e-01
-2.508569e-01
-2.602333e-01
-2.689820e-01
-2.771009e-01
-2.845825e-01
-2.914102e-01
-2.975523e-01
-3.029520e-01
-3.075140e-01
-3.110874e-01
-3.134538e-01
-3.143573e-01
-3.136865e-01
-3.120575e-01
-3.119602e-01
-3.182067e-01
0.000000e+00
-1.301594e-02
-2.665220e-02
-4.072407e-02
-5.491026e-02
-6.892245e-02
-8.256732e-02
-9.574696e-02
-1.084169e-01
-1.205600e-01
-1.321717e-01
-1.432528e-01
-1.538053e-01
-1.638308e-01
-1.733303e-01
-1.823026e-01
-1.907451e-01
-1.986528e-01
-2.060173e-01
-2.128263e-01
-2.190617e-01
-2.246967e-01
-2.296927e-01
-2.339949e-01
-2.375273e-01
-2.401899e-01
-2.418654e-01
-2.424532e-01
-2.419710e-01
-2.407911e-01
-2.400257e-01
-2.417933e-01
-2.471218e-01
0.000000e+00
-9.565957e-03
-1.954176e-02
-2.983805e-02
-4.027692e-02
-5.066352e-02
-6.084314e-02
-7.071524e-02
-8.022462e-02
-8.934444e-02
-9.806339e-02
-1.063775e-01
-1.142853e-01
-1.217853e-01
-1.288749e-01
-1.355489e-01
-1.417993e-01
-1.476149e-01
-1.529797e-01
-1.578730e-01
-1.622670e-01
-1.661262e-01
-1.694054e-01
-1.720497e-01
-1.739964e-01
-1.751841e-01
-1.755782e-01
-1.752245e-01
-1.743529e-01
-1.735237e-01
-1.737256e-01
-1.759789e-01
-1.803879e-01
0.000000e+00
-6.295550e-03
-1.284012e-02
-1.959230e-02
-2.645580e-02
-3.331510e-02
-4.006676e-02
-4.663536e-02
-5.297372e-02
-5.905581e-02
-6.486847e-02
-7.040508e-02
-7.566140e-02
-8.063306e-02
-8.531405e-02
-8.969582e-02
-9.376655e-02
-9.751058e-02
-1.009078e-01
-1.039333e-01
-1.065565e-01
-1.087420e-01
-1.104500e-01
-1.116402e-01
-1.122798e-01
-1.123591e-01
-1.119218e-01
-1.111127e-01
-1.102396e-01
-1.098164e-01
-1.104767e-01
-1.126706e-01
-1.162296e-01
0.000000e+00
-3.126998e-03
-6.372214e-03
-9.718969e-03
-1.312500e-02
-1.653649e-02
-1.990234e-02
-2.318259e-02
-2.635019e-02
-2.938867e-02
-3.228823e-02
-3.504242e-02
-3.764559e-02
-4.009128e-02
-4.237118e-02
-4.447431e-02
-4.638659e-02
-4.809035e-02
-4.956417e-02
-5.078296e-02
-5.171854e-02
-5.234129e-02
-5.262339e-02
-5.254493e-02
-5.210435e-02
-5.133529e-02
-5.033080e-02
-4.927241e-02
-4.845078e-02
-4.824496e-02
-4.901968e-02
-5.093353e-02
-5.375752e-02
0.000000e+00
-5.045097e-06
-1.093921e-05
-1.735581e-05
-2.395739e-05
-3.028887e-05
-3.566440e-05
-3.904177e-05
-3.887556e-05
-3.294042e-05
-1.811773e-05
9.858170e-06
5.669363e-05
1.298630e-04
2.389536e-04
3.959990e-04
6.157479e-04
9.157869e-04
1.316384e-03
1.839851e-03
2.509128e-03
3.345153e-03
4.362429e-03
5.562060e-03
6.921572e-03
8.381412e-03
9.829812e-03
1.109171e-02
1.193407e-02
1.210490e-02
1.141707e-02
9.859351e-03
7.677684e-03
0.000000e+00
3.117495e-03
6.351568e-03
9.686147e-03
1.307958e-02
1.647891e-02
1.983429e-02
2.310770e-02
2.627499e-02
2.932383e-02
3.225029e-02
3.505590e-02
3.774575e-02
4.032747e-02
4.281081e-02
4.520758e-02
4.753160e-02
4.979867e-02
5.202607e-02
5.423160e-02
5.643173e-02
5.863859e-02
6.085532e-02
6.306961e-02
6.524548e-02
6.731424e-02
6.916763e-02
7.065831e-02
7.161611e-02
7.188728e-02
7.139617e-02
7.021285e-02
6.859362e-02
0.000000e+00
6.287787e-03
1.282313e-02
1.956510e-02
2.641788e-02
3.326658e-02
4.000874e-02
4.657049e-02
5.290695e-02
5.899541e-02
6.482744e-02
7.040290e-02
7.572632e-02
8.080485e-02
8.564742e-02
9.026433e-02
9.466715e-02
9.886844e-02
1.028812e-01
1.067179e-01
1.103885e-01
1.138977e-01
1.172406e-01
1.203979e-01
1.233300e-01
1.259720e-01
1.282317e-01
1.299967e-01
1.311519e-01
1.316138e-01
1.313763e-01
1.305575e-01
1.294274e-01
0.000000e+00
9.561006e-03
1.953072e-02
2.982008e-02
4.025141e-02
5.063022e-02
6.080240e-02
7.066834e-02
8.017429e-02
8.929549e-02
9.802362e-02
1.063589e-01
1.143055e-01
1.218697e-01
1.290587e-01
1.358799e-01
1.423415e-01
1.484516e-01
1.542182e-01
1.596478e-01
1.647443e-01
1.695064e-01
1.739250e-01
1.779792e-01
1.816331e-01
1.848337e-01
1.875121e-01
1.895907e-01
1.910004e-01
1.917067e-01
1.917465e-01
1.912661e-01
1.905519e-01
0.000000e+00
1.301471e-02
2.664913e-02
4.071856e-02
5.490175e-02
6.891045e-02
8.255152e-02
9.572734e-02
1.083938e-01
1.205345e-01
1.321458e-01
1.432298e-01
1.537904e-01
1.638320e-01
1.733590e-01
1.823751e-01
1.908838e-01
1.988878e-01
2.063891e-01
2.133880e-01
2.198825e-01
2.258665e-01
2.313286e-01
2.362498e-01
2.406026e-01
2.443503e-01
2.474502e-01
2.498593e-01
2.515477e-01
2.525177e-01
2.528324e-01
2.526520e-01
2.522758e-01
0.000000e+00
1.677321e-02
3.447271e-02
5.265651e-02
7.079744e-02
8.849868e-02
1.056085e-01
1.220722e-01
1.378745e-01
1.530141e-01
1.674936e-01
1.813164e-01
1.944851e-01
2.070012e-01
2.188648e-01
2.300751e-01
2.406298e-01
2.505256e-01
2.597576e-01
2.683191e-01
2.762017e-01
2.833942e-01
2.898831e-01
2.956519e-01
3.006822e-01
3.049553e-01
3.084551e-01
3.111736e-01
3.131193e-01
3.143284e-01
3.148846e-01
3.149509e-01
3.148261e-01
0.000000e+00
2.114431e-02
4.353122e-02
6.632506e-02
8.847436e-02
1.098082e-01
1.303126e-01
1.500062e-01
1.689054e-01
1.870200e-01
2.043549e-01
2.209116e-01
2.366889e-01
2.516838e-01
2.658916e-01
2.793060e-01
2.919185e-01
3.037190e-01
3.146950e-01
3.248318e-01
3.341128e-01
3.425200e-01
3.500350e-01
3.566410e-01
3.623256e-01
3.670844e-01
3.709259e-01
3.738774e-01
3.759896e-01
3.773425e-01
3.780507e-01
3.782813e-01
3.783088e-01
0.000000e+00
2.665871e-02
5.546752e-02
8.263283e-02
1.084551e-01
1.331801e-01
1.569380e-01
1.797853e-01
2.017432e-01
2.228169e-01
2.430039e-01
2.622988e-01
2.806942e-01
2.981817e-01
3.147514e-01
3.303915e-01
3.450877e-01
3.588227e-01
3.715760e-01
3.833234e-01
3.940379e-01
4.036905e-01
4.122529e-01
4.197004e-01
4.260176e-01
4.312049e-01
4.352867e-01
4.383205e-01
4.404046e-01
4.416815e-01
4.423340e-01
4.425705e-01
4.426284e-01
0.000000e+00
3.975652e-02
7.213941e-02
1.021429e-01
1.309427e-01
1.587582e-01
1.856454e-01
2.116016e-01
2.366097e-01
2.606496e-01
2.837029e-01
3.057535e-01
3.267872e-01
3.467906e-01
3.657498e-01
3.836489e-01
4.004689e-01
4.161864e-01
4.307726e-01
4.441929e-01
4.564070e-01
4.673699e-01
4.770346e-01
4.853568e-01
4.923020e-01
4.978563e-01
5.020395e-01
5.049212e-01
5.066389e-01
5.074128e-01
5.075535e-01
5.074370e-01
5.073714e-01
0.000000e+00
-2.456105e-02
-4.286433e-02
-6.283761e-02
-8.507905e-02
-1.102030e-01
-1.383840e-01
-1.696711e-01
-2.040330e-01
-2.413963e-01
-2.816617e-01
-3.247154e-01
-3.704346e-01
-4.186913e-01
-4.693549e-01
-5.222942e-01
-5.773783e-01
-6.344791e-01
-6.934724e-01
-7.542414e-01
-8.166804e-01
-8.807005e-01
-9.462379e-01
-1.013267e+00
-1.081823e+00
-1.152030e+00
-1.224170e+00
-1.298785e+00
-1.376918e+00
-1.460632e+00
-1.554376e+00
-1.668650e+00
-1.826522e+00
0.000000e+00
-1.526376e-02
-3.442246e-02
-5.453048e-02
-7.708193e-02
-1.024788e-01
-1.309337e-01
-1.624946e-01
-1.971331e-01
-2.347756e-01
-2.753225e-01
-3.186589e-01
-3.646609e-01
-4.131995e-01
-4.641430e-01
-5.173587e-01
-5.727143e-01
-6.300795e-01
-6.893279e-01
-7.503399e-01
-8.130058e-01
-8.772322e-01
-9.429497e-01
-1.010126e+00
-1.078785e+00
-1.149041e+00
-1.221161e+00
-1.295671e+00
-1.373591e+00
-1.456950e+00
-1.549970e+00
-1.661700e+00
-1.809193e+00
0.000000e+00
-1.121211e-02
-2.775123e-02
-4.758494e-02
-7.017579e-02
-9.575982e-02
-1.244392e-01
-1.562407e-01
-1.911259e-01
-2.290178e-01
-2.698150e-01
-3.134019e-01
-3.596539e-01
-4.084415e-01
-4.596327e-01
-5.130940e-01
-5.686928e-01
-6.262978e-01
-6.857819e-01
-7.470243e-01
-8.099146e-01
-8.743586e-01
-9.402867e-01
-1.007667e+00
-1.076527e+00
-1.146989e+00
-1.219328e+00
-1.294086e+00
-1.372271e+00
-1.455708e+00
-1.547517e+00
-1.651387e+00
-1.766609e+00
0.000000e+00
-8.978180e-03
-2.349969e-02
-4.227577e-02
-6.457630e-02
-9.015237e-02
-1.189545e-01
-1.509341e-01
-1.860224e-01
-2.241279e-01
-2.651431e-01
-3.089493e-01
-3.554210e-01
-4.044284e-01
-4.558395e-01
-5.095214e-01
-5.653416e-01
-6.231696e-01
-6.828789e-01
-7.443497e-01
-8.074730e-01
-8.721569e-01
-9.383351e-01
-1.005981e+00
-1.075129e+00
-1.145906e+00
-1.218587e+00
-1.293668e+00
-1.371976e+00
-1.454713e+00
-1.543031e+00
-1.636180e+00
-1.722891e+00
0.000000e+00
-7.597017e-03
-2.071934e-02
-3.850563e-02
-6.029780e-02
-8.570619e-02
-1.145191e-01
-1.466027e-01
-1.818409e-01
-2.201185e-01
-2.613160e-01
-3.053091e-01
-3.519702e-01
-4.011690e-01
-4.527741e-01
-5.066534e-01
-5.626758e-01
-6.207123e-01
-6.806380e-01
-7.423353e-01
-8.056975e-01
-8.706356e-01
-9.370860e-01
-1.005024e+00
-1.074481e+00
-1.145570e+00
-1.218512e+00
-1.293667e+00
-1.371509e+00
-1.452420e+00
-1.536015e+00
-1.619223e+00
-1.694739e+00
0.000000e+00
-6.718170e-03
-1.889508e-02
-3.591119e-02
-5.721280e-02
-8.238319e-02
-1.111335e-01
-1.432581e-01
-1.785950e-01
-2.170016e-01
-2.583435e-01
-3.024892e-01
-3.493078e-01
-3.986686e-01
-4.504407e-01
-5.044935e-01
-5.606974e-01
-6.189254e-01
-6.790547e-01
-7.409693e-01
-8.045643e-01
-8.697511e-01
-9.364643e-01
-1.004672e+00
-1.074385e+00
-1.145673e+00
-1.218659e+00
-1.293502e+00
-1.370288e+00
-1.448759e+00
-1.527718e+00
-1.604345e+00
-1.674382e+00
0.000000e+00
-6.171977e-03
-1.774169e-02
-3.422474e-02
-5.514608e-02
-8.009957e-02
-1.087645e-01
-1.408931e-01
-1.762883e-01
-2.147842e-01
-2.562326e-01
-3.004948e-01
-3.474371e-01
-3.969281e-01
-4.488376e-01
-5.030365e-01
-5.593971e-01
-6.177940e-01
-6.781058e-01
-7.402174e-01
-8.040229e-01
-8.694301e-01
-9.363649e-01
-1.004777e+00
-1.074642e+00
-1.145963e+00
-1.218744e+00
-1.292945e+00
-1.368352e+00
-1.444350e+00
-1.519625e+00
-1.592007e+00
-1.658835e+00
0.000000e+00
-5.871835e-03
-1.710170e-02
-3.327439e-02
-5.396100e-02
-7.876938e-02
-1.073685e-01
-1.394901e-01
-1.749168e-01
-2.134679e-01
-2.549860e-01
-2.993278e-01
-3.463574e-01
-3.959436e-01
-4.479572e-01
-5.022704e-01
-5.587570e-01
-6.172929e-01
-6.777570e-01
-7.400329e-01
-8.040110e-01
-8.695910e-01
-9.366835e-01
-1.005211e+00
-1.075105e+00
-1.146294e+00
-1.218673e+00
-1.292043e+00
-1.366015e+00
-1.439860e+00
-1.512392e+00
-1.581979e+00
-1.646806e+00
0.000000e+00
-5.775131e-03
-1.689523e-02
-3.296638e-02
-5.357476e-02
-7.833403e-02
-1.069112e-01
-1.390323e-01
-1.744739e-01
-2.130509e-01
-2.546030e-01
-2.989860e-01
-3.460644e-01
-3.957076e-01
-4.477876e-01
-5.021783e-01
-5.587542e-01
-6.173917e-01
-6.779687e-01
-7.403658e-01
-8.044669e-01
-8.701597e-01
-9.373354e-01
-1.005885e+00
-1.075694e+00
-1.146622e+00
-1.218477e+00
-1.290963e+00
-1.363611e+00
-1.435706e+00
-1.506245e+00
-1.573982e+00
-1.637587e+00
0.000000e+00
-5.869038e-03
-1.709782e-02
-3.327105e-02
-5.395999e-02
-7.877292e-02
-1.073796e-01
-1.395125e-01
-1.749557e-01
-2.135301e-01
-2.550802e-01
-2.994648e-01
-3.465508e-01
-3.962096e-01
-4.483148e-01
-5.027411e-01
-5.593639e-01
-6.180589e-01
-6.787022e-01
-7.411696e-01
-8.053368e-01
-8.710775e-01
-9.382616e-01
-1.006749e+00
-1.076382e+00
-1.146966e+00
-1.218249e+00
-1.289884e+00
-1.361389e+00
-1.432111e+00
-1.501224e+00
-1.567764e+00
-1.630716e+00
0.000000e+00
-6.166609e-03
-1.773424e-02
-3.421830e-02
-5.514406e-02
-8.010623e-02
-1.087855e-01
-1.409358e-01
-1.763627e-01
-2.149032e-01
-2.564128e-01
-3.007573e-01
-3.478077e-01
-3.974381e-01
-4.495236e-01
-5.039399e-01
-5.605625e-01
-6.192659e-01
-6.799234e-01
-7.424056e-01
-8.065790e-01
-8.723033e-01
-9.394277e-01
-1.007784e+00
-1.077179e+00
-1.147380e+00
-1.218096e+00
-1.288960e+00
-1.359510e+00
-1.429175e+00
-1.497286e+00
-1.563101e+00
-1.625839e+00
0.000000e+00
-6.710709e-03
-1.888472e-02
-3.590219e-02
-5.720989e-02
-8.239231e-02
-1.111625e-01
-1.433174e-01
-1.786985e-01
-2.171675e-01
-2.585950e-01
-3.028558e-01
-3.498258e-01
-3.993819e-01
-4.514007e-01
-5.057584e-01
-5.623301e-01
-6.209891e-01
-6.816056e-01
-7.440447e-01
-8.081645e-01
-8.738117e-01
-9.408177e-01
-1.008992e+00
-1.078113e+00
-1.147921e+00
-1.218106e+00
-1.288298e+00
-1.358067e+00
-1.426927e+00
-1.494346e+00
-1.559774e+00
-1.622642e+00
0.000000e+00
-7.588228e-03
-2.070715e-02
-3.849503e-02
-6.029443e-02
-8.571723e-02
-1.145541e-01
-1.466743e-01
-1.819659e-01
-2.203189e-01
-2.616200e-01
-3.057523e-01
-3.525966e-01
-4.020318e-01
-4.539357e-01
-5.081845e-01
-5.646528e-01
-6.232125e-01
-6.837309e-01
-7.460684e-01
-8.100758e-01
-8.755896e-01
-9.424272e-01
-1.010381e+00
-1.079210e+00
-1.148638e+00
-1.218343e+00
-1.287964e+00
-1.357103e+00
-1.425349e+00
-1.492295e+00
-1.557565e+00
-1.620812e+00
0.000000e+00
-8.969147e-03
-2.348718e-02
-4.226499e-02
-6.457340e-02
-9.016534e-02
-1.189939e-01
-1.510140e-01
-1.861614e-01
-2.243503e-01
-2.654801e-01
-3.094401e-01
-3.561142e-01
-4.053826e-01
-4.571233e-01
-5.112127e-01
-5.675245e-01
-6.259292e-01
-6.862917e-01
-7.484691e-01
-8.123067e-01
-8.776337e-01
-9.442580e-01
-1.011960e+00
-1.080489e+00
-1.149557e+00
-1.218839e+00
-1.287982e+00
-1.356617e+00
-1.424392e+00
-1.491004e+00
-1.556247e+00
-1.620015e+00
0.000000e+00
-1.120424e-02
-2.774027e-02
-4.757584e-02
-7.017493e-02
-9.577560e-02
-1.244828e-01
-1.563267e-01
-1.912737e-01
-2.292524e-01
-2.701688e-01
-3.139153e-01
-3.603768e-01
-4.094340e-01
-4.609650e-01
-5.148453e-01
-5.709481e-01
-6.291426e-01
-6.892921e-01
-7.512512e-01
-8.148619e-01
-8.799492e-01
-9.463157e-01
-1.013736e+00
-1.081955e+00
-1.150679e+00
-1.219586e+00
-1.288329e+00
-1.356563e+00
-1.423973e+00
-1.490335e+00
-1.555584e+00
-1.619875e+00
0.000000e+00
-1.525870e-02
-3.441501e-02
-5.452513e-02
-7.708525e-02
-1.024994e-01
-1.309827e-01
-1.625868e-01
-1.972879e-01
-2.350178e-01
-2.756838e-01
-3.191791e-01
-3.653887e-01
-4.141930e-01
-4.654695e-01
-5.190935e-01
-5.749370e-01
-6.328684e-01
-6.927494e-01
-7.544332e-01
-8.177598e-01
-8.825524e-01
-9.486118e-01
-1.015712e+00
-1.083596e+00
-1.151974e+00
-1.220529e+00
-1.288924e+00
-1.356828e+00
-1.423953e+00
-1.490118e+00
-1.555344e+00
-1.619994e+00
0.000000e+00
-2.456033e-02
-4.286184e-02
-6.283809e-02
-8.508909e-02
-1.102312e-01
-1.384416e-01
-1.697727e-01
-2.041976e-01
-2.416480e-01
-2.820311e-01
-3.252404e-01
-3.711609e-01
-4.196730e-01
-4.706539e-01
-5.239778e-01
-5.795161e-01
-6.371355e-01
-6.966967e-01
-7.580509e-01
-8.210369e-01
-8.854768e-01
-9.511712e-01