TITLE = "Solution"
VARIABLES = x, y, u, v, psiu, psiv, t, stress
ZONE T="structure" N=561 E=512 F=FEBLOCK ET=QUADRILATERAL VARLOCATION=([7,8]=cellcentered)
0.000000e+00
6.250000e+00
1.250000e+01
1.875000e+01
2.500000e+01
3.125000e+01
3.750000e+01
4.375000e+01
5.000000e+01
5.625000e+01
6.250000e+01
6.875000e+01
7.500000e+01
8.125000e+01
8.750000e+01
9.375000e+01
1.000000e+02
1.062500e+02
1.125000e+02
1.187500e+02
1.250000e+02
1.312500e+02
1.375000e+02
1.437500e+02
1.500000e+02
1.562500e+02
1.625000e+02
1.687500e+02
1.750000e+02
1.812500e+02
1.875000e+02
1.937500e+02
2.000000e+02
0.000000e+00
6.250000e+00
1.250000e+01
1.875000e+01
2.500000e+01
3.125000e+01
3.750000e+01
4.375000e+01
5.000000e+01
5.625000e+01
6.250000e+01
6.875000e+01
7.500000e+01
8.125000e+01
8.750000e+01
9.375000e+01
1.000000e+02
1.062500e+02
1.125000e+02
1.187500e+02
1.250000e+02
1.312500e+02
1.375000e+02
1.437500e+02
1.500000e+02
1.562500e+02
1.625000e+02
1.687500e+02
1.750000e+02
1.812500e+02
1.875000e+02
1.937500e+02
2.000000e+02
0.000000e+00
6.250000e+00
1.250000e+01
1.875000e+01
2.500000e+01
3.125000e+01
3.750000e+01
4.375000e+01
5.000000e+01
5.625000e+01
6.250000e+01
6.875000e+01
7.500000e+01
8.125000e+01
8.750000e+01
9.375000e+01
1.000000e+02
1.062500e+02
1.125000e+02
1.187500e+02
1.250000e+02
1.312500e+02
1.375000e+02
1.437500e+02
1.500000e+02
1.562500e+02
1.625000e+02
1.687500e+02
1.750000e+02
1.812500e+02
1.875000e+02
1.937500e+02
2.000000e+02
0.000000e+00
6.250000e+00
1.250000e+01
1.875000e+01
2.500000e+01
3.125000e+01
3.750000e+01
4.375000e+01
5.000000e+01
5.625000e+01
6.250000e+01
6.875000e+01
7.500000e+01
8.125000e+01
8.750000e+01
9.375000e+01
1.000000e+02
1.062500e+02
1.125000e+02
1.187500e+02
1.250000e+02
1.312500e+02
1.375000e+02
1.437500e+02
1.500000e+02
1.562500e+02
1.625000e+02
1.687500e+02
1.750000e+02
1.812500e+02
1.875000e+02
1.937500e+02
2.000000e+02
0.000000e+00
6.250000e+00
1.250000e+01
1.875000e+01
2.500000e+01
3.125000e+01
3.750000e+01
4.375000e+01
5.000000e+01
5.625000e+01
6.250000e+01
6.875000e+01
7.500000e+01
8.125000e+01
8.750000e+01
9.375000e+01
1.000000e+02
1.062500e+02
1.125000e+02
1.187500e+02
1.250000e+02
1.312500e+02
1.375000e+02
1.437500e+02
1.500000e+02
1.562500e+02
1.625000e+02
1.687500e+02
1.750000e+02
1.812500e+02
1.875000e+02
1.937500e+02
2.000000e+02
0.000000e+00
6.250000e+00
1.250000e+01
1.875000e+01
2.500000e+01
3.125000e+01
3.750000e+01
4.375000e+01
5.000000e+01
5.625000e+01
6.250000e+01
6.875000e+01
7.500000e+01
8.125000e+01
8.750000e+01
9.375000e+01
1.000000e+02
1.062500e+02
1.125000e+02
1.187500e+02
1.250000e+02
1.312500e+02
1.375000e+02
1.437500e+02
1.500000e+02
1.562500e+02
1.625000e+02
1.687500e+02
1.750000e+02
1.812500e+02
1.875000e+02
1.937500e+02
2.000000e+02
0.000000e+00
6.250000e+00
1.250000e+01
1.875000e+01
2.500000e+01
3.125000e+01
3.750000e+01
4.375000e+01
5.000000e+01
5.625000e+01
6.250000e+01
6.875000e+01
7.500000e+01
8.125000e+01
8.750000e+01
9.375000e+01
1.000000e+02
1.062500e+02
1.125000e+02
1.187500e+02
1.250000e+02
1.312500e+02
1.375000e+02
1.437500e+02
1.500000e+02
1.562500e+02
1.625000e+02
1.687500e+02
1.750000e+02
1.812500e+02
1.875000e+02
1.937500e+02
2.000000e+02
0.000000e+00
6.250000e+00
1.250000e+01
1.875000e+01
2.500000e+01
3.125000e+01
3.750000e+01
4.375000e+01
5.000000e+01
5.625000e+01
6.250000e+01
6.875000e+01
7.500000e+01
8.125000e+01
8.750000e+01
9.375000e+01
1.000000e+02
1.062500e+02
1.125000e+02
1.187500e+02
1.250000e+02
1.312500e+02
1.375000e+02
1.437500e+02
1.500000e+02
1.562500e+02
1.625000e+02
1.687500e+02
1.750000e+02
1.812500e+02
1.875000e+02
1.937500e+02
2.000000e+02
0.000000e+00
6.250000e+00
1.250000e+01
1.875000e+01
2.500000e+01
3.125000e+01
3.750000e+01
4.375000e+01
5.000000e+01
5.625000e+01
6.250000e+01
6.875000e+01
7.500000e+01
8.125000e+01
8.750000e+01
9.375000e+01
1.000000e+02
1.062500e+02
1.125000e+02
1.187500e+02
1.250000e+02
1.312500e+02
1.375000e+02
1.437500e+02
1.500000e+02
1.562500e+02
1.625000e+02
1.687500e+02
1.750000e+02
1.812500e+02
1.875000e+02
1.937500e+02
2.000000e+02
0.000000e+00
6.250000e+00
1.250000e+01
1.875000e+01
2.500000e+01
3.125000e+01
3.750000e+01
4.375000e+01
5.000000e+01
5.625000e+01
6.250000e+01
6.875000e+01
7.500000e+01
8.125000e+01
8.750000e+01
9.375000e+01
1.000000e+02
1.062500e+02
1.125000e+02
1.187500e+02
1.250000e+02
1.312500e+02
1.375000e+02
1.437500e+02
1.500000e+02
1.562500e+02
1.625000e+02
1.687500e+02
1.750000e+02
1.812500e+02
1.875000e+02
1.937500e+02
2.000000e+02
0.000000e+00
6.250000e+00
1.250000e+01
1.875000e+01
2.500000e+01
3.125000e+01
3.750000e+01
4.375000e+01
5.000000e+01
5.625000e+01
6.250000e+01
6.875000e+01
7.500000e+01
8.125000e+01
8.750000e+01
9.375000e+01
1.000000e+02
1.062500e+02
1.125000e+02
1.187500e+02
1.250000e+02
1.312500e+02
1.375000e+02
1.437500e+02
1.500000e+02
1.562500e+02
1.625000e+02
1.687500e+02
1.750000e+02
1.812500e+02
1.875000e+02
1.937500e+02
2.000000e+02
0.000000e+00
6.250000e+00
1.250000e+01
1.875000e+01
2.500000e+01
3.125000e+01
3.750000e+01
4.375000e+01
5.000000e+01
5.625000e+01
6.250000e+01
6.875000e+01
7.500000e+01
8.125000e+01
8.750000e+01
9.375000e+01
1.000000e+02
1.062500e+02
1.125000e+02
1.187500e+02
1.250000e+02
1.312500e+02
1.375000e+02
1.437500e+02
1.500000e+02
1.562500e+02
1.625000e+02
1.687500e+02
1.750000e+02
1.812500e+02
1.875000e+02
1.937500e+02
2.000000e+02
0.000000e+00
6.250000e+00
1.250000e+01
1.875000e+01
2.500000e+01
3.125000e+01
3.750000e+01
4.375000e+01
5.000000e+01
5.625000e+01
6.250000e+01
6.875000e+01
7.500000e+01
8.125000e+01
8.750000e+01
9.375000e+01
1.000000e+02
1.062500e+02
1.125000e+02
1.187500e+02
1.250000e+02
1.312500e+02
1.375000e+02
1.437500e+02
1.500000e+02
1.562500e+02
1.625000e+02
1.687500e+02
1.750000e+02
1.812500e+02
1.875000e+02
1.937500e+02
2.000000e+02
0.000000e+00
6.250000e+00
1.250000e+01
1.875000e+01
2.500000e+01
3.125000e+01
3.750000e+01
4.375000e+01
5.000000e+01
5.625000e+01
6.250000e+01
6.875000e+01
7.500000e+01
8.125000e+01
8.750000e+01
9.375000e+01
1.000000e+02
1.062500e+02
1.125000e+02
1.187500e+02
1.250000e+02
1.312500e+02
1.375000e+02
1.437500e+02
1.500000e+02
1.562500e+02
1.625000e+02
1.687500e+02
1.750000e+02
1.812500e+02
1.875000e+02
1.937500e+02
2.000000e+02
0.000000e+00
6.250000e+00
1.250000e+01
1.875000e+01
2.500000e+01
3.125000e+01
3.750000e+01
4.375000e+01
5.000000e+01
5.625000e+01
6.250000e+01
6.875000e+01
7.500000e+01
8.125000e+01
8.750000e+01
9.375000e+01
1.000000e+02
1.062500e+02
1.125000e+02
1.187500e+02
1.250000e+02
1.312500e+02
1.375000e+02
1.437500e+02
1.500000e+02
1.562500e+02
1.625000e+02
1.687500e+02
1.750000e+02
1.812500e+02
1.875000e+02
1.937500e+02
2.000000e+02
0.000000e+00
6.250000e+00
1.250000e+01
1.875000e+01
2.500000e+01
3.125000e+01
3.750000e+01
4.375000e+01
5.000000e+01
5.625000e+01
6.250000e+01
6.875000e+01
7.500000e+01
8.125000e+01
8.750000e+01
9.375000e+01
1.000000e+02
1.062500e+02
1.125000e+02
1.187500e+02
1.250000e+02
1.312500e+02
1.375000e+02
1.437500e+02
1.500000e+02
1.562500e+02
1.625000e+02
1.687500e+02
1.750000e+02
1.812500e+02
1.875000e+02
1.937500e+02
2.000000e+02
0.000000e+00
6.250000e+00
1.250000e+01
1.875000e+01
2.500000e+01
3.125000e+01
3.750000e+01
4.375000e+01
5.000000e+01
5.625000e+01
6.250000e+01
6.875000e+01
7.500000e+01
8.125000e+01
8.750000e+01
9.375000e+01
1.000000e+02
1.062500e+02
1.125000e+02
1.187500e+02
1.250000e+02
1.312500e+02
1.375000e+02
1.437500e+02
1.500000e+02
1.562500e+02
1.625000e+02
1.687500e+02
1.750000e+02
1.812500e+02
1.875000e+02
1.937500e+02
2.000000e+02
0.000000e+00
0.000000e+00
0.000000e+00
0.000000e+00
0.000000e+00
0.000000e+00
0.000000e+00
0.000000e+00
0.000000e+00
0.000000e+00
0.000000e+00
0.000000e+00
0.000000e+00
0.000000e+00
0.000000e+00
0.000000e+00
0.000000e+00
0.000000e+00
0.000000e+00
0.000000e+00
0.000000e+00
0.000000e+00
0.000000e+00
0.000000e+00
0.000000e+00
0.000000e+00
0.000000e+00
0.000000e+00
0.000000e+00
0.000000e+00
0.000000e+00
0.000000e+00
0.000000e+00
6.250000e+00
6.250000e+00
6.250000e+00
6.250000e+00
6.250000e+00
6.250000e+00
6.250000e+00
6.250000e+00
6.250000e+00
6.250000e+00
6.250000e+00
6.250000e+00
6.250000e+00
6.250000e+00
6.250000e+00
6.250000e+00
6.250000e+00
6.250000e+00
6.250000e+00
6.250000e+00
6.250000e+00
6.250000e+00
6.250000e+00
6.250000e+00
6.250000e+00
6.250000e+00
6.250000e+00
6.250000e+00
6.250000e+00
6.250000e+00
6.250000e+00
6.250000e+00
6.250000e+00
1.250000e+01
1.250000e+01
1.250000e+01
1.250000e+01
1.250000e+01
1.250000e+01
1.250000e+01
1.250000e+01
1.250000e+01
1.250000e+01
1.250000e+01
1.250000e+01
1.250000e+01
1.250000e+01
1.250000e+01
1.250000e+01
1.250000e+01
1.250000e+01
1.250000e+01
1.250000e+01
1.250000e+01
1.250000e+01
1.250000e+01
1.250000e+01
1.250000e+01
1.250000e+01
1.250000e+01
1.250000e+01
1.250000e+01
1.250000e+01
1.250000e+01
1.250000e+01
1.250000e+01
1.875000e+01
1.875000e+01
1.875000e+01
1.875000e+01
1.875000e+01
1.875000e+01
1.875000e+01
1.875000e+01
1.875000e+01
1.875000e+01
1.875000e+01
1.875000e+01
1.875000e+01
1.875000e+01
1.875000e+01
1.875000e+01
1.875000e+01
1.875000e+01
1.875000e+01
1.875000e+01
1.875000e+01
1.875000e+01
1.875000e+01
1.875000e+01
1.875000e+01
1.875000e+01
1.875000e+01
1.875000e+01
1.875000e+01
1.875000e+01
1.875000e+01
1.875000e+01
1.875000e+01
2.500000e+01
2.500000e+01
2.500000e+01
2.500000e+01
2.500000e+01
2.500000e+01
2.500000e+01
2.500000e+01
2.500000e+01
2.500000e+01
2.500000e+01
2.500000e+01
2.500000e+01
2.500000e+01
2.500000e+01
2.500000e+01
2.500000e+01
2.500000e+01
2.500000e+01
2.500000e+01
2.500000e+01
2.500000e+01
2.500000e+01
2.500000e+01
2.500000e+01
2.500000e+01
2.500000e+01
2.500000e+01
2.500000e+01
2.500000e+01
2.500000e+01
2.500000e+01
2.500000e+01
3.125000e+01
3.125000e+01
3.125000e+01
3.125000e+01
3.125000e+01
3.125000e+01
3.125000e+01
3.125000e+01
3.125000e+01
3.125000e+01
3.125000e+01
3.125000e+01
3.125000e+01
3.125000e+01
3.125000e+01
3.125000e+01
3.125000e+01
3.125000e+01
3.125000e+01
3.125000e+01
3.125000e+01
3.125000e+01
3.125000e+01
3.125000e+01
3.125000e+01
3.125000e+01
3.125000e+01
3.125000e+01
3.125000e+01
3.125000e+01
3.125000e+01
3.125000e+01
3.125000e+01
3.750000e+01
3.750000e+01
3.750000e+01
3.750000e+01
3.750000e+01
3.750000e+01
3.750000e+01
3.750000e+01
3.750000e+01
3.750000e+01
3.750000e+01
3.750000e+01
3.750000e+01
3.750000e+01
3.750000e+01
3.750000e+01
3.750000e+01
3.750000e+01
3.750000e+01
3.750000e+01
3.750000e+01
3.750000e+01
3.750000e+01
3.750000e+01
3.750000e+01
3.750000e+01
3.750000e+01
3.750000e+01
3.750000e+01
3.750000e+01
3.750000e+01
3.750000e+01
3.750000e+01
4.375000e+01
4.375000e+01
4.375000e+01
4.375000e+01
4.375000e+01
4.375000e+01
4.375000e+01
4.375000e+01
4.375000e+01
4.375000e+01
4.375000e+01
4.375000e+01
4.375000e+01
4.375000e+01
4.375000e+01
4.375000e+01
4.375000e+01
4.375000e+01
4.375000e+01
4.375000e+01
4.375000e+01
4.375000e+01
4.375000e+01
4.375000e+01
4.375000e+01
4.375000e+01
4.375000e+01
4.375000e+01
4.375000e+01
4.375000e+01
4.375000e+01
4.375000e+01
4.375000e+01
5.000000e+01
5.000000e+01
5.000000e+01
5.000000e+01
5.000000e+01
5.000000e+01
5.000000e+01
5.000000e+01
5.000000e+01
5.000000e+01
5.000000e+01
5.000000e+01
5.000000e+01
5.000000e+01
5.000000e+01
5.000000e+01
5.000000e+01
5.000000e+01
5.000000e+01
5.000000e+01
5.000000e+01
5.000000e+01
5.000000e+01
5.000000e+01
5.000000e+01
5.000000e+01
5.000000e+01
5.000000e+01
5.000000e+01
5.000000e+01
5.000000e+01
5.000000e+01
5.000000e+01
5.625000e+01
5.625000e+01
5.625000e+01
5.625000e+01
5.625000e+01
5.625000e+01
5.625000e+01
5.625000e+01
5.625000e+01
5.625000e+01
5.625000e+01
5.625000e+01
5.625000e+01
5.625000e+01
5.625000e+01
5.625000e+01
5.625000e+01
5.625000e+01
5.625000e+01
5.625000e+01
5.625000e+01
5.625000e+01
5.625000e+01
5.625000e+01
5.625000e+01
5.625000e+01
5.625000e+01
5.625000e+01
5.625000e+01
5.625000e+01
5.625000e+01
5.625000e+01
5.625000e+01
6.250000e+01
6.250000e+01
6.250000e+01
6.250000e+01
6.250000e+01
6.250000e+01
6.250000e+01
6.250000e+01
6.250000e+01
6.250000e+01
6.250000e+01
6.250000e+01
6.250000e+01
6.250000e+01
6.250000e+01
6.250000e+01
6.250000e+01
6.250000e+01
6.250000e+01
6.250000e+01
6.250000e+01
6.250000e+01
6.250000e+01
6.250000e+01
6.250000e+01
6.250000e+01
6.250000e+01
6.250000e+01
6.250000e+01
6.250000e+01
6.250000e+01
6.250000e+01
6.250000e+01
6.875000e+01
6.875000e+01
6.875000e+01
6.875000e+01
6.875000e+01
6.875000e+01
6.875000e+01
6.875000e+01
6.875000e+01
6.875000e+01
6.875000e+01
6.875000e+01
6.875000e+01
6.875000e+01
6.875000e+01
6.875000e+01
6.875000e+01
6.875000e+01
6.875000e+01
6.875000e+01
6.875000e+01
6.875000e+01
6.875000e+01
6.875000e+01
6.875000e+01
6.875000e+01
6.875000e+01
6.875000e+01
6.875000e+01
6.875000e+01
6.875000e+01
6.875000e+01
6.875000e+01
7.500000e+01
7.500000e+01
7.500000e+01
7.500000e+01
7.500000e+01
7.500000e+01
7.500000e+01
7.500000e+01
7.500000e+01
7.500000e+01
7.500000e+01
7.500000e+01
7.500000e+01
7.500000e+01
7.500000e+01
7.500000e+01
7.500000e+01
7.500000e+01
7.500000e+01
7.500000e+01
7.500000e+01
7.500000e+01
7.500000e+01
7.500000e+01
7.500000e+01
7.500000e+01
7.500000e+01
7.500000e+01
7.500000e+01
7.500000e+01
7.500000e+01
7.500000e+01
7.500000e+01
8.125000e+01
8.125000e+01
8.125000e+01
8.125000e+01
8.125000e+01
8.125000e+01
8.125000e+01
8.125000e+01
8.125000e+01
8.125000e+01
8.125000e+01
8.125000e+01
8.125000e+01
8.125000e+01
8.125000e+01
8.125000e+01
8.125000e+01
8.125000e+01
8.125000e+01
8.125000e+01
8.125000e+01
8.125000e+01
8.125000e+01
8.125000e+01
8.125000e+01
8.125000e+01
8.125000e+01
8.125000e+01
8.125000e+01
8.125000e+01
8.125000e+01
8.125000e+01
8.125000e+01
8.750000e+01
8.750000e+01
8.750000e+01
8.750000e+01
8.750000e+01
8.750000e+01
8.750000e+01
8.750000e+01
8.750000e+01
8.750000e+01
8.750000e+01
8.750000e+01
8.750000e+01
8.750000e+01
8.750000e+01
8.750000e+01
8.750000e+01
8.750000e+01
8.750000e+01
8.750000e+01
8.750000e+01
8.750000e+01
8.750000e+01
8.750000e+01
8.750000e+01
8.750000e+01
8.750000e+01
8.750000e+01
8.750000e+01
8.750000e+01
8.750000e+01
8.750000e+01
8.750000e+01
9.375000e+01
9.375000e+01
9.375000e+01
9.375000e+01
9.375000e+01
9.375000e+01
9.375000e+01
9.375000e+01
9.375000e+01
9.375000e+01
9.375000e+01
9.375000e+01
9.375000e+01
9.375000e+01
9.375000e+01
9.375000e+01
9.375000e+01
9.375000e+01
9.375000e+01
9.375000e+01
9.375000e+01
9.375000e+01
9.375000e+01
9.375000e+01
9.375000e+01
9.375000e+01
9.375000e+01
9.375000e+01
9.375000e+01
9.375000e+01
9.375000e+01
9.375000e+01
9.375000e+01
1.000000e+02
1.000000e+02
1.000000e+02
1.000000e+02
1.000000e+02
1.000000e+02
1.000000e+02
1.000000e+02
1.000000e+02
1.000000e+02
1.000000e+02
1.000000e+02
1.000000e+02
1.000000e+02
1.000000e+02
1.000000e+02
1.000000e+02
1.000000e+02
1.000000e+02
1.000000e+02
1.000000e+02
1.000000e+02
1.000000e+02
1.000000e+02
1.000000e+02
1.000000e+02
1.000000e+02
1.000000e+02
1.000000e+02
1.000000e+02
1.000000e+02
1.000000e+02
1.000000e+02
0.000000e+00
-3.981704e-02
-7.224272e-02
-1.022805e-01
-1.311084e-01
-1.589460e-01
-1.858494e-01
-2.118161e-01
-2.368297e-01
-2.608721e-01
-2.839282e-01
-3.059877e-01
-3.270450e-01
-3.470999e-01
-3.661569e-01
-3.842261e-01
-4.013238e-01
-4.174734e-01
-4.327073e-01
-4.470695e-01
-4.606183e-01
-4.734310e-01
-4.856095e-01
-4.972894e-01
-5.086520e-01
-5.199440e-01
-5.315076e-01
-5.438313e-01
-5.576314e-01
-5.739621e-01
-5.941911e-01
-6.182984e-01
-6.330108e-01
0.000000e+00
-2.669625e-02
-5.554443e-02
-8.274444e-02
-1.085970e-01
-1.333483e-01
-1.571290e-01
-1.799965e-01
-2.019735e-01
-2.230674e-01
-2.432796e-01
-2.626102e-01
-2.810600e-01
-2.986321e-01
-3.153322e-01
-3.311697e-01
-3.461580e-01
-3.603156e-01
-3.736672e-01
-3.862445e-01
-3.980882e-01
-4.092495e-01
-4.197920e-01
-4.297935e-01
-4.393469e-01
-4.485592e-01
-4.575433e-01
-4.663921e-01
-4.751049e-01
-4.833984e-01
-4.903091e-01
-4.943495e-01
-4.999743e-01
0.000000e+00
-2.117553e-02
-4.359493e-02
-6.642144e-02
-8.860174e-02
-1.099646e-01
-1.304965e-01
-1.502168e-01
-1.691430e-01
-1.872869e-01
-2.046563e-01
-2.212566e-01
-2.370924e-01
-2.521684e-01
-2.664902e-01
-2.800647e-01
-2.929007e-01
-3.050093e-01
-3.164041e-01
-3.271014e-01
-3.371198e-01
-3.464797e-01
-3.552010e-01
-3.632991e-01
-3.707772e-01
-3.776114e-01
-3.837235e-01
-3.889336e-01
-3.928893e-01
-3.950193e-01
-3.948325e-01
-3.936365e-01
-4.002047e-01
0.000000e+00
-1.680091e-02
-3.452970e-02
-5.274381e-02
-7.091524e-02
-8.864652e-02
-1.057858e-01
-1.222786e-01
-1.381102e-01
-1.532800e-01
-1.677918e-01
-1.816505e-01
-1.948608e-01
-2.074269e-01
-2.193524e-01
-2.306407e-01
-2.412949e-01
-2.513178e-01
-2.607113e-01
-2.694762e-01
-2.776100e-01
-2.851053e-01
-2.919456e-01
-2.980989e-01
-3.035086e-01
-3.080790e-01
-3.116589e-01
-3.140296e-01
-3.149348e-01
-3.142628e-01
-3.126308e-01
-3.125334e-01
-3.187913e-01
0.000000e+00
-1.303985e-02
-2.670117e-02
-4.079889e-02
-5.501114e-02
-6.904907e-02
-8.271900e-02
-9.592286e-02
-1.086161e-01
-1.207815e-01
-1.324146e-01
-1.435160e-01
-1.540878e-01
-1.641318e-01
-1.736487e-01
-1.826375e-01
-1.910956e-01
-1.990177e-01
-2.063958e-01
-2.132173e-01
-2.194641e-01
-2.251095e-01
-2.301147e-01
-2.344248e-01
-2.379637e-01
-2.406312e-01
-2.423098e-01
-2.428986e-01
-2.424155e-01
-2.412335e-01
-2.404667e-01
-2.422375e-01
-2.475758e-01
0.000000e+00
-9.583531e-03
-1.957766e-02
-2.989286e-02
-4.035091e-02
-5.075659e-02
-6.095492e-02
-7.084515e-02
-8.037200e-02
-8.950858e-02
-9.824355e-02
-1.065729e-01
-1.144952e-01
-1.220091e-01
-1.291117e-01
-1.357979e-01
-1.420598e-01
-1.478860e-01
-1.532608e-01
-1.581630e-01
-1.625651e-01
-1.664314e-01
-1.697167e-01
-1.723658e-01
-1.743160e-01
-1.755060e-01
-1.759007e-01
-1.755465e-01
-1.746733e-01
-1.738425e-01
-1.740447e-01
-1.763022e-01
-1.807193e-01
0.000000e+00
-6.307115e-03
-1.286371e-02
-1.962829e-02
-2.650440e-02
-3.337631e-02
-4.014036e-02
-4.672104e-02
-5.307104e-02
-5.916430e-02
-6.498764e-02
-7.053442e-02
-7.580040e-02
-8.078119e-02
-8.547079e-02
-8.986060e-02
-9.393881e-02
-9.768972e-02
-1.010932e-01
-1.041242e-01
-1.067523e-01
-1.089418e-01
-1.106529e-01
-1.118453e-01
-1.124860e-01
-1.125655e-01
-1.121275e-01
-1.113168e-01
-1.104422e-01
-1.100181e-01
-1.106797e-01
-1.128776e-01
-1.164431e-01
0.000000e+00
-3.132742e-03
-6.383921e-03
-9.736825e-03
-1.314911e-02
-1.656687e-02
-1.993891e-02
-2.322517e-02
-2.639860e-02
-2.944266e-02
-3.234755e-02
-3.510680e-02
-3.771475e-02
-4.016494e-02
-4.244902e-02
-4.455602e-02
-4.647181e-02
-4.817870e-02
-4.965523e-02
-5.087625e-02
-5.181355e-02
-5.243745e-02
-5.272007e-02
-5.264146e-02
-5.220008e-02
-5.142960e-02
-5.042327e-02
-4.936293e-02
-4.853979e-02
-4.833359e-02
-4.910974e-02
-5.102710e-02
-5.385628e-02
0.000000e+00
-5.054366e-06
-1.095931e-05
-1.738770e-05
-2.400141e-05
-3.034452e-05
-3.572992e-05
-3.911350e-05
-3.894698e-05
-3.300094e-05
-1.815101e-05
9.876281e-06
5.679779e-05
1.301016e-04
2.393926e-04
3.967265e-04
6.168791e-04
9.174693e-04
1.318802e-03
1.843231e-03
2.513738e-03
3.351299e-03
4.370444e-03
5.572278e-03
6.934287e-03
8.396810e-03
9.847871e-03
1.111208e-02
1.195600e-02
1.212714e-02
1.143804e-02
9.877464e-03
7.691789e-03
0.000000e+00
3.123222e-03
6.363237e-03
9.703941e-03
1.310361e-02
1.650918e-02
1.987073e-02
2.315015e-02
2.632326e-02
2.937771e-02
3.230954e-02
3.512030e-02
3.781509e-02
4.040156e-02
4.288946e-02
4.529063e-02
4.761892e-02
4.989016e-02
5.212165e-02
5.433123e-02
5.653540e-02
5.874632e-02
6.096712e-02
6.318548e-02
6.536534e-02
6.743791e-02
6.929470e-02
7.078812e-02
7.174768e-02
7.201934e-02
7.152734e-02
7.034184e-02
6.871964e-02
0.000000e+00
6.299339e-03
1.284669e-02
1.960105e-02
2.646642e-02
3.332770e-02
4.008224e-02
4.665605e-02
5.300415e-02
5.910379e-02
6.494653e-02
7.053224e-02
7.586544e-02
8.095330e-02
8.580476e-02
9.043016e-02
9.484107e-02
9.905007e-02
1.030702e-01
1.069140e-01
1.105913e-01
1.141069e-01
1.174559e-01
1.206191e-01
1.235566e-01
1.262034e-01
1.284673e-01
1.302355e-01
1.313928e-01
1.318556e-01
1.316177e-01
1.307973e-01
1.296652e-01
0.000000e+00
9.578570e-03
1.956660e-02
2.987487e-02
4.032536e-02
5.072323e-02
6.091410e-02
7.079817e-02
8.032158e-02
8.945953e-02
9.820370e-02
1.065543e-01
1.145155e-01
1.220936e-01
1.292958e-01
1.361295e-01
1.426030e-01
1.487244e-01
1.545015e-01
1.599411e-01
1.650469e-01
1.698178e-01
1.742445e-01
1.783061e-01
1.819668e-01
1.851733e-01
1.878565e-01
1.899390e-01
1.913513e-01
1.920589e-01
1.920987e-01
1.916175e-01
1.909020e-01
0.000000e+00
1.303862e-02
2.669809e-02
4.079337e-02
5.500261e-02
6.903705e-02
8.270318e-02
9.590320e-02
1.085930e-01
1.207559e-01
1.323886e-01
1.434929e-01
1.540729e-01
1.641330e-01
1.736775e-01
1.827102e-01
1.912344e-01
1.992532e-01
2.067683e-01
2.137800e-01
2.202865e-01
2.262815e-01
2.317536e-01
2.366839e-01
2.410446e-01
2.447993e-01
2.479048e-01
2.503183e-01
2.520098e-01
2.529816e-01
2.532969e-01
2.531162e-01
2.527392e-01
0.000000e+00
1.680403e-02
3.453604e-02
5.275325e-02
7.092751e-02
8.866126e-02
1.058025e-01
1.222964e-01
1.381278e-01
1.532952e-01
1.678013e-01
1.816495e-01
1.948424e-01
2.073815e-01
2.192669e-01
2.304978e-01
2.410719e-01
2.509858e-01
2.602348e-01
2.688121e-01
2.767091e-01
2.839148e-01
2.904156e-01
2.961950e-01
3.012346e-01
3.055156e-01
3.090218e-01
3.117453e-01
3.136945e-01
3.149059e-01
3.154631e-01
3.155295e-01
3.154045e-01
0.000000e+00
2.118315e-02
4.361119e-02
6.644691e-02
8.863690e-02
1.100099e-01
1.305520e-01
1.502818e-01
1.692157e-01
1.873635e-01
2.047304e-01
2.213174e-01
2.371237e-01
2.521462e-01
2.663801e-01
2.798191e-01
2.924548e-01
3.042770e-01
3.152731e-01
3.254286e-01
3.347266e-01
3.431492e-01
3.506780e-01
3.572962e-01
3.629913e-01
3.677588e-01
3.716074e-01
3.745642e-01
3.766804e-01
3.780358e-01
3.787452e-01
3.789762e-01
3.790038e-01
0.000000e+00
2.670769e-02
5.556942e-02
8.278464e-02
1.086544e-01
1.334248e-01
1.572263e-01
1.801156e-01
2.021139e-01
2.232262e-01
2.434503e-01
2.627806e-01
2.812098e-01
2.987295e-01
3.153296e-01
3.309984e-01
3.457217e-01
3.594819e-01
3.722586e-01
3.840276e-01
3.947618e-01
4.044322e-01
4.130103e-01
4.204715e-01
4.268003e-01
4.319971e-01
4.360864e-01
4.391257e-01
4.412136e-01
4.424930e-01
4.431466e-01
4.433836e-01
4.434416e-01
0.000000e+00
3.982956e-02
7.227194e-02
1.023306e-01
1.311833e-01
1.590499e-01
1.859864e-01
2.119903e-01
2.370444e-01
2.611284e-01
2.842241e-01
3.063152e-01
3.273875e-01
3.474277e-01
3.664218e-01
3.843538e-01
4.012046e-01
4.169510e-01
4.315640e-01
4.450089e-01
4.572455e-01
4.682286e-01
4.779110e-01
4.862484e-01
4.932064e-01
4.987709e-01
5.029618e-01
5.058488e-01
5.075696e-01
5.083450e-01
5.084859e-01
5.083692e-01
5.083035e-01
0.000000e+00
-2.460617e-02
-4.294307e-02
-6.295305e-02
-8.523536e-02
-1.104054e-01
-1.386382e-01
-1.699828e-01
-2.044079e-01
-2.418397e-01
-2.821792e-01
-3.253120e-01
-3.711151e-01
-4.194605e-01
-4.702172e-01
-5.232537e-01
-5.784391e-01
-6.356447e-01
-6.947464e-01
-7.556271e-01
-8.181808e-01
-8.823184e-01
-9.479763e-01
-1.015129e+00
-1.083810e+00
-1.154147e+00
-1.226419e+00
-1.301171e+00
-1.379448e+00
-1.463315e+00
-1.557232e+00
-1.671715e+00
-1.829878e+00
0.000000e+00
-1.529180e-02
-3.448570e-02
-5.463066e-02
-7.722354e-02
-1.026671e-01
-1.311742e-01
-1.627931e-01
-1.974953e-01
-2.352069e-01
-2.758283e-01
-3.192443e-01
-3.653308e-01
-4.139586e-01
-4.649957e-01
-5.183092e-01
-5.737664e-01
-6.312370e-01
-6.905943e-01
-7.517183e-01
-8.144994e-01
-8.788438e-01
-9.446821e-01
-1.011981e+00
-1.080766e+00
-1.151152e+00
-1.223405e+00
-1.298052e+00
-1.376115e+00
-1.459626e+00
-1.552817e+00
-1.664752e+00
-1.812517e+00
0.000000e+00
-1.123271e-02
-2.780221e-02
-4.767236e-02
-7.030471e-02
-9.593574e-02
-1.246679e-01
-1.565277e-01
-1.914771e-01
-2.294385e-01
-2.703107e-01
-3.139776e-01
-3.603146e-01
-4.091919e-01
-4.604771e-01
-5.140367e-01
-5.697375e-01
-6.274484e-01
-6.870417e-01
-7.483967e-01
-8.114026e-01
-8.759650e-01
-9.420141e-01
-1.009518e+00
-1.078505e+00
-1.149096e+00
-1.221568e+00
-1.296464e+00
-1.374792e+00
-1.458382e+00
-1.550360e+00
-1.654421e+00
-1.769855e+00
0.000000e+00
-8.994674e-03
-2.354286e-02
-4.235344e-02
-6.469493e-02
-9.031800e-02
-1.191730e-01
-1.512114e-01
-1.863641e-01
-2.245397e-01
-2.656302e-01
-3.095169e-01
-3.560739e-01
-4.051714e-01
-4.566769e-01
-5.104575e-01
-5.663802e-01
-6.243145e-01
-6.841334e-01
-7.457171e-01
-8.089564e-01
-8.737591e-01
-9.400590e-01
-1.007829e+00
-1.077104e+00
-1.148012e+00
-1.220825e+00
-1.296045e+00
-1.374497e+00
-1.457386e+00
-1.545866e+00
-1.639185e+00
-1.726056e+00
0.000000e+00
-7.610973e-03
-2.075740e-02
-3.857637e-02
-6.040857e-02
-8.586365e-02
-1.147295e-01
-1.468720e-01
-1.821749e-01
-2.205229e-01
-2.617961e-01
-3.058700e-01
-3.526168e-01
-4.019060e-01
-4.536059e-01
-5.075842e-01
-5.637095e-01
-6.218526e-01
-6.818885e-01
-7.436991e-01
-8.071777e-01
-8.722350e-01
-9.388076e-01
-1.006871e+00
-1.076455e+00
-1.147674e+00
-1.220750e+00
-1.296044e+00
-1.374029e+00
-1.455089e+00
-1.538837e+00
-1.622198e+00
-1.697853e+00
0.000000e+00
-6.730512e-03
-1.892979e-02
-3.597716e-02
-5.731791e-02
-8.253454e-02
-1.113377e-01
-1.435213e-01
-1.789231e-01
-2.174003e-01
-2.588181e-01
-3.030449e-01
-3.499496e-01
-3.994011e-01
-4.512683e-01
-5.054203e-01
-5.617275e-01
-6.200625e-01
-6.803022e-01
-7.423306e-01
-8.060424e-01
-8.713489e-01
-9.381847e-01
-1.006517e+00
-1.076359e+00
-1.147777e+00
-1.220898e+00
-1.295878e+00
-1.372805e+00
-1.451420e+00
-1.530525e+00
-1.607293e+00
-1.677458e+00
0.000000e+00
-6.183315e-03
-1.777428e-02
-3.428762e-02
-5.524739e-02
-8.024672e-02
-1.089643e-01
-1.411519e-01
-1.766122e-01
-2.151788e-01
-2.567033e-01
-3.010469e-01
-3.480754e-01
-3.976573e-01
-4.496622e-01
-5.039607e-01
-5.604248e-01
-6.189290e-01
-6.793516e-01
-7.415773e-01
-8.055000e-01
-8.710273e-01
-9.380851e-01
-1.006623e+00
-1.076617e+00
-1.148068e+00
-1.220983e+00
-1.295321e+00
-1.370866e+00
-1.447003e+00
-1.522417e+00
-1.594931e+00
-1.661883e+00
0.000000e+00
-5.882623e-03
-1.713312e-02
-3.333552e-02
-5.406013e-02
-7.891409e-02
-1.075658e-01
-1.397463e-01
-1.752381e-01
-2.138601e-01
-2.554545e-01
-2.998777e-01
-3.469937e-01
-3.966710e-01
-4.487801e-01
-5.031931e-01
-5.597835e-01
-6.184270e-01
-6.790021e-01
-7.413924e-01
-8.054881e-01
-8.711886e-01
-9.384043e-01
-1.007058e+00
-1.077081e+00
-1.148400e+00
-1.220911e+00
-1.294417e+00
-1.368525e+00
-1.442505e+00
-1.515171e+00
-1.584885e+00
-1.649832e+00
0.000000e+00
-5.785741e-03
-1.692626e-02
-3.302694e-02
-5.367319e-02
-7.847794e-02
-1.071077e-01
-1.392877e-01
-1.747945e-01
-2.134423e-01
-2.550708e-01
-2.995353e-01
-3.467001e-01
-3.964345e-01
-4.486103e-01
-5.031008e-01
-5.597807e-01
-6.185259e-01
-6.792142e-01
-7.417259e-01
-8.059448e-01
-8.717583e-01
-9.390574e-01
-1.007733e+00
-1.077670e+00
-1.148728e+00
-1.220715e+00
-1.293334e+00
-1.366116e+00
-1.438344e+00
-1.509012e+00
-1.576874e+00
-1.640596e+00
0.000000e+00
-5.879820e-03
-1.712923e-02
-3.333218e-02
-5.405912e-02
-7.891764e-02
-1.075768e-01
-1.397688e-01
-1.752771e-01
-2.139224e-01
-2.555488e-01
-3.000149e-01
-3.471874e-01
-3.969375e-01
-4.491384e-01
-5.036647e-01
-5.603915e-01
-6.191944e-01
-6.799490e-01
-7.425312e-01
-8.068163e-01
-8.726778e-01
-9.399853e-01
-1.008599e+00
-1.078359e+00
-1.149073e+00
-1.220488e+00
-1.292254e+00
-1.363890e+00
-1.434742e+00
-1.503982e+00
-1.570645e+00
-1.633712e+00
0.000000e+00
-6.177938e-03
-1.776682e-02
-3.428116e-02
-5.524537e-02
-8.025340e-02
-1.089853e-01
-1.411947e-01
-1.766867e-01
-2.152980e-01
-2.568839e-01
-3.013098e-01
-3.484467e-01
-3.981682e-01
-4.503495e-01
-5.048657e-01
-5.615923e-01
-6.204036e-01
-6.811725e-01
-7.437695e-01
-8.080608e-01
-8.739059e-01
-9.411535e-01
-1.009636e+00
-1.079158e+00
-1.149488e+00
-1.220334e+00
-1.291328e+00
-1.362007e+00
-1.431801e+00
-1.500037e+00
-1.565972e+00
-1.628826e+00
0.000000e+00
-6.723037e-03
-1.891941e-02
-3.596814e-02
-5.731499e-02
-8.254368e-02
-1.113667e-01
-1.435807e-01
-1.790268e-01
-2.175665e-01
-2.590701e-01
-3.034121e-01
-3.504685e-01
-4.001156e-01
-4.522300e-01
-5.066875e-01
-5.633632e-01
-6.221300e-01
-6.828578e-01
-7.454117e-01
-8.096492e-01
-8.754170e-01
-9.425461e-01
-1.010845e+00
-1.080094e+00
-1.150030e+00
-1.220343e+00
-1.290665e+00
-1.360562e+00
-1.429548e+00
-1.497092e+00
-1.562640e+00
-1.625623e+00
0.000000e+00
-7.602169e-03
-2.074519e-02
-3.856575e-02
-6.040520e-02
-8.587471e-02
-1.147646e-01
-1.469437e-01
-1.823002e-01
-2.207237e-01
-2.621006e-01
-3.063140e-01
-3.532444e-01
-4.027704e-01
-4.547696e-01
-5.091181e-01
-5.656902e-01
-6.243575e-01
-6.849870e-01
-7.474391e-01
-8.115641e-01
-8.771982e-01
-9.441586e-01
-1.012237e+00
-1.081193e+00
-1.150748e+00
-1.220581e+00
-1.290330e+00
-1.359597e+00
-1.427967e+00
-1.495036e+00
-1.560427e+00
-1.623790e+00
0.000000e+00
-8.985625e-03
-2.353033e-02
-4.234264e-02
-6.469203e-02
-9.033099e-02
-1.192125e-01
-1.512914e-01
-1.865034e-01
-2.247625e-01
-2.659678e-01
-3.100086e-01
-3.567684e-01
-4.061273e-01
-4.579631e-01
-5.121518e-01
-5.685671e-01
-6.270791e-01
-6.875525e-01
-7.498442e-01
-8.137990e-01
-8.792460e-01
-9.459927e-01
-1.013820e+00
-1.082474e+00
-1.151669e+00
-1.221078e+00
-1.290348e+00
-1.359110e+00
-1.427009e+00
-1.493744e+00
-1.559106e+00
-1.622991e+00
0.000000e+00
-1.122482e-02
-2.779123e-02
-4.766325e-02
-7.030385e-02
-9.595155e-02
-1.247115e-01
-1.566139e-01
-1.916251e-01
-2.296736e-01
-2.706651e-01
-3.144920e-01
-3.610389e-01
-4.101862e-01
-4.618118e-01
-5.157911e-01
-5.719970e-01
-6.302984e-01
-6.905584e-01
-7.526314e-01
-8.163589e-01
-8.815658e-01
-9.480542e-01
-1.015599e+00
-1.083942e+00
-1.152793e+00
-1.221826e+00
-1.290696e+00
-1.359055e+00
-1.426589e+00
-1.493073e+00
-1.558442e+00
-1.622851e+00
0.000000e+00
-1.528673e-02
-3.447823e-02
-5.462530e-02
-7.722686e-02
-1.026877e-01
-1.312233e-01
-1.628855e-01
-1.976503e-01
-2.354495e-01
-2.761903e-01
-3.197655e-01
-3.660599e-01
-4.149539e-01
-4.663247e-01
-5.200471e-01
-5.759933e-01
-6.340310e-01
-6.940221e-01
-7.558192e-01
-8.192622e-01
-8.841737e-01
-9.503545e-01
-1.017578e+00
-1.085586e+00
-1.154090e+00
-1.222771e+00
-1.291292e+00
-1.359321e+00
-1.426569e+00
-1.492855e+00
-1.558202e+00
-1.622970e+00
0.000000e+00
-2.460545e-02
-4.294059e-02
-6.295353e-02
-8.524541e-02
-1.104337e-01
-1.386960e-01
-1.700846e-01
-2.045728e-01
-2.420919e-01
-2.825492e-01
-3.258379e-01
-3.718428e-01
-4.204440e-01
-4.715185e-01
-5.249404e-01
-5.805807e-01
-6.383060e-01
-6.979766e-01
-7.594435e-01
-8.225453e-01
-8.871035e-01
-9.529186e-01