TITLE = "Solution"
VARIABLES = x, y, u, v, psiu, psiv, t, stress
ZONE T="structure" N=561 E=512 F=FEBLOCK ET=QUADRILATERAL VARLOCATION=([7,8]=cellcentered)
0.000000e+00
6.250000e+00
1.250000e+01
1.875000e+01
2.500000e+01
3.125000e+01
3.750000e+01
4.375000e+01
5.000000e+01
5.625000e+01
6.250000e+01
6.875000e+01
7.500000e+01
8.125000e+01
8.750000e+01
9.375000e+01
1.000000e+02
1.062500e+02
1.125000e+02
1.187500e+02
1.250000e+02
1.312500e+02
1.375000e+02
1.437500e+02
1.500000e+02
1.562500e+02
1.625000e+02
1.687500e+02
1.750000e+02
1.812500e+02
1.875000e+02
1.937500e+02
2.000000e+02
0.000000e+00
6.250000e+00
1.250000e+01
1.875000e+01
2.500000e+01
3.125000e+01
3.750000e+01
4.375000e+01
5.000000e+01
5.625000e+01
6.250000e+01
6.875000e+01
7.500000e+01
8.125000e+01
8.750000e+01
9.375000e+01
1.000000e+02
1.062500e+02
1.125000e+02
1.187500e+02
1.250000e+02
1.312500e+02
1.375000e+02
1.437500e+02
1.500000e+02
1.562500e+02
1.625000e+02
1.687500e+02
1.750000e+02
1.812500e+02
1.875000e+02
1.937500e+02
2.000000e+02
0.000000e+00
6.250000e+00
1.250000e+01
1.875000e+01
2.500000e+01
3.125000e+01
3.750000e+01
4.375000e+01
5.000000e+01
5.625000e+01
6.250000e+01
6.875000e+01
7.500000e+01
8.125000e+01
8.750000e+01
9.375000e+01
1.000000e+02
1.062500e+02
1.125000e+02
1.187500e+02
1.250000e+02
1.312500e+02
1.375000e+02
1.437500e+02
1.500000e+02
1.562500e+02
1.625000e+02
1.687500e+02
1.750000e+02
1.812500e+02
1.875000e+02
1.937500e+02
2.000000e+02
0.000000e+00
6.250000e+00
1.250000e+01
1.875000e+01
2.500000e+01
3.125000e+01
3.750000e+01
4.375000e+01
5.000000e+01
5.625000e+01
6.250000e+01
6.875000e+01
7.500000e+01
8.125000e+01
8.750000e+01
9.375000e+01
1.000000e+02
1.062500e+02
1.125000e+02
1.187500e+02
1.250000e+02
1.312500e+02
1.375000e+02
1.437500e+02
1.500000e+02
1.562500e+02
1.625000e+02
1.687500e+02
1.750000e+02
1.812500e+02
1.875000e+02
1.937500e+02
2.000000e+02
0.000000e+00
6.250000e+00
1.250000e+01
1.875000e+01
2.500000e+01
3.125000e+01
3.750000e+01
4.375000e+01
5.000000e+01
5.625000e+01
6.250000e+01
6.875000e+01
7.500000e+01
8.125000e+01
8.750000e+01
9.375000e+01
1.000000e+02
1.062500e+02
1.125000e+02
1.187500e+02
1.250000e+02
1.312500e+02
1.375000e+02
1.437500e+02
1.500000e+02
1.562500e+02
1.625000e+02
1.687500e+02
1.750000e+02
1.812500e+02
1.875000e+02
1.937500e+02
2.000000e+02
0.000000e+00
6.250000e+00
1.250000e+01
1.875000e+01
2.500000e+01
3.125000e+01
3.750000e+01
4.375000e+01
5.000000e+01
5.625000e+01
6.250000e+01
6.875000e+01
7.500000e+01
8.125000e+01
8.750000e+01
9.375000e+01
1.000000e+02
1.062500e+02
1.125000e+02
1.187500e+02
1.250000e+02
1.312500e+02
1.375000e+02
1.437500e+02
1.500000e+02
1.562500e+02
1.625000e+02
1.687500e+02
1.750000e+02
1.812500e+02
1.875000e+02
1.937500e+02
2.000000e+02
0.000000e+00
6.250000e+00
1.250000e+01
1.875000e+01
2.500000e+01
3.125000e+01
3.750000e+01
4.375000e+01
5.000000e+01
5.625000e+01
6.250000e+01
6.875000e+01
7.500000e+01
8.125000e+01
8.750000e+01
9.375000e+01
1.000000e+02
1.062500e+02
1.125000e+02
1.187500e+02
1.250000e+02
1.312500e+02
1.375000e+02
1.437500e+02
1.500000e+02
1.562500e+02
1.625000e+02
1.687500e+02
1.750000e+02
1.812500e+02
1.875000e+02
1.937500e+02
2.000000e+02
0.000000e+00
6.250000e+00
1.250000e+01
1.875000e+01
2.500000e+01
3.125000e+01
3.750000e+01
4.375000e+01
5.000000e+01
5.625000e+01
6.250000e+01
6.875000e+01
7.500000e+01
8.125000e+01
8.750000e+01
9.375000e+01
1.000000e+02
1.062500e+02
1.125000e+02
1.187500e+02
1.250000e+02
1.312500e+02
1.375000e+02
1.437500e+02
1.500000e+02
1.562500e+02
1.625000e+02
1.687500e+02
1.750000e+02
1.812500e+02
1.875000e+02
1.937500e+02
2.000000e+02
0.000000e+00
6.250000e+00
1.250000e+01
1.875000e+01
2.500000e+01
3.125000e+01
3.750000e+01
4.375000e+01
5.000000e+01
5.625000e+01
6.250000e+01
6.875000e+01
7.500000e+01
8.125000e+01
8.750000e+01
9.375000e+01
1.000000e+02
1.062500e+02
1.125000e+02
1.187500e+02
1.250000e+02
1.312500e+02
1.375000e+02
1.437500e+02
1.500000e+02
1.562500e+02
1.625000e+02
1.687500e+02
1.750000e+02
1.812500e+02
1.875000e+02
1.937500e+02
2.000000e+02
0.000000e+00
6.250000e+00
1.250000e+01
1.875000e+01
2.500000e+01
3.125000e+01
3.750000e+01
4.375000e+01
5.000000e+01
5.625000e+01
6.250000e+01
6.875000e+01
7.500000e+01
8.125000e+01
8.750000e+01
9.375000e+01
1.000000e+02
1.062500e+02
1.125000e+02
1.187500e+02
1.250000e+02
1.312500e+02
1.375000e+02
1.437500e+02
1.500000e+02
1.562500e+02
1.625000e+02
1.687500e+02
1.750000e+02
1.812500e+02
1.875000e+02
1.937500e+02
2.000000e+02
0.000000e+00
6.250000e+00
1.250000e+01
1.875000e+01
2.500000e+01
3.125000e+01
3.750000e+01
4.375000e+01
5.000000e+01
5.625000e+01
6.250000e+01
6.875000e+01
7.500000e+01
8.125000e+01
8.750000e+01
9.375000e+01
1.000000e+02
1.062500e+02
1.125000e+02
1.187500e+02
1.250000e+02
1.312500e+02
1.375000e+02
1.437500e+02
1.500000e+02
1.562500e+02
1.625000e+02
1.687500e+02
1.750000e+02
1.812500e+02
1.875000e+02
1.937500e+02
2.000000e+02
0.000000e+00
6.250000e+00
1.250000e+01
1.875000e+01
2.500000e+01
3.125000e+01
3.750000e+01
4.375000e+01
5.000000e+01
5.625000e+01
6.250000e+01
6.875000e+01
7.500000e+01
8.125000e+01
8.750000e+01
9.375000e+01
1.000000e+02
1.062500e+02
1.125000e+02
1.187500e+02
1.250000e+02
1.312500e+02
1.375000e+02
1.437500e+02
1.500000e+02
1.562500e+02
1.625000e+02
1.687500e+02
1.750000e+02
1.812500e+02
1.875000e+02
1.937500e+02
2.000000e+02
0.000000e+00
6.250000e+00
1.250000e+01
1.875000e+01
2.500000e+01
3.125000e+01
3.750000e+01
4.375000e+01
5.000000e+01
5.625000e+01
6.250000e+01
6.875000e+01
7.500000e+01
8.125000e+01
8.750000e+01
9.375000e+01
1.000000e+02
1.062500e+02
1.125000e+02
1.187500e+02
1.250000e+02
1.312500e+02
1.375000e+02
1.437500e+02
1.500000e+02
1.562500e+02
1.625000e+02
1.687500e+02
1.750000e+02
1.812500e+02
1.875000e+02
1.937500e+02
2.000000e+02
0.000000e+00
6.250000e+00
1.250000e+01
1.875000e+01
2.500000e+01
3.125000e+01
3.750000e+01
4.375000e+01
5.000000e+01
5.625000e+01
6.250000e+01
6.875000e+01
7.500000e+01
8.125000e+01
8.750000e+01
9.375000e+01
1.000000e+02
1.062500e+02
1.125000e+02
1.187500e+02
1.250000e+02
1.312500e+02
1.375000e+02
1.437500e+02
1.500000e+02
1.562500e+02
1.625000e+02
1.687500e+02
1.750000e+02
1.812500e+02
1.875000e+02
1.937500e+02
2.000000e+02
0.000000e+00
6.250000e+00
1.250000e+01
1.875000e+01
2.500000e+01
3.125000e+01
3.750000e+01
4.375000e+01
5.000000e+01
5.625000e+01
6.250000e+01
6.875000e+01
7.500000e+01
8.125000e+01
8.750000e+01
9.375000e+01
1.000000e+02
1.062500e+02
1.125000e+02
1.187500e+02
1.250000e+02
1.312500e+02
1.375000e+02
1.437500e+02
1.500000e+02
1.562500e+02
1.625000e+02
1.687500e+02
1.750000e+02
1.812500e+02
1.875000e+02
1.937500e+02
2.000000e+02
0.000000e+00
6.250000e+00
1.250000e+01
1.875000e+01
2.500000e+01
3.125000e+01
3.750000e+01
4.375000e+01
5.000000e+01
5.625000e+01
6.250000e+01
6.875000e+01
7.500000e+01
8.125000e+01
8.750000e+01
9.375000e+01
1.000000e+02
1.062500e+02
1.125000e+02
1.187500e+02
1.250000e+02
1.312500e+02
1.375000e+02
1.437500e+02
1.500000e+02
1.562500e+02
1.625000e+02
1.687500e+02
1.750000e+02
1.812500e+02
1.875000e+02
1.937500e+02
2.000000e+02
0.000000e+00
6.250000e+00
1.250000e+01
1.875000e+01
2.500000e+01
3.125000e+01
3.750000e+01
4.375000e+01
5.000000e+01
5.625000e+01
6.250000e+01
6.875000e+01
7.500000e+01
8.125000e+01
8.750000e+01
9.375000e+01
1.000000e+02
1.062500e+02
1.125000e+02
1.187500e+02
1.250000e+02
1.312500e+02
1.375000e+02
1.437500e+02
1.500000e+02
1.562500e+02
1.625000e+02
1.687500e+02
1.750000e+02
1.812500e+02
1.875000e+02
1.937500e+02
2.000000e+02
0.000000e+00
0.000000e+00
0.000000e+00
0.000000e+00
0.000000e+00
0.000000e+00
0.000000e+00
0.000000e+00
0.000000e+00
0.000000e+00
0.000000e+00
0.000000e+00
0.000000e+00
0.000000e+00
0.000000e+00
0.000000e+00
0.000000e+00
0.000000e+00
0.000000e+00
0.000000e+00
0.000000e+00
0.000000e+00
0.000000e+00
0.000000e+00
0.000000e+00
0.000000e+00
0.000000e+00
0.000000e+00
0.000000e+00
0.000000e+00
0.000000e+00
0.000000e+00
0.000000e+00
6.250000e+00
6.250000e+00
6.250000e+00
6.250000e+00
6.250000e+00
6.250000e+00
6.250000e+00
6.250000e+00
6.250000e+00
6.250000e+00
6.250000e+00
6.250000e+00
6.250000e+00
6.250000e+00
6.250000e+00
6.250000e+00
6.250000e+00
6.250000e+00
6.250000e+00
6.250000e+00
6.250000e+00
6.250000e+00
6.250000e+00
6.250000e+00
6.250000e+00
6.250000e+00
6.250000e+00
6.250000e+00
6.250000e+00
6.250000e+00
6.250000e+00
6.250000e+00
6.250000e+00
1.250000e+01
1.250000e+01
1.250000e+01
1.250000e+01
1.250000e+01
1.250000e+01
1.250000e+01
1.250000e+01
1.250000e+01
1.250000e+01
1.250000e+01
1.250000e+01
1.250000e+01
1.250000e+01
1.250000e+01
1.250000e+01
1.250000e+01
1.250000e+01
1.250000e+01
1.250000e+01
1.250000e+01
1.250000e+01
1.250000e+01
1.250000e+01
1.250000e+01
1.250000e+01
1.250000e+01
1.250000e+01
1.250000e+01
1.250000e+01
1.250000e+01
1.250000e+01
1.250000e+01
1.875000e+01
1.875000e+01
1.875000e+01
1.875000e+01
1.875000e+01
1.875000e+01
1.875000e+01
1.875000e+01
1.875000e+01
1.875000e+01
1.875000e+01
1.875000e+01
1.875000e+01
1.875000e+01
1.875000e+01
1.875000e+01
1.875000e+01
1.875000e+01
1.875000e+01
1.875000e+01
1.875000e+01
1.875000e+01
1.875000e+01
1.875000e+01
1.875000e+01
1.875000e+01
1.875000e+01
1.875000e+01
1.875000e+01
1.875000e+01
1.875000e+01
1.875000e+01
1.875000e+01
2.500000e+01
2.500000e+01
2.500000e+01
2.500000e+01
2.500000e+01
2.500000e+01
2.500000e+01
2.500000e+01
2.500000e+01
2.500000e+01
2.500000e+01
2.500000e+01
2.500000e+01
2.500000e+01
2.500000e+01
2.500000e+01
2.500000e+01
2.500000e+01
2.500000e+01
2.500000e+01
2.500000e+01
2.500000e+01
2.500000e+01
2.500000e+01
2.500000e+01
2.500000e+01
2.500000e+01
2.500000e+01
2.500000e+01
2.500000e+01
2.500000e+01
2.500000e+01
2.500000e+01
3.125000e+01
3.125000e+01
3.125000e+01
3.125000e+01
3.125000e+01
3.125000e+01
3.125000e+01
3.125000e+01
3.125000e+01
3.125000e+01
3.125000e+01
3.125000e+01
3.125000e+01
3.125000e+01
3.125000e+01
3.125000e+01
3.125000e+01
3.125000e+01
3.125000e+01
3.125000e+01
3.125000e+01
3.125000e+01
3.125000e+01
3.125000e+01
3.125000e+01
3.125000e+01
3.125000e+01
3.125000e+01
3.125000e+01
3.125000e+01
3.125000e+01
3.125000e+01
3.125000e+01
3.750000e+01
3.750000e+01
3.750000e+01
3.750000e+01
3.750000e+01
3.750000e+01
3.750000e+01
3.750000e+01
3.750000e+01
3.750000e+01
3.750000e+01
3.750000e+01
3.750000e+01
3.750000e+01
3.750000e+01
3.750000e+01
3.750000e+01
3.750000e+01
3.750000e+01
3.750000e+01
3.750000e+01
3.750000e+01
3.750000e+01
3.750000e+01
3.750000e+01
3.750000e+01
3.750000e+01
3.750000e+01
3.750000e+01
3.750000e+01
3.750000e+01
3.750000e+01
3.750000e+01
4.375000e+01
4.375000e+01
4.375000e+01
4.375000e+01
4.375000e+01
4.375000e+01
4.375000e+01
4.375000e+01
4.375000e+01
4.375000e+01
4.375000e+01
4.375000e+01
4.375000e+01
4.375000e+01
4.375000e+01
4.375000e+01
4.375000e+01
4.375000e+01
4.375000e+01
4.375000e+01
4.375000e+01
4.375000e+01
4.375000e+01
4.375000e+01
4.375000e+01
4.375000e+01
4.375000e+01
4.375000e+01
4.375000e+01
4.375000e+01
4.375000e+01
4.375000e+01
4.375000e+01
5.000000e+01
5.000000e+01
5.000000e+01
5.000000e+01
5.000000e+01
5.000000e+01
5.000000e+01
5.000000e+01
5.000000e+01
5.000000e+01
5.000000e+01
5.000000e+01
5.000000e+01
5.000000e+01
5.000000e+01
5.000000e+01
5.000000e+01
5.000000e+01
5.000000e+01
5.000000e+01
5.000000e+01
5.000000e+01
5.000000e+01
5.000000e+01
5.000000e+01
5.000000e+01
5.000000e+01
5.000000e+01
5.000000e+01
5.000000e+01
5.000000e+01
5.000000e+01
5.000000e+01
5.625000e+01
5.625000e+01
5.625000e+01
5.625000e+01
5.625000e+01
5.625000e+01
5.625000e+01
5.625000e+01
5.625000e+01
5.625000e+01
5.625000e+01
5.625000e+01
5.625000e+01
5.625000e+01
5.625000e+01
5.625000e+01
5.625000e+01
5.625000e+01
5.625000e+01
5.625000e+01
5.625000e+01
5.625000e+01
5.625000e+01
5.625000e+01
5.625000e+01
5.625000e+01
5.625000e+01
5.625000e+01
5.625000e+01
5.625000e+01
5.625000e+01
5.625000e+01
5.625000e+01
6.250000e+01
6.250000e+01
6.250000e+01
6.250000e+01
6.250000e+01
6.250000e+01
6.250000e+01
6.250000e+01
6.250000e+01
6.250000e+01
6.250000e+01
6.250000e+01
6.250000e+01
6.250000e+01
6.250000e+01
6.250000e+01
6.250000e+01
6.250000e+01
6.250000e+01
6.250000e+01
6.250000e+01
6.250000e+01
6.250000e+01
6.250000e+01
6.250000e+01
6.250000e+01
6.250000e+01
6.250000e+01
6.250000e+01
6.250000e+01
6.250000e+01
6.250000e+01
6.250000e+01
6.875000e+01
6.875000e+01
6.875000e+01
6.875000e+01
6.875000e+01
6.875000e+01
6.875000e+01
6.875000e+01
6.875000e+01
6.875000e+01
6.875000e+01
6.875000e+01
6.875000e+01
6.875000e+01
6.875000e+01
6.875000e+01
6.875000e+01
6.875000e+01
6.875000e+01
6.875000e+01
6.875000e+01
6.875000e+01
6.875000e+01
6.875000e+01
6.875000e+01
6.875000e+01
6.875000e+01
6.875000e+01
6.875000e+01
6.875000e+01
6.875000e+01
6.875000e+01
6.875000e+01
7.500000e+01
7.500000e+01
7.500000e+01
7.500000e+01
7.500000e+01
7.500000e+01
7.500000e+01
7.500000e+01
7.500000e+01
7.500000e+01
7.500000e+01
7.500000e+01
7.500000e+01
7.500000e+01
7.500000e+01
7.500000e+01
7.500000e+01
7.500000e+01
7.500000e+01
7.500000e+01
7.500000e+01
7.500000e+01
7.500000e+01
7.500000e+01
7.500000e+01
7.500000e+01
7.500000e+01
7.500000e+01
7.500000e+01
7.500000e+01
7.500000e+01
7.500000e+01
7.500000e+01
8.125000e+01
8.125000e+01
8.125000e+01
8.125000e+01
8.125000e+01
8.125000e+01
8.125000e+01
8.125000e+01
8.125000e+01
8.125000e+01
8.125000e+01
8.125000e+01
8.125000e+01
8.125000e+01
8.125000e+01
8.125000e+01
8.125000e+01
8.125000e+01
8.125000e+01
8.125000e+01
8.125000e+01
8.125000e+01
8.125000e+01
8.125000e+01
8.125000e+01
8.125000e+01
8.125000e+01
8.125000e+01
8.125000e+01
8.125000e+01
8.125000e+01
8.125000e+01
8.125000e+01
8.750000e+01
8.750000e+01
8.750000e+01
8.750000e+01
8.750000e+01
8.750000e+01
8.750000e+01
8.750000e+01
8.750000e+01
8.750000e+01
8.750000e+01
8.750000e+01
8.750000e+01
8.750000e+01
8.750000e+01
8.750000e+01
8.750000e+01
8.750000e+01
8.750000e+01
8.750000e+01
8.750000e+01
8.750000e+01
8.750000e+01
8.750000e+01
8.750000e+01
8.750000e+01
8.750000e+01
8.750000e+01
8.750000e+01
8.750000e+01
8.750000e+01
8.750000e+01
8.750000e+01
9.375000e+01
9.375000e+01
9.375000e+01
9.375000e+01
9.375000e+01
9.375000e+01
9.375000e+01
9.375000e+01
9.375000e+01
9.375000e+01
9.375000e+01
9.375000e+01
9.375000e+01
9.375000e+01
9.375000e+01
9.375000e+01
9.375000e+01
9.375000e+01
9.375000e+01
9.375000e+01
9.375000e+01
9.375000e+01
9.375000e+01
9.375000e+01
9.375000e+01
9.375000e+01
9.375000e+01
9.375000e+01
9.375000e+01
9.375000e+01
9.375000e+01
9.375000e+01
9.375000e+01
1.000000e+02
1.000000e+02
1.000000e+02
1.000000e+02
1.000000e+02
1.000000e+02
1.000000e+02
1.000000e+02
1.000000e+02
1.000000e+02
1.000000e+02
1.000000e+02
1.000000e+02
1.000000e+02
1.000000e+02
1.000000e+02
1.000000e+02
1.000000e+02
1.000000e+02
1.000000e+02
1.000000e+02
1.000000e+02
1.000000e+02
1.000000e+02
1.000000e+02
1.000000e+02
1.000000e+02
1.000000e+02
1.000000e+02
1.000000e+02
1.000000e+02
1.000000e+02
1.000000e+02
0.000000e+00
-4.689370e-01
-7.797602e-01
-1.118645e+00
-1.421142e+00
-1.714380e+00
-2.024583e+00
-2.313636e+00
-2.614440e+00
-2.908339e+00
-3.206550e+00
-3.504913e+00
-3.803502e+00
-4.104646e+00
-4.403983e+00
-4.706269e+00
-5.007405e+00
-5.309475e+00
-5.611826e+00
-5.913199e+00
-6.215833e+00
-6.517414e+00
-6.819317e+00
-7.117917e+00
-7.413784e+00
-7.717683e+00
-8.019574e+00
-8.347515e+00
-8.669536e+00
-9.025977e+00
-9.509668e+00
-9.926180e+00
-1.013102e+01
0.000000e+00
-2.331132e-01
-4.711146e-01
-7.361926e-01
-1.002407e+00
-1.255466e+00
-1.525039e+00
-1.785441e+00
-2.047877e+00
-2.312964e+00
-2.573108e+00
-2.838306e+00
-3.098849e+00
-3.362318e+00
-3.624176e+00
-3.885943e+00
-4.148449e+00
-4.409525e+00
-4.671696e+00
-4.932727e+00
-5.194263e+00
-5.455004e+00
-5.716429e+00
-5.976534e+00
-6.238169e+00
-6.498705e+00
-6.758768e+00
-7.022266e+00
-7.277551e+00
-7.536089e+00
-7.787101e+00
-7.887167e+00
-7.992942e+00
0.000000e+00
-1.049992e-01
-2.428005e-01
-4.388876e-01
-6.560987e-01
-8.633466e-01
-1.090306e+00
-1.316041e+00
-1.542079e+00
-1.773116e+00
-1.995986e+00
-2.224426e+00
-2.446930e+00
-2.671415e+00
-2.894972e+00
-3.117171e+00
-3.340673e+00
-3.562837e+00
-3.786282e+00
-4.009673e+00
-4.233528e+00
-4.457110e+00
-4.681761e+00
-4.908745e+00
-5.137098e+00
-5.358971e+00
-5.571364e+00
-5.769164e+00
-5.948506e+00
-6.097593e+00
-6.182931e+00
-6.187982e+00
-6.280846e+00
0.000000e+00
-1.024840e-01
-1.868183e-01
-3.389979e-01
-4.619632e-01
-6.183803e-01
-7.950667e-01
-9.646631e-01
-1.155140e+00
-1.333664e+00
-1.519019e+00
-1.702531e+00
-1.885825e+00
-2.070564e+00
-2.254882e+00
-2.440908e+00
-2.627165e+00
-2.815552e+00
-3.005308e+00
-3.196514e+00
-3.389463e+00
-3.581984e+00
-3.775406e+00
-3.967813e+00
-4.152441e+00
-4.325764e+00
-4.476578e+00
-4.608644e+00
-4.709700e+00
-4.772208e+00
-4.786798e+00
-4.803592e+00
-4.884290e+00
0.000000e+00
-9.246528e-02
-1.834402e-01
-2.743229e-01
-3.865346e-01
-5.025682e-01
-6.343938e-01
-7.686003e-01
-9.123711e-01
-1.054563e+00
-1.199746e+00
-1.346189e+00
-1.490554e+00
-1.638516e+00
-1.784254e+00
-1.932480e+00
-2.080585e+00
-2.229581e+00
-2.379346e+00
-2.528556e+00
-2.677628e+00
-2.824025e+00
-2.967300e+00
-3.103984e+00
-3.231534e+00
-3.345300e+00
-3.442118e+00
-3.516145e+00
-3.564421e+00
-3.587985e+00
-3.590295e+00
-3.620064e+00
-3.692087e+00
0.000000e+00
-7.394908e-02
-1.450737e-01
-2.197750e-01
-3.008423e-01
-3.897858e-01
-4.843239e-01
-5.854016e-01
-6.890384e-01
-7.964346e-01
-9.041329e-01
-1.012675e+00
-1.121691e+00
-1.230166e+00
-1.339362e+00
-1.448086e+00
-1.557080e+00
-1.665654e+00
-1.773532e+00
-1.880082e+00
-1.984154e+00
-2.084630e+00
-2.179365e+00
-2.266577e+00
-2.343718e+00
-2.408774e+00
-2.459666e+00
-2.494409e+00
-2.515293e+00
-2.514312e+00
-2.509748e+00
-2.536826e+00
-2.603238e+00
0.000000e+00
-5.096605e-02
-1.014191e-01
-1.530251e-01
-2.081532e-01
-2.671718e-01
-3.303125e-01
-3.965771e-01
-4.655796e-01
-5.360807e-01
-6.075334e-01
-6.792040e-01
-7.507708e-01
-8.221447e-01
-8.930791e-01
-9.636463e-01
-1.033515e+00
-1.102460e+00
-1.169970e+00
-1.235355e+00
-1.297669e+00
-1.355567e+00
-1.407617e+00
-1.452128e+00
-1.487619e+00
-1.511957e+00
-1.525028e+00
-1.528439e+00
-1.511667e+00
-1.482668e+00
-1.471967e+00
-1.496650e+00
-1.561852e+00
0.000000e+00
-2.684373e-02
-5.354937e-02
-8.082913e-02
-1.093890e-01
-1.396909e-01
-1.716497e-01
-2.050838e-01
-2.395358e-01
-2.746378e-01
-3.099035e-01
-3.450114e-01
-3.797000e-01
-4.137878e-01
-4.471883e-01
-4.797383e-01
-5.112316e-01
-5.413273e-01
-5.696602e-01
-5.957400e-01
-6.188040e-01
-6.378391e-01
-6.516106e-01
-6.592347e-01
-6.592289e-01
-6.516429e-01
-6.341957e-01
-5.959393e-01
-5.469587e-01
-4.972640e-01
-4.730199e-01
-4.974429e-01
-5.651131e-01
0.000000e+00
-1.928166e-03
-3.904400e-03
-5.845873e-03
-7.652699e-03
-9.213691e-03
-1.044896e-02
-1.131003e-02
-1.178185e-02
-1.182331e-02
-1.137550e-02
-1.034010e-02
-8.587046e-03
-5.950805e-03
-2.275577e-03
2.576933e-03
8.871517e-03
1.693959e-02
2.692970e-02
3.888727e-02
5.311007e-02
7.031860e-02
9.123453e-02
1.175862e-01
1.490855e-01
1.894793e-01
2.472898e-01
3.179873e-01
3.899133e-01
4.399524e-01
4.549009e-01
4.227619e-01
3.452673e-01
0.000000e+00
2.312134e-02
4.602495e-02
6.957940e-02
9.470743e-02
1.220910e-01
1.518238e-01
1.837391e-01
2.173929e-01
2.523772e-01
2.883150e-01
3.250047e-01
3.624608e-01
4.009399e-01
4.407912e-01
4.823405e-01
5.259739e-01
5.718226e-01
6.197732e-01
6.694070e-01
7.203397e-01
7.728239e-01
8.279023e-01
8.864939e-01
9.546671e-01
1.037505e+00
1.126107e+00
1.215562e+00
1.288896e+00
1.332295e+00
1.330874e+00
1.287394e+00
1.225022e+00
0.000000e+00
4.760670e-02
9.468637e-02
1.430423e-01
1.952801e-01
2.520887e-01
3.137211e-01
3.792734e-01
4.479707e-01
5.186084e-01
5.903469e-01
6.625205e-01
7.349598e-01
8.080865e-01
8.826636e-01
9.599469e-01
1.040453e+00
1.123720e+00
1.208874e+00
1.295929e+00
1.384878e+00
1.475270e+00
1.568008e+00
1.669232e+00
1.776938e+00
1.887854e+00
1.996776e+00
2.086447e+00
2.150728e+00
2.178386e+00
2.171685e+00
2.141623e+00
2.097518e+00
0.000000e+00
7.102295e-02
1.393625e-01
2.116383e-01
2.908179e-01
3.787988e-01
4.735052e-01
5.748490e-01
6.798447e-01
7.879779e-01
8.970639e-01
1.006739e+00
1.116771e+00
1.226842e+00
1.337793e+00
1.449886e+00
1.564899e+00
1.682024e+00
1.801114e+00
1.923253e+00
2.050871e+00
2.186907e+00
2.328590e+00
2.469886e+00
2.606725e+00
2.734582e+00
2.846721e+00
2.936542e+00
2.993314e+00
3.022107e+00
3.025714e+00
3.007769e+00
2.980077e+00
0.000000e+00
8.981588e-02
1.782035e-01
2.676315e-01
3.800179e-01
4.982004e-01
6.308041e-01
7.692173e-01
9.132765e-01
1.058841e+00
1.205678e+00
1.353826e+00
1.502115e+00
1.653948e+00
1.805805e+00
1.961322e+00
2.118727e+00
2.279476e+00
2.443608e+00
2.609496e+00
2.778059e+00
2.948574e+00
3.117802e+00
3.281816e+00
3.435436e+00
3.575468e+00
3.694764e+00
3.786986e+00
3.854268e+00
3.893832e+00
3.907019e+00
3.900546e+00
3.885989e+00
0.000000e+00
9.927633e-02
1.810432e-01
3.308448e-01
4.558133e-01
6.169702e-01
7.988232e-01
9.709546e-01
1.164560e+00
1.344326e+00
1.530269e+00
1.712553e+00
1.896654e+00
2.086493e+00
2.280804e+00
2.480844e+00
2.683292e+00
2.888941e+00
3.098745e+00
3.311194e+00
3.521271e+00
3.725164e+00
3.920117e+00
4.104246e+00
4.279059e+00
4.436964e+00
4.572262e+00
4.679144e+00
4.755913e+00
4.804002e+00
4.826387e+00
4.829272e+00
4.824521e+00
0.000000e+00
1.031929e-01
2.372399e-01
4.269019e-01
6.421254e-01
8.493428e-01
1.079323e+00
1.308849e+00
1.537952e+00
1.772645e+00
1.997876e+00
2.225511e+00
2.448359e+00
2.674598e+00
2.903766e+00
3.135042e+00
3.367207e+00
3.597923e+00
3.829895e+00
4.062568e+00
4.296303e+00
4.524693e+00
4.746127e+00
4.966419e+00
5.175730e+00
5.360734e+00
5.510559e+00
5.625739e+00
5.708479e+00
5.761563e+00
5.789410e+00
5.798526e+00
5.799651e+00
0.000000e+00
2.336582e-01
4.723764e-01
7.369190e-01
1.002612e+00
1.255229e+00
1.524064e+00
1.784426e+00
2.046420e+00
2.310896e+00
2.570806e+00
2.834767e+00
3.094569e+00
3.356251e+00
3.616330e+00
3.876125e+00
4.135880e+00
4.393449e+00
4.651013e+00
4.905493e+00
5.160585e+00
5.414056e+00
5.667699e+00
5.925050e+00
6.165584e+00
6.365860e+00
6.523635e+00
6.640870e+00
6.721415e+00
6.770824e+00
6.796077e+00
6.805228e+00
6.807478e+00
0.000000e+00
4.701101e-01
7.856998e-01
1.129405e+00
1.435218e+00
1.728460e+00
2.037335e+00
2.323457e+00
2.621723e+00
2.912295e+00
3.207622e+00
3.505550e+00
3.802457e+00
4.100135e+00
4.392527e+00
4.683255e+00
4.972746e+00
5.262333e+00
5.551936e+00
5.840302e+00
6.126632e+00
6.416046e+00
6.706729e+00
6.998537e+00
7.260853e+00
7.471497e+00
7.630104e+00
7.739440e+00
7.804614e+00
7.833862e+00
7.838956e+00
7.834300e+00
7.831730e+00
0.000000e+00
-2.781050e-01
-5.857664e-01
-9.783768e-01
-1.406992e+00
-1.873681e+00
-2.380771e+00
-2.918699e+00
-3.493105e+00
-4.099772e+00
-4.741139e+00
-5.418734e+00
-6.132014e+00
-6.883784e+00
-7.672574e+00
-8.500333e+00
-9.366676e+00
-1.027205e+01
-1.121692e+01
-1.220087e+01
-1.322454e+01
-1.428825e+01
-1.539260e+01
-1.653704e+01
-1.772004e+01
-1.894274e+01
-2.020959e+01
-2.152955e+01
-2.291067e+01
-2.437257e+01
-2.593221e+01
-2.774093e+01
-3.028149e+01
0.000000e+00
-1.791595e-01
-5.053854e-01
-8.906527e-01
-1.325720e+00
-1.789297e+00
-2.296376e+00
-2.835983e+00
-3.408786e+00
-4.016604e+00
-4.656906e+00
-5.335045e+00
-6.047972e+00
-6.799719e+00
-7.588713e+00
-8.416112e+00
-9.282741e+00
-1.018790e+01
-1.113288e+01
-1.211683e+01
-1.314044e+01
-1.420399e+01
-1.530847e+01
-1.645326e+01
-1.763620e+01
-1.885851e+01
-2.012382e+01
-2.144236e+01
-2.282406e+01
-2.427782e+01
-2.585701e+01
-2.765234e+01
-2.990559e+01
0.000000e+00
-1.574809e-01
-4.468077e-01
-8.339204e-01
-1.258956e+00
-1.720353e+00
-2.225740e+00
-2.763382e+00
-3.337029e+00
-3.943981e+00
-4.584987e+00
-5.263144e+00
-5.976664e+00
-6.728310e+00
-7.517817e+00
-8.345274e+00
-9.211932e+00
-1.011727e+01
-1.106203e+01
-1.204604e+01
-1.306966e+01
-1.413267e+01
-1.523636e+01
-1.638042e+01
-1.756420e+01
-1.878895e+01
-2.005632e+01
-2.137959e+01
-2.276546e+01
-2.423967e+01
-2.586104e+01
-2.754669e+01
-2.929667e+01
0.000000e+00
-2.010698e-01
-4.465237e-01
-8.289281e-01
-1.223171e+00
-1.674615e+00
-2.178193e+00
-2.704614e+00
-3.282784e+00
-3.885112e+00
-4.527913e+00
-5.206258e+00
-5.919370e+00
-6.672298e+00
-7.461030e+00
-8.289399e+00
-9.155499e+00
-1.006093e+01
-1.100553e+01
-1.198911e+01
-1.301315e+01
-1.407553e+01
-1.517865e+01
-1.632297e+01
-1.750878e+01
-1.873911e+01
-2.001257e+01
-2.134294e+01
-2.273797e+01
-2.423068e+01
-2.584534e+01
-2.739554e+01
-2.879597e+01
0.000000e+00
-2.177955e-01
-4.837046e-01
-8.254864e-01
-1.220956e+00
-1.654993e+00
-2.149166e+00
-2.670242e+00
-3.243310e+00
-3.845494e+00
-4.486730e+00
-5.166513e+00
-5.878856e+00
-6.633214e+00
-7.421504e+00
-8.250299e+00
-9.116375e+00
-1.002147e+01
-1.096625e+01
-1.194963e+01
-1.297398e+01
-1.403694e+01
-1.514113e+01
-1.628695e+01
-1.747611e+01
-1.870995e+01
-1.999085e+01
-2.132538e+01
-2.272267e+01
-2.420963e+01
-2.574671e+01
-2.719399e+01
-2.845873e+01
0.000000e+00
-2.249447e-01
-4.998086e-01
-8.312829e-01
-1.215604e+00
-1.648064e+00
-2.128073e+00
-2.650463e+00
-3.214924e+00
-3.818066e+00
-4.458546e+00
-5.137115e+00
-5.852100e+00
-6.604931e+00
-7.395232e+00
-8.223495e+00
-9.090320e+00
-9.995920e+00
-1.094104e+01
-1.192586e+01
-1.295095e+01
-1.401637e+01
-1.512289e+01
-1.627153e+01
-1.746325e+01
-1.869910e+01
-1.998218e+01
-2.131661e+01
-2.270214e+01
-2.414959e+01
-2.559208e+01
-2.695945e+01
-2.816061e+01
0.000000e+00
-2.286625e-01
-5.059416e-01
-8.345075e-01
-1.213937e+00
-1.642259e+00
-2.117382e+00
-2.636858e+00
-3.198601e+00
-3.800463e+00
-4.441086e+00
-5.119568e+00
-5.835531e+00
-6.588907e+00
-7.379880e+00
-8.208856e+00
-9.076319e+00
-9.982882e+00
-1.092909e+01
-1.191551e+01
-1.294255e+01
-1.401055e+01
-1.511989e+01
-1.627106e+01
-1.746467e+01
-1.870080e+01
-1.997987e+01
-2.131015e+01
-2.266479e+01
-2.406080e+01
-2.543627e+01
-2.673511e+01
-2.787448e+01
0.000000e+00
-2.300560e-01
-5.082412e-01
-8.359788e-01
-1.213439e+00
-1.639570e+00
-2.112648e+00
-2.630608e+00
-3.191362e+00
-3.792986e+00
-4.433917e+00
-5.113110e+00
-5.829932e+00
-6.584174e+00
-7.375944e+00
-8.205683e+00
-9.074031e+00
-9.981632e+00
-1.092912e+01
-1.191714e+01
-1.294623e+01
-1.401666e+01
-1.512829e+01
-1.628120e+01
-1.747519e+01
-1.871077e+01
-1.998152e+01
-2.129268e+01
-2.261362e+01
-2.395649e+01
-2.528291e+01
-2.652317e+01
-2.760616e+01
0.000000e+00
-2.303357e-01
-5.088138e-01
-8.365652e-01
-1.213844e+00
-1.639839e+00
-2.112953e+00
-2.631194e+00
-3.192498e+00
-3.794939e+00
-4.436911e+00
-5.117234e+00
-5.835201e+00
-6.590477e+00
-7.383103e+00
-8.213616e+00
-9.082884e+00
-9.991566e+00
-1.094014e+01
-1.192934e+01
-1.295998e+01
-1.403215e+01
-1.514532e+01
-1.629833e+01
-1.749225e+01
-1.872232e+01
-1.997828e+01
-2.126084e+01
-2.255722e+01
-2.384969e+01
-2.511697e+01
-2.628326e+01
-2.727897e+01
0.000000e+00
-2.298648e-01
-5.082323e-01
-8.365894e-01
-1.215194e+00
-1.642997e+00
-2.118149e+00
-2.638461e+00
-3.201759e+00
-3.806079e+00
-4.449760e+00
-5.131602e+00
-5.850926e+00
-6.607421e+00
-7.400957e+00
-8.232169e+00
-9.102469e+00
-1.001231e+01
-1.096169e+01
-1.195120e+01
-1.298229e+01
-1.405530e+01
-1.516780e+01
-1.632176e+01
-1.750832e+01
-1.872679e+01
-1.996609e+01
-2.122567e+01
-2.249307e+01
-2.374811e+01
-2.495237e+01
-2.605380e+01
-2.701332e+01
0.000000e+00
-2.283398e-01
-5.059695e-01
-8.357422e-01
-1.217514e+00
-1.649272e+00
-2.128617e+00
-2.652773e+00
-3.219444e+00
-3.826513e+00
-4.472379e+00
-5.155825e+00
-5.876467e+00
-6.634249e+00
-7.428740e+00
-8.260915e+00
-9.132560e+00
-1.004372e+01
-1.099355e+01
-1.198254e+01
-1.301231e+01
-1.408416e+01
-1.519463e+01
-1.634246e+01
-1.751923e+01
-1.872341e+01
-1.995144e+01
-2.118985e+01
-2.243077e+01
-2.364599e+01
-2.480462e+01
-2.587333e+01
-2.682120e+01
0.000000e+00
-2.245569e-01
-4.999627e-01
-8.331766e-01
-1.221079e+00
-1.659212e+00
-2.145441e+00
-2.675054e+00
-3.246450e+00
-3.856919e+00
-4.504948e+00
-5.189967e+00
-5.911279e+00
-6.670046e+00
-7.465518e+00
-8.299284e+00
-9.172790e+00
-1.008466e+01
-1.103442e+01
-1.202212e+01
-1.304875e+01
-1.411628e+01
-1.522063e+01
-1.635898e+01
-1.752657e+01
-1.872114e+01
-1.993753e+01
-2.116275e+01
-2.237662e+01
-2.356215e+01
-2.469157e+01
-2.574393e+01
-2.669533e+01
0.000000e+00
-2.172014e-01
-4.839463e-01
-8.282375e-01
-1.228466e+00
-1.671757e+00
-2.172696e+00
-2.705294e+00
-3.284945e+00
-3.897455e+00
-4.547561e+00
-5.234441e+00
-5.955067e+00
-6.715996e+00
-7.511874e+00
-8.348619e+00
-9.222876e+00
-1.013394e+01
-1.108204e+01
-1.206647e+01
-1.308923e+01
-1.415009e+01
-1.524628e+01
-1.637576e+01
-1.753666e+01
-1.872708e+01
-1.993690e+01
-2.114750e+01
-2.234143e+01
-2.350193e+01
-2.461262e+01
-2.565790e+01
-2.662380e+01
0.000000e+00
-1.995915e-01
-4.462126e-01
-8.322737e-01
-1.234208e+00
-1.696168e+00
-2.210950e+00
-2.747704e+00
-3.335583e+00
-3.947661e+00
-4.600003e+00
-5.286284e+00
-6.008747e+00
-6.771072e+00
-7.569994e+00
-8.408332e+00
-9.282194e+00
-1.019159e+01
-1.113672e+01
-1.211747e+01
-1.313487e+01
-1.418810e+01
-1.527562e+01
-1.639877e+01
-1.756034e+01
-1.875010e+01
-1.995298e+01
-2.114809e+01
-2.232361e+01
-2.346573e+01
-2.456288e+01
-2.560669e+01
-2.659286e+01
0.000000e+00
-1.546387e-01
-4.446271e-01
-8.360028e-01
-1.271003e+00
-1.744389e+00
-2.262678e+00
-2.811257e+00
-3.395344e+00
-4.011357e+00
-4.660817e+00
-5.347285e+00
-6.071029e+00
-6.834476e+00
-7.636032e+00
-8.473971e+00
-9.347340e+00
-1.025519e+01
-1.119874e+01
-1.217669e+01
-1.318944e+01
-1.423617e+01
-1.531716e+01
-1.644114e+01
-1.760436e+01
-1.879074e+01
-1.998068e+01
-2.116188e+01
-2.232208e+01
-2.345002e+01
-2.453719e+01
-2.558101e+01
-2.658762e+01
0.000000e+00
-1.759192e-01
-5.024728e-01
-8.926209e-01
-1.337956e+00
-1.814336e+00
-2.334290e+00
-2.885629e+00
-3.468562e+00
-4.085532e+00
-4.733529e+00
-5.420034e+00
-6.143667e+00
-6.907818e+00
-7.709665e+00
-8.547215e+00
-9.419595e+00
-1.032628e+01
-1.126872e+01
-1.224530e+01
-1.325606e+01
-1.429995e+01
-1.538126e+01
-1.650587e+01
-1.766508e+01
-1.883991e+01
-2.001691e+01
-2.118500e+01
-2.233265e+01
-2.344948e+01
-2.452885e+01
-2.557178e+01
-2.659233e+01
0.000000e+00
-2.755454e-01
-5.837794e-01
-9.810675e-01
-1.419542e+00
-1.898618e+00
-2.418428e+00
-2.968049e+00
-3.552608e+00
-4.168291e+00
-4.817534e+00
-5.503722e+00
-6.227438e+00
-6.991235e+00
-7.792210e+00
-8.629434e+00
-9.501139e+00
-1.040755e+01
-1.134913e+01
-1.232527e+01
-1.333543e+01
-1.437982e+01