TITLE = "Solution"
VARIABLES = x, y, u, v, psiu, psiv, t, stress
ZONE T="structure" N=561 E=512 F=FEBLOCK ET=QUADRILATERAL VARLOCATION=([7,8]=cellcentered)
0.000000e+00
6.250000e+00
1.250000e+01
1.875000e+01
2.500000e+01
3.125000e+01
3.750000e+01
4.375000e+01
5.000000e+01
5.625000e+01
6.250000e+01
6.875000e+01
7.500000e+01
8.125000e+01
8.750000e+01
9.375000e+01
1.000000e+02
1.062500e+02
1.125000e+02
1.187500e+02
1.250000e+02
1.312500e+02
1.375000e+02
1.437500e+02
1.500000e+02
1.562500e+02
1.625000e+02
1.687500e+02
1.750000e+02
1.812500e+02
1.875000e+02
1.937500e+02
2.000000e+02
0.000000e+00
6.250000e+00
1.250000e+01
1.875000e+01
2.500000e+01
3.125000e+01
3.750000e+01
4.375000e+01
5.000000e+01
5.625000e+01
6.250000e+01
6.875000e+01
7.500000e+01
8.125000e+01
8.750000e+01
9.375000e+01
1.000000e+02
1.062500e+02
1.125000e+02
1.187500e+02
1.250000e+02
1.312500e+02
1.375000e+02
1.437500e+02
1.500000e+02
1.562500e+02
1.625000e+02
1.687500e+02
1.750000e+02
1.812500e+02
1.875000e+02
1.937500e+02
2.000000e+02
0.000000e+00
6.250000e+00
1.250000e+01
1.875000e+01
2.500000e+01
3.125000e+01
3.750000e+01
4.375000e+01
5.000000e+01
5.625000e+01
6.250000e+01
6.875000e+01
7.500000e+01
8.125000e+01
8.750000e+01
9.375000e+01
1.000000e+02
1.062500e+02
1.125000e+02
1.187500e+02
1.250000e+02
1.312500e+02
1.375000e+02
1.437500e+02
1.500000e+02
1.562500e+02
1.625000e+02
1.687500e+02
1.750000e+02
1.812500e+02
1.875000e+02
1.937500e+02
2.000000e+02
0.000000e+00
6.250000e+00
1.250000e+01
1.875000e+01
2.500000e+01
3.125000e+01
3.750000e+01
4.375000e+01
5.000000e+01
5.625000e+01
6.250000e+01
6.875000e+01
7.500000e+01
8.125000e+01
8.750000e+01
9.375000e+01
1.000000e+02
1.062500e+02
1.125000e+02
1.187500e+02
1.250000e+02
1.312500e+02
1.375000e+02
1.437500e+02
1.500000e+02
1.562500e+02
1.625000e+02
1.687500e+02
1.750000e+02
1.812500e+02
1.875000e+02
1.937500e+02
2.000000e+02
0.000000e+00
6.250000e+00
1.250000e+01
1.875000e+01
2.500000e+01
3.125000e+01
3.750000e+01
4.375000e+01
5.000000e+01
5.625000e+01
6.250000e+01
6.875000e+01
7.500000e+01
8.125000e+01
8.750000e+01
9.375000e+01
1.000000e+02
1.062500e+02
1.125000e+02
1.187500e+02
1.250000e+02
1.312500e+02
1.375000e+02
1.437500e+02
1.500000e+02
1.562500e+02
1.625000e+02
1.687500e+02
1.750000e+02
1.812500e+02
1.875000e+02
1.937500e+02
2.000000e+02
0.000000e+00
6.250000e+00
1.250000e+01
1.875000e+01
2.500000e+01
3.125000e+01
3.750000e+01
4.375000e+01
5.000000e+01
5.625000e+01
6.250000e+01
6.875000e+01
7.500000e+01
8.125000e+01
8.750000e+01
9.375000e+01
1.000000e+02
1.062500e+02
1.125000e+02
1.187500e+02
1.250000e+02
1.312500e+02
1.375000e+02
1.437500e+02
1.500000e+02
1.562500e+02
1.625000e+02
1.687500e+02
1.750000e+02
1.812500e+02
1.875000e+02
1.937500e+02
2.000000e+02
0.000000e+00
6.250000e+00
1.250000e+01
1.875000e+01
2.500000e+01
3.125000e+01
3.750000e+01
4.375000e+01
5.000000e+01
5.625000e+01
6.250000e+01
6.875000e+01
7.500000e+01
8.125000e+01
8.750000e+01
9.375000e+01
1.000000e+02
1.062500e+02
1.125000e+02
1.187500e+02
1.250000e+02
1.312500e+02
1.375000e+02
1.437500e+02
1.500000e+02
1.562500e+02
1.625000e+02
1.687500e+02
1.750000e+02
1.812500e+02
1.875000e+02
1.937500e+02
2.000000e+02
0.000000e+00
6.250000e+00
1.250000e+01
1.875000e+01
2.500000e+01
3.125000e+01
3.750000e+01
4.375000e+01
5.000000e+01
5.625000e+01
6.250000e+01
6.875000e+01
7.500000e+01
8.125000e+01
8.750000e+01
9.375000e+01
1.000000e+02
1.062500e+02
1.125000e+02
1.187500e+02
1.250000e+02
1.312500e+02
1.375000e+02
1.437500e+02
1.500000e+02
1.562500e+02
1.625000e+02
1.687500e+02
1.750000e+02
1.812500e+02
1.875000e+02
1.937500e+02
2.000000e+02
0.000000e+00
6.250000e+00
1.250000e+01
1.875000e+01
2.500000e+01
3.125000e+01
3.750000e+01
4.375000e+01
5.000000e+01
5.625000e+01
6.250000e+01
6.875000e+01
7.500000e+01
8.125000e+01
8.750000e+01
9.375000e+01
1.000000e+02
1.062500e+02
1.125000e+02
1.187500e+02
1.250000e+02
1.312500e+02
1.375000e+02
1.437500e+02
1.500000e+02
1.562500e+02
1.625000e+02
1.687500e+02
1.750000e+02
1.812500e+02
1.875000e+02
1.937500e+02
2.000000e+02
0.000000e+00
6.250000e+00
1.250000e+01
1.875000e+01
2.500000e+01
3.125000e+01
3.750000e+01
4.375000e+01
5.000000e+01
5.625000e+01
6.250000e+01
6.875000e+01
7.500000e+01
8.125000e+01
8.750000e+01
9.375000e+01
1.000000e+02
1.062500e+02
1.125000e+02
1.187500e+02
1.250000e+02
1.312500e+02
1.375000e+02
1.437500e+02
1.500000e+02
1.562500e+02
1.625000e+02
1.687500e+02
1.750000e+02
1.812500e+02
1.875000e+02
1.937500e+02
2.000000e+02
0.000000e+00
6.250000e+00
1.250000e+01
1.875000e+01
2.500000e+01
3.125000e+01
3.750000e+01
4.375000e+01
5.000000e+01
5.625000e+01
6.250000e+01
6.875000e+01
7.500000e+01
8.125000e+01
8.750000e+01
9.375000e+01
1.000000e+02
1.062500e+02
1.125000e+02
1.187500e+02
1.250000e+02
1.312500e+02
1.375000e+02
1.437500e+02
1.500000e+02
1.562500e+02
1.625000e+02
1.687500e+02
1.750000e+02
1.812500e+02
1.875000e+02
1.937500e+02
2.000000e+02
0.000000e+00
6.250000e+00
1.250000e+01
1.875000e+01
2.500000e+01
3.125000e+01
3.750000e+01
4.375000e+01
5.000000e+01
5.625000e+01
6.250000e+01
6.875000e+01
7.500000e+01
8.125000e+01
8.750000e+01
9.375000e+01
1.000000e+02
1.062500e+02
1.125000e+02
1.187500e+02
1.250000e+02
1.312500e+02
1.375000e+02
1.437500e+02
1.500000e+02
1.562500e+02
1.625000e+02
1.687500e+02
1.750000e+02
1.812500e+02
1.875000e+02
1.937500e+02
2.000000e+02
0.000000e+00
6.250000e+00
1.250000e+01
1.875000e+01
2.500000e+01
3.125000e+01
3.750000e+01
4.375000e+01
5.000000e+01
5.625000e+01
6.250000e+01
6.875000e+01
7.500000e+01
8.125000e+01
8.750000e+01
9.375000e+01
1.000000e+02
1.062500e+02
1.125000e+02
1.187500e+02
1.250000e+02
1.312500e+02
1.375000e+02
1.437500e+02
1.500000e+02
1.562500e+02
1.625000e+02
1.687500e+02
1.750000e+02
1.812500e+02
1.875000e+02
1.937500e+02
2.000000e+02
0.000000e+00
6.250000e+00
1.250000e+01
1.875000e+01
2.500000e+01
3.125000e+01
3.750000e+01
4.375000e+01
5.000000e+01
5.625000e+01
6.250000e+01
6.875000e+01
7.500000e+01
8.125000e+01
8.750000e+01
9.375000e+01
1.000000e+02
1.062500e+02
1.125000e+02
1.187500e+02
1.250000e+02
1.312500e+02
1.375000e+02
1.437500e+02
1.500000e+02
1.562500e+02
1.625000e+02
1.687500e+02
1.750000e+02
1.812500e+02
1.875000e+02
1.937500e+02
2.000000e+02
0.000000e+00
6.250000e+00
1.250000e+01
1.875000e+01
2.500000e+01
3.125000e+01
3.750000e+01
4.375000e+01
5.000000e+01
5.625000e+01
6.250000e+01
6.875000e+01
7.500000e+01
8.125000e+01
8.750000e+01
9.375000e+01
1.000000e+02
1.062500e+02
1.125000e+02
1.187500e+02
1.250000e+02
1.312500e+02
1.375000e+02
1.437500e+02
1.500000e+02
1.562500e+02
1.625000e+02
1.687500e+02
1.750000e+02
1.812500e+02
1.875000e+02
1.937500e+02
2.000000e+02
0.000000e+00
6.250000e+00
1.250000e+01
1.875000e+01
2.500000e+01
3.125000e+01
3.750000e+01
4.375000e+01
5.000000e+01
5.625000e+01
6.250000e+01
6.875000e+01
7.500000e+01
8.125000e+01
8.750000e+01
9.375000e+01
1.000000e+02
1.062500e+02
1.125000e+02
1.187500e+02
1.250000e+02
1.312500e+02
1.375000e+02
1.437500e+02
1.500000e+02
1.562500e+02
1.625000e+02
1.687500e+02
1.750000e+02
1.812500e+02
1.875000e+02
1.937500e+02
2.000000e+02
0.000000e+00
6.250000e+00
1.250000e+01
1.875000e+01
2.500000e+01
3.125000e+01
3.750000e+01
4.375000e+01
5.000000e+01
5.625000e+01
6.250000e+01
6.875000e+01
7.500000e+01
8.125000e+01
8.750000e+01
9.375000e+01
1.000000e+02
1.062500e+02
1.125000e+02
1.187500e+02
1.250000e+02
1.312500e+02
1.375000e+02
1.437500e+02
1.500000e+02
1.562500e+02
1.625000e+02
1.687500e+02
1.750000e+02
1.812500e+02
1.875000e+02
1.937500e+02
2.000000e+02
0.000000e+00
0.000000e+00
0.000000e+00
0.000000e+00
0.000000e+00
0.000000e+00
0.000000e+00
0.000000e+00
0.000000e+00
0.000000e+00
0.000000e+00
0.000000e+00
0.000000e+00
0.000000e+00
0.000000e+00
0.000000e+00
0.000000e+00
0.000000e+00
0.000000e+00
0.000000e+00
0.000000e+00
0.000000e+00
0.000000e+00
0.000000e+00
0.000000e+00
0.000000e+00
0.000000e+00
0.000000e+00
0.000000e+00
0.000000e+00
0.000000e+00
0.000000e+00
0.000000e+00
6.250000e+00
6.250000e+00
6.250000e+00
6.250000e+00
6.250000e+00
6.250000e+00
6.250000e+00
6.250000e+00
6.250000e+00
6.250000e+00
6.250000e+00
6.250000e+00
6.250000e+00
6.250000e+00
6.250000e+00
6.250000e+00
6.250000e+00
6.250000e+00
6.250000e+00
6.250000e+00
6.250000e+00
6.250000e+00
6.250000e+00
6.250000e+00
6.250000e+00
6.250000e+00
6.250000e+00
6.250000e+00
6.250000e+00
6.250000e+00
6.250000e+00
6.250000e+00
6.250000e+00
1.250000e+01
1.250000e+01
1.250000e+01
1.250000e+01
1.250000e+01
1.250000e+01
1.250000e+01
1.250000e+01
1.250000e+01
1.250000e+01
1.250000e+01
1.250000e+01
1.250000e+01
1.250000e+01
1.250000e+01
1.250000e+01
1.250000e+01
1.250000e+01
1.250000e+01
1.250000e+01
1.250000e+01
1.250000e+01
1.250000e+01
1.250000e+01
1.250000e+01
1.250000e+01
1.250000e+01
1.250000e+01
1.250000e+01
1.250000e+01
1.250000e+01
1.250000e+01
1.250000e+01
1.875000e+01
1.875000e+01
1.875000e+01
1.875000e+01
1.875000e+01
1.875000e+01
1.875000e+01
1.875000e+01
1.875000e+01
1.875000e+01
1.875000e+01
1.875000e+01
1.875000e+01
1.875000e+01
1.875000e+01
1.875000e+01
1.875000e+01
1.875000e+01
1.875000e+01
1.875000e+01
1.875000e+01
1.875000e+01
1.875000e+01
1.875000e+01
1.875000e+01
1.875000e+01
1.875000e+01
1.875000e+01
1.875000e+01
1.875000e+01
1.875000e+01
1.875000e+01
1.875000e+01
2.500000e+01
2.500000e+01
2.500000e+01
2.500000e+01
2.500000e+01
2.500000e+01
2.500000e+01
2.500000e+01
2.500000e+01
2.500000e+01
2.500000e+01
2.500000e+01
2.500000e+01
2.500000e+01
2.500000e+01
2.500000e+01
2.500000e+01
2.500000e+01
2.500000e+01
2.500000e+01
2.500000e+01
2.500000e+01
2.500000e+01
2.500000e+01
2.500000e+01
2.500000e+01
2.500000e+01
2.500000e+01
2.500000e+01
2.500000e+01
2.500000e+01
2.500000e+01
2.500000e+01
3.125000e+01
3.125000e+01
3.125000e+01
3.125000e+01
3.125000e+01
3.125000e+01
3.125000e+01
3.125000e+01
3.125000e+01
3.125000e+01
3.125000e+01
3.125000e+01
3.125000e+01
3.125000e+01
3.125000e+01
3.125000e+01
3.125000e+01
3.125000e+01
3.125000e+01
3.125000e+01
3.125000e+01
3.125000e+01
3.125000e+01
3.125000e+01
3.125000e+01
3.125000e+01
3.125000e+01
3.125000e+01
3.125000e+01
3.125000e+01
3.125000e+01
3.125000e+01
3.125000e+01
3.750000e+01
3.750000e+01
3.750000e+01
3.750000e+01
3.750000e+01
3.750000e+01
3.750000e+01
3.750000e+01
3.750000e+01
3.750000e+01
3.750000e+01
3.750000e+01
3.750000e+01
3.750000e+01
3.750000e+01
3.750000e+01
3.750000e+01
3.750000e+01
3.750000e+01
3.750000e+01
3.750000e+01
3.750000e+01
3.750000e+01
3.750000e+01
3.750000e+01
3.750000e+01
3.750000e+01
3.750000e+01
3.750000e+01
3.750000e+01
3.750000e+01
3.750000e+01
3.750000e+01
4.375000e+01
4.375000e+01
4.375000e+01
4.375000e+01
4.375000e+01
4.375000e+01
4.375000e+01
4.375000e+01
4.375000e+01
4.375000e+01
4.375000e+01
4.375000e+01
4.375000e+01
4.375000e+01
4.375000e+01
4.375000e+01
4.375000e+01
4.375000e+01
4.375000e+01
4.375000e+01
4.375000e+01
4.375000e+01
4.375000e+01
4.375000e+01
4.375000e+01
4.375000e+01
4.375000e+01
4.375000e+01
4.375000e+01
4.375000e+01
4.375000e+01
4.375000e+01
4.375000e+01
5.000000e+01
5.000000e+01
5.000000e+01
5.000000e+01
5.000000e+01
5.000000e+01
5.000000e+01
5.000000e+01
5.000000e+01
5.000000e+01
5.000000e+01
5.000000e+01
5.000000e+01
5.000000e+01
5.000000e+01
5.000000e+01
5.000000e+01
5.000000e+01
5.000000e+01
5.000000e+01
5.000000e+01
5.000000e+01
5.000000e+01
5.000000e+01
5.000000e+01
5.000000e+01
5.000000e+01
5.000000e+01
5.000000e+01
5.000000e+01
5.000000e+01
5.000000e+01
5.000000e+01
5.625000e+01
5.625000e+01
5.625000e+01
5.625000e+01
5.625000e+01
5.625000e+01
5.625000e+01
5.625000e+01
5.625000e+01
5.625000e+01
5.625000e+01
5.625000e+01
5.625000e+01
5.625000e+01
5.625000e+01
5.625000e+01
5.625000e+01
5.625000e+01
5.625000e+01
5.625000e+01
5.625000e+01
5.625000e+01
5.625000e+01
5.625000e+01
5.625000e+01
5.625000e+01
5.625000e+01
5.625000e+01
5.625000e+01
5.625000e+01
5.625000e+01
5.625000e+01
5.625000e+01
6.250000e+01
6.250000e+01
6.250000e+01
6.250000e+01
6.250000e+01
6.250000e+01
6.250000e+01
6.250000e+01
6.250000e+01
6.250000e+01
6.250000e+01
6.250000e+01
6.250000e+01
6.250000e+01
6.250000e+01
6.250000e+01
6.250000e+01
6.250000e+01
6.250000e+01
6.250000e+01
6.250000e+01
6.250000e+01
6.250000e+01
6.250000e+01
6.250000e+01
6.250000e+01
6.250000e+01
6.250000e+01
6.250000e+01
6.250000e+01
6.250000e+01
6.250000e+01
6.250000e+01
6.875000e+01
6.875000e+01
6.875000e+01
6.875000e+01
6.875000e+01
6.875000e+01
6.875000e+01
6.875000e+01
6.875000e+01
6.875000e+01
6.875000e+01
6.875000e+01
6.875000e+01
6.875000e+01
6.875000e+01
6.875000e+01
6.875000e+01
6.875000e+01
6.875000e+01
6.875000e+01
6.875000e+01
6.875000e+01
6.875000e+01
6.875000e+01
6.875000e+01
6.875000e+01
6.875000e+01
6.875000e+01
6.875000e+01
6.875000e+01
6.875000e+01
6.875000e+01
6.875000e+01
7.500000e+01
7.500000e+01
7.500000e+01
7.500000e+01
7.500000e+01
7.500000e+01
7.500000e+01
7.500000e+01
7.500000e+01
7.500000e+01
7.500000e+01
7.500000e+01
7.500000e+01
7.500000e+01
7.500000e+01
7.500000e+01
7.500000e+01
7.500000e+01
7.500000e+01
7.500000e+01
7.500000e+01
7.500000e+01
7.500000e+01
7.500000e+01
7.500000e+01
7.500000e+01
7.500000e+01
7.500000e+01
7.500000e+01
7.500000e+01
7.500000e+01
7.500000e+01
7.500000e+01
8.125000e+01
8.125000e+01
8.125000e+01
8.125000e+01
8.125000e+01
8.125000e+01
8.125000e+01
8.125000e+01
8.125000e+01
8.125000e+01
8.125000e+01
8.125000e+01
8.125000e+01
8.125000e+01
8.125000e+01
8.125000e+01
8.125000e+01
8.125000e+01
8.125000e+01
8.125000e+01
8.125000e+01
8.125000e+01
8.125000e+01
8.125000e+01
8.125000e+01
8.125000e+01
8.125000e+01
8.125000e+01
8.125000e+01
8.125000e+01
8.125000e+01
8.125000e+01
8.125000e+01
8.750000e+01
8.750000e+01
8.750000e+01
8.750000e+01
8.750000e+01
8.750000e+01
8.750000e+01
8.750000e+01
8.750000e+01
8.750000e+01
8.750000e+01
8.750000e+01
8.750000e+01
8.750000e+01
8.750000e+01
8.750000e+01
8.750000e+01
8.750000e+01
8.750000e+01
8.750000e+01
8.750000e+01
8.750000e+01
8.750000e+01
8.750000e+01
8.750000e+01
8.750000e+01
8.750000e+01
8.750000e+01
8.750000e+01
8.750000e+01
8.750000e+01
8.750000e+01
8.750000e+01
9.375000e+01
9.375000e+01
9.375000e+01
9.375000e+01
9.375000e+01
9.375000e+01
9.375000e+01
9.375000e+01
9.375000e+01
9.375000e+01
9.375000e+01
9.375000e+01
9.375000e+01
9.375000e+01
9.375000e+01
9.375000e+01
9.375000e+01
9.375000e+01
9.375000e+01
9.375000e+01
9.375000e+01
9.375000e+01
9.375000e+01
9.375000e+01
9.375000e+01
9.375000e+01
9.375000e+01
9.375000e+01
9.375000e+01
9.375000e+01
9.375000e+01
9.375000e+01
9.375000e+01
1.000000e+02
1.000000e+02
1.000000e+02
1.000000e+02
1.000000e+02
1.000000e+02
1.000000e+02
1.000000e+02
1.000000e+02
1.000000e+02
1.000000e+02
1.000000e+02
1.000000e+02
1.000000e+02
1.000000e+02
1.000000e+02
1.000000e+02
1.000000e+02
1.000000e+02
1.000000e+02
1.000000e+02
1.000000e+02
1.000000e+02
1.000000e+02
1.000000e+02
1.000000e+02
1.000000e+02
1.000000e+02
1.000000e+02
1.000000e+02
1.000000e+02
1.000000e+02
1.000000e+02
0.000000e+00
-4.723422e-01
-7.827448e-01
-1.122770e+00
-1.424401e+00
-1.716291e+00
-2.028291e+00
-2.315554e+00
-2.615227e+00
-2.908804e+00
-3.205858e+00
-3.505035e+00
-3.804473e+00
-4.103969e+00
-4.404185e+00
-4.705046e+00
-5.007852e+00
-5.311231e+00
-5.613838e+00
-5.916386e+00
-6.218462e+00
-6.520374e+00
-6.822663e+00
-7.119972e+00
-7.413302e+00
-7.718224e+00
-8.017399e+00
-8.348541e+00
-8.667427e+00
-9.020684e+00
-9.509932e+00
-9.926378e+00
-1.013048e+01
0.000000e+00
-2.335517e-01
-4.702202e-01
-7.357604e-01
-1.001737e+00
-1.254457e+00
-1.524368e+00
-1.784631e+00
-2.047176e+00
-2.312139e+00
-2.572681e+00
-2.837754e+00
-3.098181e+00
-3.362073e+00
-3.623420e+00
-3.885702e+00
-4.148240e+00
-4.408726e+00
-4.671836e+00
-4.931674e+00
-5.194202e+00
-5.454341e+00
-5.715912e+00
-5.976174e+00
-6.237289e+00
-6.498450e+00
-6.757827e+00
-7.022090e+00
-7.276351e+00
-7.533183e+00
-7.787714e+00
-7.888885e+00
-7.994702e+00
0.000000e+00
-1.027882e-01
-2.376905e-01
-4.342286e-01
-6.529731e-01
-8.602509e-01
-1.086024e+00
-1.313627e+00
-1.541010e+00
-1.772644e+00
-1.996705e+00
-2.223728e+00
-2.445999e+00
-2.671190e+00
-2.894882e+00
-3.117511e+00
-3.339903e+00
-3.560114e+00
-3.783770e+00
-4.005764e+00
-4.230837e+00
-4.454049e+00
-4.678465e+00
-4.907808e+00
-5.137771e+00
-5.360813e+00
-5.573042e+00
-5.770414e+00
-5.949942e+00
-6.098907e+00
-6.186599e+00
-6.192233e+00
-6.285117e+00
0.000000e+00
-1.024744e-01
-1.858850e-01
-3.413578e-01
-4.643758e-01
-6.188835e-01
-7.959702e-01
-9.655725e-01
-1.159078e+00
-1.336688e+00
-1.521692e+00
-1.704331e+00
-1.886031e+00
-2.071944e+00
-2.255911e+00
-2.441479e+00
-2.626280e+00
-2.812961e+00
-3.002748e+00
-3.194105e+00
-3.388240e+00
-3.581788e+00
-3.776390e+00
-3.971691e+00
-4.157707e+00
-4.331662e+00
-4.481001e+00
-4.613277e+00
-4.714122e+00
-4.777617e+00
-4.792756e+00
-4.810123e+00
-4.890567e+00
0.000000e+00
-9.306269e-02
-1.846571e-01
-2.756504e-01
-3.892243e-01
-5.049381e-01
-6.371624e-01
-7.715686e-01
-9.166222e-01
-1.057615e+00
-1.203821e+00
-1.349228e+00
-1.492517e+00
-1.642259e+00
-1.784968e+00
-1.935429e+00
-2.080763e+00
-2.230225e+00
-2.379912e+00
-2.528364e+00
-2.679196e+00
-2.825276e+00
-2.970110e+00
-3.107489e+00
-3.235938e+00
-3.350004e+00
-3.446951e+00
-3.520938e+00
-3.569490e+00
-3.593958e+00
-3.597390e+00
-3.627142e+00
-3.698507e+00
0.000000e+00
-7.446077e-02
-1.459587e-01
-2.209881e-01
-3.024729e-01
-3.920585e-01
-4.868578e-01
-5.881317e-01
-6.918907e-01
-7.997629e-01
-9.072122e-01
-1.016021e+00
-1.124793e+00
-1.232781e+00
-1.342257e+00
-1.450192e+00
-1.559571e+00
-1.667554e+00
-1.775387e+00
-1.881991e+00
-1.985962e+00
-2.087012e+00
-2.181884e+00
-2.269573e+00
-2.347197e+00
-2.412869e+00
-2.464220e+00
-2.499077e+00
-2.521694e+00
-2.522118e+00
-2.517363e+00
-2.543783e+00
-2.609612e+00
0.000000e+00
-5.129739e-02
-1.020430e-01
-1.539131e-01
-2.093983e-01
-2.687770e-01
-3.322076e-01
-3.986311e-01
-4.678664e-01
-5.385603e-01
-6.102568e-01
-6.820299e-01
-7.535830e-01
-8.249394e-01
-8.957538e-01
-9.664114e-01
-1.036218e+00
-1.105183e+00
-1.172583e+00
-1.237864e+00
-1.300174e+00
-1.358100e+00
-1.410287e+00
-1.454846e+00
-1.490827e+00
-1.515969e+00
-1.529995e+00
-1.535545e+00
-1.519171e+00
-1.489167e+00
-1.477856e+00
-1.501108e+00
-1.565343e+00
0.000000e+00
-2.704299e-02
-5.393330e-02
-8.140168e-02
-1.101599e-01
-1.406567e-01
-1.727691e-01
-2.063527e-01
-2.409881e-01
-2.763472e-01
-3.118750e-01
-3.472120e-01
-3.820683e-01
-4.162754e-01
-4.498204e-01
-4.825158e-01
-5.141749e-01
-5.443502e-01
-5.727053e-01
-5.987141e-01
-6.217021e-01
-6.408550e-01
-6.549047e-01
-6.628975e-01
-6.632187e-01
-6.566627e-01
-6.408481e-01
-6.022965e-01
-5.525388e-01
-5.009527e-01
-4.738952e-01
-4.969997e-01
-5.639785e-01
0.000000e+00
-1.999640e-03
-4.047591e-03
-6.057609e-03
-7.915385e-03
-9.493914e-03
-1.073077e-02
-1.163534e-02
-1.226255e-02
-1.259086e-02
-1.251053e-02
-1.186197e-02
-1.049530e-02
-8.248511e-03
-4.883066e-03
-3.047080e-04
5.735844e-03
1.368408e-02
2.359762e-02
3.535641e-02
4.960273e-02
6.656590e-02
8.585224e-02
1.103050e-01
1.407923e-01
1.822014e-01
2.427316e-01
3.151476e-01
3.886073e-01
4.395822e-01
4.553011e-01
4.228767e-01
3.427747e-01
0.000000e+00
2.319507e-02
4.616127e-02
6.977481e-02
9.499858e-02
1.225442e-01
1.524525e-01
1.844591e-01
2.180068e-01
2.526544e-01
2.880434e-01
3.240499e-01
3.606450e-01
3.983065e-01
4.375776e-01
4.788070e-01
5.225081e-01
5.683489e-01
6.162683e-01
6.656792e-01
7.154122e-01
7.666307e-01
8.222013e-01
8.816577e-01
9.491808e-01
1.032411e+00
1.122358e+00
1.214057e+00
1.288541e+00
1.332380e+00
1.329251e+00
1.283146e+00
1.220262e+00
0.000000e+00
4.785656e-02
9.517667e-02
1.437213e-01
1.962043e-01
2.533638e-01
3.153462e-01
3.810313e-01
4.496464e-01
5.198439e-01
5.907871e-01
6.615761e-01
7.323366e-01
8.038299e-01
8.772589e-01
9.544595e-01
1.035704e+00
1.119658e+00
1.205273e+00
1.291997e+00
1.381797e+00
1.471231e+00
1.563385e+00
1.666389e+00
1.775094e+00
1.885889e+00
1.995418e+00
2.084197e+00
2.148148e+00
2.174615e+00
2.166988e+00
2.137076e+00
2.092959e+00
0.000000e+00
7.146900e-02
1.402501e-01
2.129634e-01
2.925854e-01
3.811841e-01
4.763783e-01
5.776546e-01
6.820950e-01
7.899700e-01
8.981444e-01
1.006838e+00
1.114881e+00
1.223511e+00
1.333036e+00
1.443238e+00
1.557158e+00
1.674506e+00
1.794278e+00
1.917361e+00
2.045956e+00
2.182392e+00
2.324525e+00
2.466809e+00
2.605047e+00
2.734301e+00
2.846569e+00
2.935493e+00
2.990963e+00
3.018914e+00
3.022405e+00
3.004379e+00
2.976844e+00
0.000000e+00
9.025286e-02
1.792776e-01
2.693606e-01
3.836430e-01
5.027962e-01
6.353805e-01
7.728979e-01
9.167968e-01
1.059849e+00
1.206785e+00
1.353113e+00
1.500356e+00
1.651585e+00
1.802345e+00
1.957436e+00
2.112500e+00
2.272579e+00
2.438368e+00
2.604910e+00
2.774064e+00
2.946149e+00
3.116266e+00
3.280912e+00
3.433930e+00
3.575092e+00
3.696065e+00
3.786841e+00
3.853336e+00
3.892491e+00
3.905407e+00
3.898882e+00
3.884372e+00
0.000000e+00
9.866281e-02
1.795183e-01
3.322722e-01
4.600217e-01
6.232276e-01
8.053556e-01
9.747442e-01
1.168486e+00
1.345477e+00
1.528132e+00
1.708113e+00
1.890898e+00
2.080603e+00
2.274703e+00
2.476468e+00
2.680537e+00
2.886046e+00
3.096299e+00
3.309599e+00
3.519983e+00
3.724827e+00
3.921017e+00
4.105669e+00
4.280386e+00
4.437770e+00
4.573007e+00
4.679921e+00
4.756473e+00
4.804243e+00
4.826439e+00
4.829247e+00
4.824509e+00
0.000000e+00
1.004434e-01
2.311235e-01
4.196360e-01
6.369088e-01
8.474578e-01
1.078774e+00
1.310016e+00
1.539993e+00
1.774622e+00
1.998151e+00
2.223954e+00
2.445659e+00
2.672284e+00
2.900089e+00
3.131639e+00
3.365869e+00
3.597097e+00
3.828540e+00
4.061051e+00
4.295367e+00
4.524258e+00
4.744679e+00
4.965927e+00
5.177023e+00
5.363588e+00
5.513160e+00
5.627843e+00
5.710319e+00
5.763191e+00
5.790883e+00
5.799935e+00
5.801046e+00
0.000000e+00
2.337923e-01
4.714995e-01
7.363611e-01
1.001668e+00
1.253891e+00
1.523046e+00
1.783742e+00
2.045627e+00
2.310318e+00
2.570217e+00
2.834440e+00
3.093780e+00
3.355828e+00
3.615600e+00
3.875254e+00
4.135302e+00
4.392675e+00
4.650524e+00
4.904399e+00
5.159797e+00
5.413121e+00
5.666387e+00
5.924945e+00
6.169067e+00
6.369935e+00
6.527424e+00
6.644223e+00
6.724412e+00
6.773611e+00
6.798750e+00
6.807855e+00
6.810093e+00
0.000000e+00
4.735087e-01
7.900989e-01
1.135492e+00
1.440049e+00
1.729660e+00
2.037758e+00
2.322445e+00
2.619015e+00
2.910032e+00
3.205748e+00
3.505347e+00
3.802861e+00
4.100268e+00
4.393876e+00
4.684936e+00
4.972245e+00
5.261355e+00
5.551880e+00
5.839788e+00
6.127498e+00
6.415433e+00
6.707346e+00
7.000109e+00
7.265756e+00
7.476575e+00
7.634722e+00
7.743586e+00
7.808442e+00
7.837558e+00
7.842650e+00
7.838031e+00
7.835478e+00
0.000000e+00
-2.792539e-01
-5.897122e-01
-9.867588e-01
-1.419190e+00
-1.888994e+00
-2.399438e+00
-2.940519e+00
-3.517106e+00
-4.125097e+00
-4.766975e+00
-5.444876e+00
-6.159276e+00
-6.911802e+00
-7.701128e+00
-8.528996e+00
-9.395247e+00
-1.030176e+01
-1.124828e+01
-1.223444e+01
-1.326070e+01
-1.432665e+01
-1.543403e+01
-1.658115e+01
-1.776576e+01
-1.898947e+01
-2.025660e+01
-2.157776e+01
-2.295945e+01
-2.442219e+01
-2.598296e+01
-2.779096e+01
-3.032824e+01
0.000000e+00
-1.802247e-01
-5.092695e-01
-8.989995e-01
-1.338273e+00
-1.804555e+00
-2.314879e+00
-2.858104e+00
-3.432901e+00
-4.041982e+00
-4.682809e+00
-5.361034e+00
-6.075172e+00
-6.827921e+00
-7.617246e+00
-8.444824e+00
-9.311190e+00
-1.021738e+01
-1.116431e+01
-1.215024e+01
-1.317669e+01
-1.424228e+01
-1.534977e+01
-1.649771e+01
-1.768203e+01
-1.890530e+01
-2.017087e+01
-2.149039e+01
-2.287366e+01
-2.432727e+01
-2.590737e+01
-2.770259e+01
-2.995343e+01
0.000000e+00
-1.593350e-01
-4.501448e-01
-8.425248e-01
-1.271719e+00
-1.735656e+00
-2.243984e+00
-2.784978e+00
-3.361193e+00
-3.969016e+00
-4.611018e+00
-5.289334e+00
-6.003639e+00
-6.756481e+00
-7.546414e+00
-8.374080e+00
-9.241023e+00
-1.014684e+01
-1.109372e+01
-1.207949e+01
-1.310574e+01
-1.417106e+01
-1.527690e+01
-1.642427e+01
-1.760957e+01
-1.883566e+01
-2.010312e+01
-2.142776e+01
-2.281480e+01
-2.428887e+01
-2.591191e+01
-2.759654e+01
-2.934482e+01
0.000000e+00
-2.047686e-01
-4.501865e-01
-8.391579e-01
-1.237100e+00
-1.689948e+00
-2.196793e+00
-2.724642e+00
-3.307449e+00
-3.909382e+00
-4.554482e+00
-5.233161e+00
-5.945598e+00
-6.701390e+00
-7.488752e+00
-8.319629e+00
-9.184963e+00
-1.009124e+01
-1.103776e+01
-1.202218e+01
-1.304948e+01
-1.411339e+01
-1.521843e+01
-1.636547e+01
-1.755325e+01
-1.878554e+01
-2.005913e+01
-2.139095e+01
-2.278672e+01
-2.428045e+01
-2.589607e+01
-2.744580e+01
-2.884496e+01
0.000000e+00
-2.208447e-01
-4.890505e-01
-8.343322e-01
-1.234896e+00
-1.670431e+00
-2.167596e+00
-2.689757e+00
-3.267481e+00
-3.869417e+00
-4.513463e+00
-5.194096e+00
-5.904826e+00
-6.663479e+00
-7.448621e+00
-8.281931e+00
-9.146215e+00
-1.005269e+01
-1.099917e+01
-1.198252e+01
-1.301044e+01
-1.407402e+01
-1.518052e+01
-1.632828e+01
-1.751975e+01
-1.875538e+01
-2.003718e+01
-2.137249e+01
-2.277085e+01
-2.426051e+01
-2.579568e+01
-2.724484e+01
-2.851195e+01
0.000000e+00
-2.277530e-01
-5.054992e-01
-8.403092e-01
-1.228286e+00
-1.663598e+00
-2.145961e+00
-2.670624e+00
-3.237761e+00
-3.842630e+00
-4.484748e+00
-5.164458e+00
-5.879703e+00
-6.633809e+00
-7.424490e+00
-8.253849e+00
-9.121359e+00
-1.002751e+01
-1.097394e+01
-1.195979e+01
-1.298667e+01
-1.405371e+01
-1.516185e+01
-1.631239e+01
-1.750597e+01
-1.874353e+01
-2.002791e+01
-2.136259e+01
-2.275012e+01
-2.419949e+01
-2.564073e+01
-2.700885e+01
-2.821407e+01
0.000000e+00
-2.314432e-01
-5.117162e-01
-8.435099e-01
-1.226201e+00
-1.657485e+00
-2.135219e+00
-2.657128e+00
-3.221152e+00
-3.824981e+00
-4.467215e+00
-5.146856e+00
-5.863692e+00
-6.617806e+00
-7.409482e+00
-8.239195e+00
-9.107399e+00
-1.001486e+01
-1.096215e+01
-1.194986e+01
-1.297836e+01
-1.404791e+01
-1.515891e+01
-1.631157e+01
-1.750649e+01
-1.874429e+01
-2.002476e+01
-2.135613e+01
-2.271119e+01
-2.410932e+01
-2.548602e+01
-2.678644e+01
-2.792834e+01
0.000000e+00
-2.328428e-01
-5.140384e-01
-8.449447e-01
-1.225584e+00
-1.654719e+00
-2.130526e+00
-2.650944e+00
-3.213911e+00
-3.817485e+00
-4.460060e+00
-5.140542e+00
-5.858300e+00
-6.613243e+00
-7.405589e+00
-8.235938e+00
-9.105063e+00
-1.001366e+01
-1.096239e+01
-1.195179e+01
-1.298229e+01
-1.405414e+01
-1.516735e+01
-1.632195e+01
-1.751580e+01
-1.875349e+01
-2.002623e+01
-2.133850e+01
-2.265891e+01
-2.400346e+01
-2.533463e+01
-2.657827e+01
-2.766448e+01
0.000000e+00
-2.331324e-01
-5.146322e-01
-8.455662e-01
-1.226061e+00
-1.655130e+00
-2.131031e+00
-2.651714e+00
-3.215154e+00
-3.819499e+00
-4.463157e+00
-5.144832e+00
-5.863723e+00
-6.619615e+00
-7.412699e+00
-8.243648e+00
-9.113712e+00
-1.002356e+01
-1.097348e+01
-1.196428e+01
-1.299651e+01
-1.406962e+01
-1.518413e+01
-1.633949e+01
-1.753232e+01
-1.876455e+01
-2.002305e+01
-2.130604e+01
-2.260256e+01
-2.389593e+01
-2.516721e+01
-2.633561e+01
-2.732683e+01
0.000000e+00
-2.326789e-01
-5.140938e-01
-8.456990e-01
-1.227647e+00
-1.658663e+00
-2.136659e+00
-2.659340e+00
-3.224617e+00
-3.830726e+00
-4.476131e+00
-5.159364e+00
-5.879468e+00
-6.636468e+00
-7.430502e+00
-8.261806e+00
-9.133088e+00
-1.004422e+01
-1.099518e+01
-1.198604e+01
-1.301995e+01
-1.409282e+01
-1.520568e+01
-1.636292e+01
-1.754853e+01
-1.876867e+01
-2.001008e+01
-2.127003e+01
-2.253732e+01
-2.379396e+01
-2.499899e+01
-2.610021e+01
-2.705917e+01
0.000000e+00
-2.312073e-01
-5.118938e-01
-8.450028e-01
-1.230366e+00
-1.665597e+00
-2.147843e+00
-2.674223e+00
-3.242619e+00
-3.851235e+00
-4.498825e+00
-5.183609e+00
-5.904594e+00
-6.662999e+00
-7.457992e+00
-8.290451e+00
-9.163257e+00
-1.007552e+01
-1.102771e+01
-1.201737e+01
-1.305068e+01
-1.412147e+01
-1.523203e+01
-1.638284e+01
-1.755980e+01
-1.876445e+01
-1.999475e+01
-2.123231e+01
-2.247399e+01
-2.368964e+01
-2.484918e+01
-2.591837e+01
-2.686690e+01
0.000000e+00
-2.275711e-01
-5.059704e-01
-8.425751e-01
-1.234502e+00
-1.676602e+00
-2.165757e+00
-2.697094e+00
-3.270208e+00
-3.881765e+00
-4.531345e+00
-5.217364e+00
-5.938421e+00
-6.697958e+00
-7.494052e+00
-8.329248e+00
-9.203580e+00
-1.011701e+01
-1.106905e+01
-1.205795e+01
-1.308624e+01
-1.415338e+01
-1.525813e+01
-1.639856e+01
-1.756634e+01
-1.876147e+01
-1.997985e+01
-2.120463e+01
-2.241941e+01
-2.360588e+01
-2.473597e+01
-2.578917e+01
-2.674168e+01
0.000000e+00
-2.205742e-01
-4.899375e-01
-8.377990e-01
-1.243063e+00
-1.690499e+00
-2.194735e+00
-2.727263e+00
-3.310110e+00
-3.921739e+00
-4.574096e+00
-5.260523e+00
-5.980913e+00
-6.743382e+00
-7.539739e+00
-8.378760e+00
-9.253995e+00
-1.016646e+01
-1.111703e+01
-1.210260e+01
-1.312565e+01
-1.418727e+01
-1.528389e+01
-1.641468e+01
-1.757527e+01
-1.876684e+01
-1.997951e+01
-2.118960e+01
-2.238456e+01
-2.354573e+01
-2.465721e+01
-2.570343e+01
-2.667066e+01
0.000000e+00
-2.034876e-01
-4.510442e-01
-8.434427e-01
-1.250321e+00
-1.716550e+00
-2.234285e+00
-2.770327e+00
-3.360749e+00
-3.971886e+00
-4.624795e+00
-5.310714e+00
-6.033710e+00
-6.798143e+00
-7.598077e+00
-8.438385e+00
-9.313846e+00
-1.022452e+01
-1.117154e+01
-1.215310e+01
-1.317104e+01
-1.422537e+01
-1.531315e+01
-1.643659e+01
-1.759867e+01
-1.879038e+01
-1.999577e+01
-2.119085e+01
-2.236684e+01
-2.350964e+01
-2.460760e+01
-2.565243e+01
-2.663993e+01
0.000000e+00
-1.564964e-01
-4.489154e-01
-8.464337e-01
-1.287873e+00
-1.765742e+00
-2.286037e+00
-2.835461e+00
-3.419795e+00
-4.035139e+00
-4.683873e+00
-5.370783e+00
-6.095642e+00
-6.861052e+00
-7.664175e+00
-8.504289e+00
-9.379622e+00
-1.028839e+01
-1.123299e+01
-1.221189e+01
-1.322551e+01
-1.427320e+01
-1.535387e+01
-1.647831e+01
-1.764329e+01
-1.883216e+01
-2.002318e+01
-2.120487e+01
-2.236544e+01
-2.349400e+01
-2.458200e+01
-2.562687e+01
-2.663471e+01
0.000000e+00
-1.768492e-01
-5.069998e-01
-9.032626e-01
-1.355346e+00
-1.836022e+00
-2.358000e+00
-2.910446e+00
-3.492972e+00
-4.108950e+00
-4.756197e+00
-5.443089e+00
-6.168196e+00
-6.934059e+00
-7.737567e+00
-8.577847e+00
-9.452204e+00
-1.035933e+01
-1.130271e+01
-1.228017e+01
-1.329209e+01
-1.433655e+01
-1.541782e+01
-1.654362e+01
-1.770519e+01
-1.888152e+01
-2.005926e+01
-2.122790e+01
-2.237603e+01
-2.349348e+01
-2.457371e+01
-2.561767e+01
-2.663939e+01
0.000000e+00
-2.767080e-01
-5.885853e-01
-9.918654e-01
-1.436424e+00
-1.919858e+00
-2.442149e+00
-2.992647e+00
-3.576892e+00
-4.191758e+00
-4.840370e+00
-5.526913e+00
-6.251967e+00
-7.017406e+00
-7.820231e+00
-8.660027e+00
-9.533417e+00
-1.044064e+01
-1.138308e+01
-1.236002e+01
-1.337153e+01
-1.441613e+01