TITLE = "Solution"
VARIABLES = x, y, u, v, psiu, psiv, t, stress
ZONE T="structure" N=561 E=512 F=FEBLOCK ET=QUADRILATERAL VARLOCATION=([7,8]=cellcentered)
0.000000e+00
6.250000e+00
1.250000e+01
1.875000e+01
2.500000e+01
3.125000e+01
3.750000e+01
4.375000e+01
5.000000e+01
5.625000e+01
6.250000e+01
6.875000e+01
7.500000e+01
8.125000e+01
8.750000e+01
9.375000e+01
1.000000e+02
1.062500e+02
1.125000e+02
1.187500e+02
1.250000e+02
1.312500e+02
1.375000e+02
1.437500e+02
1.500000e+02
1.562500e+02
1.625000e+02
1.687500e+02
1.750000e+02
1.812500e+02
1.875000e+02
1.937500e+02
2.000000e+02
0.000000e+00
6.250000e+00
1.250000e+01
1.875000e+01
2.500000e+01
3.125000e+01
3.750000e+01
4.375000e+01
5.000000e+01
5.625000e+01
6.250000e+01
6.875000e+01
7.500000e+01
8.125000e+01
8.750000e+01
9.375000e+01
1.000000e+02
1.062500e+02
1.125000e+02
1.187500e+02
1.250000e+02
1.312500e+02
1.375000e+02
1.437500e+02
1.500000e+02
1.562500e+02
1.625000e+02
1.687500e+02
1.750000e+02
1.812500e+02
1.875000e+02
1.937500e+02
2.000000e+02
0.000000e+00
6.250000e+00
1.250000e+01
1.875000e+01
2.500000e+01
3.125000e+01
3.750000e+01
4.375000e+01
5.000000e+01
5.625000e+01
6.250000e+01
6.875000e+01
7.500000e+01
8.125000e+01
8.750000e+01
9.375000e+01
1.000000e+02
1.062500e+02
1.125000e+02
1.187500e+02
1.250000e+02
1.312500e+02
1.375000e+02
1.437500e+02
1.500000e+02
1.562500e+02
1.625000e+02
1.687500e+02
1.750000e+02
1.812500e+02
1.875000e+02
1.937500e+02
2.000000e+02
0.000000e+00
6.250000e+00
1.250000e+01
1.875000e+01
2.500000e+01
3.125000e+01
3.750000e+01
4.375000e+01
5.000000e+01
5.625000e+01
6.250000e+01
6.875000e+01
7.500000e+01
8.125000e+01
8.750000e+01
9.375000e+01
1.000000e+02
1.062500e+02
1.125000e+02
1.187500e+02
1.250000e+02
1.312500e+02
1.375000e+02
1.437500e+02
1.500000e+02
1.562500e+02
1.625000e+02
1.687500e+02
1.750000e+02
1.812500e+02
1.875000e+02
1.937500e+02
2.000000e+02
0.000000e+00
6.250000e+00
1.250000e+01
1.875000e+01
2.500000e+01
3.125000e+01
3.750000e+01
4.375000e+01
5.000000e+01
5.625000e+01
6.250000e+01
6.875000e+01
7.500000e+01
8.125000e+01
8.750000e+01
9.375000e+01
1.000000e+02
1.062500e+02
1.125000e+02
1.187500e+02
1.250000e+02
1.312500e+02
1.375000e+02
1.437500e+02
1.500000e+02
1.562500e+02
1.625000e+02
1.687500e+02
1.750000e+02
1.812500e+02
1.875000e+02
1.937500e+02
2.000000e+02
0.000000e+00
6.250000e+00
1.250000e+01
1.875000e+01
2.500000e+01
3.125000e+01
3.750000e+01
4.375000e+01
5.000000e+01
5.625000e+01
6.250000e+01
6.875000e+01
7.500000e+01
8.125000e+01
8.750000e+01
9.375000e+01
1.000000e+02
1.062500e+02
1.125000e+02
1.187500e+02
1.250000e+02
1.312500e+02
1.375000e+02
1.437500e+02
1.500000e+02
1.562500e+02
1.625000e+02
1.687500e+02
1.750000e+02
1.812500e+02
1.875000e+02
1.937500e+02
2.000000e+02
0.000000e+00
6.250000e+00
1.250000e+01
1.875000e+01
2.500000e+01
3.125000e+01
3.750000e+01
4.375000e+01
5.000000e+01
5.625000e+01
6.250000e+01
6.875000e+01
7.500000e+01
8.125000e+01
8.750000e+01
9.375000e+01
1.000000e+02
1.062500e+02
1.125000e+02
1.187500e+02
1.250000e+02
1.312500e+02
1.375000e+02
1.437500e+02
1.500000e+02
1.562500e+02
1.625000e+02
1.687500e+02
1.750000e+02
1.812500e+02
1.875000e+02
1.937500e+02
2.000000e+02
0.000000e+00
6.250000e+00
1.250000e+01
1.875000e+01
2.500000e+01
3.125000e+01
3.750000e+01
4.375000e+01
5.000000e+01
5.625000e+01
6.250000e+01
6.875000e+01
7.500000e+01
8.125000e+01
8.750000e+01
9.375000e+01
1.000000e+02
1.062500e+02
1.125000e+02
1.187500e+02
1.250000e+02
1.312500e+02
1.375000e+02
1.437500e+02
1.500000e+02
1.562500e+02
1.625000e+02
1.687500e+02
1.750000e+02
1.812500e+02
1.875000e+02
1.937500e+02
2.000000e+02
0.000000e+00
6.250000e+00
1.250000e+01
1.875000e+01
2.500000e+01
3.125000e+01
3.750000e+01
4.375000e+01
5.000000e+01
5.625000e+01
6.250000e+01
6.875000e+01
7.500000e+01
8.125000e+01
8.750000e+01
9.375000e+01
1.000000e+02
1.062500e+02
1.125000e+02
1.187500e+02
1.250000e+02
1.312500e+02
1.375000e+02
1.437500e+02
1.500000e+02
1.562500e+02
1.625000e+02
1.687500e+02
1.750000e+02
1.812500e+02
1.875000e+02
1.937500e+02
2.000000e+02
0.000000e+00
6.250000e+00
1.250000e+01
1.875000e+01
2.500000e+01
3.125000e+01
3.750000e+01
4.375000e+01
5.000000e+01
5.625000e+01
6.250000e+01
6.875000e+01
7.500000e+01
8.125000e+01
8.750000e+01
9.375000e+01
1.000000e+02
1.062500e+02
1.125000e+02
1.187500e+02
1.250000e+02
1.312500e+02
1.375000e+02
1.437500e+02
1.500000e+02
1.562500e+02
1.625000e+02
1.687500e+02
1.750000e+02
1.812500e+02
1.875000e+02
1.937500e+02
2.000000e+02
0.000000e+00
6.250000e+00
1.250000e+01
1.875000e+01
2.500000e+01
3.125000e+01
3.750000e+01
4.375000e+01
5.000000e+01
5.625000e+01
6.250000e+01
6.875000e+01
7.500000e+01
8.125000e+01
8.750000e+01
9.375000e+01
1.000000e+02
1.062500e+02
1.125000e+02
1.187500e+02
1.250000e+02
1.312500e+02
1.375000e+02
1.437500e+02
1.500000e+02
1.562500e+02
1.625000e+02
1.687500e+02
1.750000e+02
1.812500e+02
1.875000e+02
1.937500e+02
2.000000e+02
0.000000e+00
6.250000e+00
1.250000e+01
1.875000e+01
2.500000e+01
3.125000e+01
3.750000e+01
4.375000e+01
5.000000e+01
5.625000e+01
6.250000e+01
6.875000e+01
7.500000e+01
8.125000e+01
8.750000e+01
9.375000e+01
1.000000e+02
1.062500e+02
1.125000e+02
1.187500e+02
1.250000e+02
1.312500e+02
1.375000e+02
1.437500e+02
1.500000e+02
1.562500e+02
1.625000e+02
1.687500e+02
1.750000e+02
1.812500e+02
1.875000e+02
1.937500e+02
2.000000e+02
0.000000e+00
6.250000e+00
1.250000e+01
1.875000e+01
2.500000e+01
3.125000e+01
3.750000e+01
4.375000e+01
5.000000e+01
5.625000e+01
6.250000e+01
6.875000e+01
7.500000e+01
8.125000e+01
8.750000e+01
9.375000e+01
1.000000e+02
1.062500e+02
1.125000e+02
1.187500e+02
1.250000e+02
1.312500e+02
1.375000e+02
1.437500e+02
1.500000e+02
1.562500e+02
1.625000e+02
1.687500e+02
1.750000e+02
1.812500e+02
1.875000e+02
1.937500e+02
2.000000e+02
0.000000e+00
6.250000e+00
1.250000e+01
1.875000e+01
2.500000e+01
3.125000e+01
3.750000e+01
4.375000e+01
5.000000e+01
5.625000e+01
6.250000e+01
6.875000e+01
7.500000e+01
8.125000e+01
8.750000e+01
9.375000e+01
1.000000e+02
1.062500e+02
1.125000e+02
1.187500e+02
1.250000e+02
1.312500e+02
1.375000e+02
1.437500e+02
1.500000e+02
1.562500e+02
1.625000e+02
1.687500e+02
1.750000e+02
1.812500e+02
1.875000e+02
1.937500e+02
2.000000e+02
0.000000e+00
6.250000e+00
1.250000e+01
1.875000e+01
2.500000e+01
3.125000e+01
3.750000e+01
4.375000e+01
5.000000e+01
5.625000e+01
6.250000e+01
6.875000e+01
7.500000e+01
8.125000e+01
8.750000e+01
9.375000e+01
1.000000e+02
1.062500e+02
1.125000e+02
1.187500e+02
1.250000e+02
1.312500e+02
1.375000e+02
1.437500e+02
1.500000e+02
1.562500e+02
1.625000e+02
1.687500e+02
1.750000e+02
1.812500e+02
1.875000e+02
1.937500e+02
2.000000e+02
0.000000e+00
6.250000e+00
1.250000e+01
1.875000e+01
2.500000e+01
3.125000e+01
3.750000e+01
4.375000e+01
5.000000e+01
5.625000e+01
6.250000e+01
6.875000e+01
7.500000e+01
8.125000e+01
8.750000e+01
9.375000e+01
1.000000e+02
1.062500e+02
1.125000e+02
1.187500e+02
1.250000e+02
1.312500e+02
1.375000e+02
1.437500e+02
1.500000e+02
1.562500e+02
1.625000e+02
1.687500e+02
1.750000e+02
1.812500e+02
1.875000e+02
1.937500e+02
2.000000e+02
0.000000e+00
6.250000e+00
1.250000e+01
1.875000e+01
2.500000e+01
3.125000e+01
3.750000e+01
4.375000e+01
5.000000e+01
5.625000e+01
6.250000e+01
6.875000e+01
7.500000e+01
8.125000e+01
8.750000e+01
9.375000e+01
1.000000e+02
1.062500e+02
1.125000e+02
1.187500e+02
1.250000e+02
1.312500e+02
1.375000e+02
1.437500e+02
1.500000e+02
1.562500e+02
1.625000e+02
1.687500e+02
1.750000e+02
1.812500e+02
1.875000e+02
1.937500e+02
2.000000e+02
0.000000e+00
0.000000e+00
0.000000e+00
0.000000e+00
0.000000e+00
0.000000e+00
0.000000e+00
0.000000e+00
0.000000e+00
0.000000e+00
0.000000e+00
0.000000e+00
0.000000e+00
0.000000e+00
0.000000e+00
0.000000e+00
0.000000e+00
0.000000e+00
0.000000e+00
0.000000e+00
0.000000e+00
0.000000e+00
0.000000e+00
0.000000e+00
0.000000e+00
0.000000e+00
0.000000e+00
0.000000e+00
0.000000e+00
0.000000e+00
0.000000e+00
0.000000e+00
0.000000e+00
6.250000e+00
6.250000e+00
6.250000e+00
6.250000e+00
6.250000e+00
6.250000e+00
6.250000e+00
6.250000e+00
6.250000e+00
6.250000e+00
6.250000e+00
6.250000e+00
6.250000e+00
6.250000e+00
6.250000e+00
6.250000e+00
6.250000e+00
6.250000e+00
6.250000e+00
6.250000e+00
6.250000e+00
6.250000e+00
6.250000e+00
6.250000e+00
6.250000e+00
6.250000e+00
6.250000e+00
6.250000e+00
6.250000e+00
6.250000e+00
6.250000e+00
6.250000e+00
6.250000e+00
1.250000e+01
1.250000e+01
1.250000e+01
1.250000e+01
1.250000e+01
1.250000e+01
1.250000e+01
1.250000e+01
1.250000e+01
1.250000e+01
1.250000e+01
1.250000e+01
1.250000e+01
1.250000e+01
1.250000e+01
1.250000e+01
1.250000e+01
1.250000e+01
1.250000e+01
1.250000e+01
1.250000e+01
1.250000e+01
1.250000e+01
1.250000e+01
1.250000e+01
1.250000e+01
1.250000e+01
1.250000e+01
1.250000e+01
1.250000e+01
1.250000e+01
1.250000e+01
1.250000e+01
1.875000e+01
1.875000e+01
1.875000e+01
1.875000e+01
1.875000e+01
1.875000e+01
1.875000e+01
1.875000e+01
1.875000e+01
1.875000e+01
1.875000e+01
1.875000e+01
1.875000e+01
1.875000e+01
1.875000e+01
1.875000e+01
1.875000e+01
1.875000e+01
1.875000e+01
1.875000e+01
1.875000e+01
1.875000e+01
1.875000e+01
1.875000e+01
1.875000e+01
1.875000e+01
1.875000e+01
1.875000e+01
1.875000e+01
1.875000e+01
1.875000e+01
1.875000e+01
1.875000e+01
2.500000e+01
2.500000e+01
2.500000e+01
2.500000e+01
2.500000e+01
2.500000e+01
2.500000e+01
2.500000e+01
2.500000e+01
2.500000e+01
2.500000e+01
2.500000e+01
2.500000e+01
2.500000e+01
2.500000e+01
2.500000e+01
2.500000e+01
2.500000e+01
2.500000e+01
2.500000e+01
2.500000e+01
2.500000e+01
2.500000e+01
2.500000e+01
2.500000e+01
2.500000e+01
2.500000e+01
2.500000e+01
2.500000e+01
2.500000e+01
2.500000e+01
2.500000e+01
2.500000e+01
3.125000e+01
3.125000e+01
3.125000e+01
3.125000e+01
3.125000e+01
3.125000e+01
3.125000e+01
3.125000e+01
3.125000e+01
3.125000e+01
3.125000e+01
3.125000e+01
3.125000e+01
3.125000e+01
3.125000e+01
3.125000e+01
3.125000e+01
3.125000e+01
3.125000e+01
3.125000e+01
3.125000e+01
3.125000e+01
3.125000e+01
3.125000e+01
3.125000e+01
3.125000e+01
3.125000e+01
3.125000e+01
3.125000e+01
3.125000e+01
3.125000e+01
3.125000e+01
3.125000e+01
3.750000e+01
3.750000e+01
3.750000e+01
3.750000e+01
3.750000e+01
3.750000e+01
3.750000e+01
3.750000e+01
3.750000e+01
3.750000e+01
3.750000e+01
3.750000e+01
3.750000e+01
3.750000e+01
3.750000e+01
3.750000e+01
3.750000e+01
3.750000e+01
3.750000e+01
3.750000e+01
3.750000e+01
3.750000e+01
3.750000e+01
3.750000e+01
3.750000e+01
3.750000e+01
3.750000e+01
3.750000e+01
3.750000e+01
3.750000e+01
3.750000e+01
3.750000e+01
3.750000e+01
4.375000e+01
4.375000e+01
4.375000e+01
4.375000e+01
4.375000e+01
4.375000e+01
4.375000e+01
4.375000e+01
4.375000e+01
4.375000e+01
4.375000e+01
4.375000e+01
4.375000e+01
4.375000e+01
4.375000e+01
4.375000e+01
4.375000e+01
4.375000e+01
4.375000e+01
4.375000e+01
4.375000e+01
4.375000e+01
4.375000e+01
4.375000e+01
4.375000e+01
4.375000e+01
4.375000e+01
4.375000e+01
4.375000e+01
4.375000e+01
4.375000e+01
4.375000e+01
4.375000e+01
5.000000e+01
5.000000e+01
5.000000e+01
5.000000e+01
5.000000e+01
5.000000e+01
5.000000e+01
5.000000e+01
5.000000e+01
5.000000e+01
5.000000e+01
5.000000e+01
5.000000e+01
5.000000e+01
5.000000e+01
5.000000e+01
5.000000e+01
5.000000e+01
5.000000e+01
5.000000e+01
5.000000e+01
5.000000e+01
5.000000e+01
5.000000e+01
5.000000e+01
5.000000e+01
5.000000e+01
5.000000e+01
5.000000e+01
5.000000e+01
5.000000e+01
5.000000e+01
5.000000e+01
5.625000e+01
5.625000e+01
5.625000e+01
5.625000e+01
5.625000e+01
5.625000e+01
5.625000e+01
5.625000e+01
5.625000e+01
5.625000e+01
5.625000e+01
5.625000e+01
5.625000e+01
5.625000e+01
5.625000e+01
5.625000e+01
5.625000e+01
5.625000e+01
5.625000e+01
5.625000e+01
5.625000e+01
5.625000e+01
5.625000e+01
5.625000e+01
5.625000e+01
5.625000e+01
5.625000e+01
5.625000e+01
5.625000e+01
5.625000e+01
5.625000e+01
5.625000e+01
5.625000e+01
6.250000e+01
6.250000e+01
6.250000e+01
6.250000e+01
6.250000e+01
6.250000e+01
6.250000e+01
6.250000e+01
6.250000e+01
6.250000e+01
6.250000e+01
6.250000e+01
6.250000e+01
6.250000e+01
6.250000e+01
6.250000e+01
6.250000e+01
6.250000e+01
6.250000e+01
6.250000e+01
6.250000e+01
6.250000e+01
6.250000e+01
6.250000e+01
6.250000e+01
6.250000e+01
6.250000e+01
6.250000e+01
6.250000e+01
6.250000e+01
6.250000e+01
6.250000e+01
6.250000e+01
6.875000e+01
6.875000e+01
6.875000e+01
6.875000e+01
6.875000e+01
6.875000e+01
6.875000e+01
6.875000e+01
6.875000e+01
6.875000e+01
6.875000e+01
6.875000e+01
6.875000e+01
6.875000e+01
6.875000e+01
6.875000e+01
6.875000e+01
6.875000e+01
6.875000e+01
6.875000e+01
6.875000e+01
6.875000e+01
6.875000e+01
6.875000e+01
6.875000e+01
6.875000e+01
6.875000e+01
6.875000e+01
6.875000e+01
6.875000e+01
6.875000e+01
6.875000e+01
6.875000e+01
7.500000e+01
7.500000e+01
7.500000e+01
7.500000e+01
7.500000e+01
7.500000e+01
7.500000e+01
7.500000e+01
7.500000e+01
7.500000e+01
7.500000e+01
7.500000e+01
7.500000e+01
7.500000e+01
7.500000e+01
7.500000e+01
7.500000e+01
7.500000e+01
7.500000e+01
7.500000e+01
7.500000e+01
7.500000e+01
7.500000e+01
7.500000e+01
7.500000e+01
7.500000e+01
7.500000e+01
7.500000e+01
7.500000e+01
7.500000e+01
7.500000e+01
7.500000e+01
7.500000e+01
8.125000e+01
8.125000e+01
8.125000e+01
8.125000e+01
8.125000e+01
8.125000e+01
8.125000e+01
8.125000e+01
8.125000e+01
8.125000e+01
8.125000e+01
8.125000e+01
8.125000e+01
8.125000e+01
8.125000e+01
8.125000e+01
8.125000e+01
8.125000e+01
8.125000e+01
8.125000e+01
8.125000e+01
8.125000e+01
8.125000e+01
8.125000e+01
8.125000e+01
8.125000e+01
8.125000e+01
8.125000e+01
8.125000e+01
8.125000e+01
8.125000e+01
8.125000e+01
8.125000e+01
8.750000e+01
8.750000e+01
8.750000e+01
8.750000e+01
8.750000e+01
8.750000e+01
8.750000e+01
8.750000e+01
8.750000e+01
8.750000e+01
8.750000e+01
8.750000e+01
8.750000e+01
8.750000e+01
8.750000e+01
8.750000e+01
8.750000e+01
8.750000e+01
8.750000e+01
8.750000e+01
8.750000e+01
8.750000e+01
8.750000e+01
8.750000e+01
8.750000e+01
8.750000e+01
8.750000e+01
8.750000e+01
8.750000e+01
8.750000e+01
8.750000e+01
8.750000e+01
8.750000e+01
9.375000e+01
9.375000e+01
9.375000e+01
9.375000e+01
9.375000e+01
9.375000e+01
9.375000e+01
9.375000e+01
9.375000e+01
9.375000e+01
9.375000e+01
9.375000e+01
9.375000e+01
9.375000e+01
9.375000e+01
9.375000e+01
9.375000e+01
9.375000e+01
9.375000e+01
9.375000e+01
9.375000e+01
9.375000e+01
9.375000e+01
9.375000e+01
9.375000e+01
9.375000e+01
9.375000e+01
9.375000e+01
9.375000e+01
9.375000e+01
9.375000e+01
9.375000e+01
9.375000e+01
1.000000e+02
1.000000e+02
1.000000e+02
1.000000e+02
1.000000e+02
1.000000e+02
1.000000e+02
1.000000e+02
1.000000e+02
1.000000e+02
1.000000e+02
1.000000e+02
1.000000e+02
1.000000e+02
1.000000e+02
1.000000e+02
1.000000e+02
1.000000e+02
1.000000e+02
1.000000e+02
1.000000e+02
1.000000e+02
1.000000e+02
1.000000e+02
1.000000e+02
1.000000e+02
1.000000e+02
1.000000e+02
1.000000e+02
1.000000e+02
1.000000e+02
1.000000e+02
1.000000e+02
0.000000e+00
-4.723035e-01
-7.827649e-01
-1.122781e+00
-1.424384e+00
-1.716351e+00
-2.028262e+00
-2.315607e+00
-2.615223e+00
-2.908822e+00
-3.205848e+00
-3.505053e+00
-3.804449e+00
-4.104072e+00
-4.404089e+00
-4.705154e+00
-5.007795e+00
-5.311247e+00
-5.613882e+00
-5.916351e+00
-6.218520e+00
-6.520373e+00
-6.822661e+00
-7.120043e+00
-7.413291e+00
-7.718209e+00
-8.017412e+00
-8.348525e+00
-8.667439e+00
-9.020698e+00
-9.509921e+00
-9.926361e+00
-1.013046e+01
0.000000e+00
-2.335291e-01
-4.702404e-01
-7.357562e-01
-1.001732e+00
-1.254476e+00
-1.524368e+00
-1.784653e+00
-2.047165e+00
-2.312174e+00
-2.572661e+00
-2.837786e+00
-3.098181e+00
-3.362079e+00
-3.623436e+00
-3.885708e+00
-4.148234e+00
-4.408774e+00
-4.671789e+00
-4.931742e+00
-5.194165e+00
-5.454367e+00
-5.715930e+00
-5.976150e+00
-6.237338e+00
-6.498415e+00
-6.757866e+00
-7.022083e+00
-7.276360e+00
-7.533194e+00
-7.787709e+00
-7.888881e+00
-7.994698e+00
0.000000e+00
-1.027851e-01
-2.377078e-01
-4.342165e-01
-6.529646e-01
-8.602510e-01
-1.086039e+00
-1.313628e+00
-1.540989e+00
-1.772702e+00
-1.996672e+00
-2.223809e+00
-2.445951e+00
-2.671202e+00
-2.894902e+00
-3.117512e+00
-3.339910e+00
-3.560167e+00
-3.783718e+00
-4.005831e+00
-4.230793e+00
-4.454070e+00
-4.678500e+00
-4.907731e+00
-5.137842e+00
-5.360811e+00
-5.573092e+00
-5.770420e+00
-5.949954e+00
-6.098914e+00
-6.186605e+00
-6.192240e+00
-6.285124e+00
0.000000e+00
-1.024644e-01
-1.858894e-01
-3.413487e-01
-4.643462e-01
-6.189314e-01
-7.959401e-01
-9.656056e-01
-1.159065e+00
-1.336722e+00
-1.521730e+00
-1.704339e+00
-1.886057e+00
-2.071921e+00
-2.255964e+00
-2.441491e+00
-2.626291e+00
-2.813006e+00
-3.002734e+00
-3.194137e+00
-3.388245e+00
-3.581808e+00
-3.776410e+00
-3.971700e+00
-4.157737e+00
-4.331730e+00
-4.481023e+00
-4.613301e+00
-4.714137e+00
-4.777629e+00
-4.792765e+00
-4.810132e+00
-4.890574e+00
0.000000e+00
-9.306126e-02
-1.846516e-01
-2.756497e-01
-3.892244e-01
-5.049339e-01
-6.371742e-01
-7.715687e-01
-9.166349e-01
-1.057627e+00
-1.203854e+00
-1.349196e+00
-1.492610e+00
-1.642130e+00
-1.785130e+00
-1.935281e+00
-2.080885e+00
-2.230185e+00
-2.379915e+00
-2.528428e+00
-2.679140e+00
-2.825347e+00
-2.970092e+00
-3.107521e+00
-3.235963e+00
-3.350027e+00
-3.446981e+00
-3.520957e+00
-3.569506e+00
-3.593971e+00
-3.597397e+00
-3.627144e+00
-3.698507e+00
0.000000e+00
-7.445990e-02
-1.459578e-01
-2.209882e-01
-3.024718e-01
-3.920586e-01
-4.868590e-01
-5.881376e-01
-6.918968e-01
-7.997684e-01
-9.072205e-01
-1.016032e+00
-1.124791e+00
-1.232807e+00
-1.342231e+00
-1.450232e+00
-1.559547e+00
-1.667582e+00
-1.775390e+00
-1.881995e+00
-1.985986e+00
-2.087009e+00
-2.181908e+00
-2.269583e+00
-2.347213e+00
-2.412886e+00
-2.464238e+00
-2.499097e+00
-2.521707e+00
-2.522122e+00
-2.517361e+00
-2.543779e+00
-2.609611e+00
0.000000e+00
-5.129742e-02
-1.020430e-01
-1.539129e-01
-2.093979e-01
-2.687765e-01
-3.322085e-01
-3.986330e-01
-4.678690e-01
-5.385630e-01
-6.102611e-01
-6.820331e-01
-7.535913e-01
-8.249398e-01
-8.957629e-01
-9.664105e-01
-1.036227e+00
-1.105186e+00
-1.172591e+00
-1.237871e+00
-1.300180e+00
-1.358110e+00
-1.410295e+00
-1.454856e+00
-1.490836e+00
-1.515979e+00
-1.530006e+00
-1.535555e+00
-1.519176e+00
-1.489164e+00
-1.477849e+00
-1.501103e+00
-1.565339e+00
0.000000e+00
-2.704304e-02
-5.393324e-02
-8.140140e-02
-1.101593e-01
-1.406561e-01
-1.727686e-01
-2.063525e-01
-2.409879e-01
-2.763474e-01
-3.118754e-01
-3.472137e-01
-3.820701e-01
-4.162786e-01
-4.498218e-01
-4.825190e-01
-5.141769e-01
-5.443541e-01
-5.727091e-01
-5.987188e-01
-6.217078e-01
-6.408609e-01
-6.549114e-01
-6.629039e-01
-6.632243e-01
-6.566678e-01
-6.408503e-01
-6.022945e-01
-5.525403e-01
-5.009545e-01
-4.738938e-01
-4.969993e-01
-5.639790e-01
0.000000e+00
-1.999493e-03
-4.047238e-03
-6.057009e-03
-7.914500e-03
-9.492689e-03
-1.072912e-02
-1.163321e-02
-1.226022e-02
-1.258841e-02
-1.250840e-02
-1.185974e-02
-1.049455e-02
-8.248609e-03
-4.882716e-03
-3.046523e-04
5.735017e-03
1.368296e-02
2.359590e-02
3.535371e-02
4.959959e-02
6.656168e-02
8.584677e-02
1.103004e-01
1.407883e-01
1.822003e-01
2.427320e-01
3.151502e-01
3.886106e-01
4.395778e-01
4.552910e-01
4.228644e-01
3.427644e-01
0.000000e+00
2.319545e-02
4.616202e-02
6.977588e-02
9.499991e-02
1.225461e-01
1.524553e-01
1.844631e-01
2.180119e-01
2.526591e-01
2.880491e-01
3.240554e-01
3.606487e-01
3.983101e-01
4.375801e-01
4.788094e-01
5.225097e-01
5.683507e-01
6.162686e-01
6.656791e-01
7.154092e-01
7.666286e-01
8.222005e-01
8.816556e-01
9.491800e-01
1.032412e+00
1.122357e+00
1.214055e+00
1.288541e+00
1.332382e+00
1.329250e+00
1.283144e+00
1.220261e+00
0.000000e+00
4.785706e-02
9.517776e-02
1.437229e-01
1.962064e-01
2.533663e-01
3.153505e-01
3.810371e-01
4.496538e-01
5.198537e-01
5.907953e-01
6.615838e-01
7.323428e-01
8.038392e-01
8.772661e-01
9.544611e-01
1.035710e+00
1.119662e+00
1.205278e+00
1.291995e+00
1.381800e+00
1.471228e+00
1.563384e+00
1.666393e+00
1.775098e+00
1.885894e+00
1.995421e+00
2.084197e+00
2.148145e+00
2.174612e+00
2.166988e+00
2.137078e+00
2.092961e+00
0.000000e+00
7.146881e-02
1.402508e-01
2.129660e-01
2.925879e-01
3.811888e-01
4.763837e-01
5.776640e-01
6.821034e-01
7.899782e-01
8.981645e-01
1.006838e+00
1.114890e+00
1.223527e+00
1.333053e+00
1.443247e+00
1.557168e+00
1.674510e+00
1.794275e+00
1.917364e+00
2.045954e+00
2.182398e+00
2.324527e+00
2.466813e+00
2.605053e+00
2.734305e+00
2.846573e+00
2.935497e+00
2.990965e+00
3.018917e+00
3.022408e+00
3.004383e+00
2.976848e+00
0.000000e+00
9.025205e-02
1.792742e-01
2.693630e-01
3.836489e-01
5.027994e-01
6.354005e-01
7.729069e-01
9.168011e-01
1.059875e+00
1.206771e+00
1.353150e+00
1.500344e+00
1.651608e+00
1.802350e+00
1.957455e+00
2.112511e+00
2.272581e+00
2.438370e+00
2.604908e+00
2.774070e+00
2.946153e+00
3.116274e+00
3.280917e+00
3.433932e+00
3.575095e+00
3.696065e+00
3.786844e+00
3.853340e+00
3.892497e+00
3.905413e+00
3.898888e+00
3.884378e+00
0.000000e+00
9.865408e-02
1.795216e-01
3.322664e-01
4.600007e-01
6.232826e-01
8.053453e-01
9.747869e-01
1.168495e+00
1.345491e+00
1.528122e+00
1.708128e+00
1.890932e+00
2.080603e+00
2.274700e+00
2.476474e+00
2.680540e+00
2.886043e+00
3.096306e+00
3.309609e+00
3.519986e+00
3.724839e+00
3.921022e+00
4.105682e+00
4.280391e+00
4.437775e+00
4.573015e+00
4.679929e+00
4.756480e+00
4.804251e+00
4.826447e+00
4.829256e+00
4.824518e+00
0.000000e+00
1.004395e-01
2.311348e-01
4.196228e-01
6.368979e-01
8.474560e-01
1.078808e+00
1.310006e+00
1.540036e+00
1.774623e+00
1.998143e+00
2.223966e+00
2.445694e+00
2.672292e+00
2.900105e+00
3.131649e+00
3.365872e+00
3.597095e+00
3.828549e+00
4.061059e+00
4.295378e+00
4.524268e+00
4.744684e+00
4.965944e+00
5.177040e+00
5.363602e+00
5.513173e+00
5.627855e+00
5.710331e+00
5.763203e+00
5.790895e+00
5.799946e+00
5.801057e+00
0.000000e+00
2.337727e-01
4.715167e-01
7.363578e-01
1.001661e+00
1.253906e+00
1.523061e+00
1.783744e+00
2.045646e+00
2.310323e+00
2.570233e+00
2.834446e+00
3.093794e+00
3.355835e+00
3.615618e+00
3.875259e+00
4.135318e+00
4.392678e+00
4.650541e+00
4.904402e+00
5.159811e+00
5.413134e+00
5.666391e+00
5.924966e+00
6.169088e+00
6.369954e+00
6.527442e+00
6.644239e+00
6.724427e+00
6.773626e+00
6.798764e+00
6.807870e+00
6.810107e+00
0.000000e+00
4.734764e-01
7.901191e-01
1.135505e+00
1.440037e+00
1.729711e+00
2.037745e+00
2.322464e+00
2.619019e+00
2.910028e+00
3.205798e+00
3.505337e+00
3.802864e+00
4.100268e+00
4.393887e+00
4.684933e+00
4.972268e+00
5.261372e+00
5.551891e+00
5.839809e+00
6.127497e+00
6.415461e+00
6.707343e+00
7.000137e+00
7.265779e+00
7.476596e+00
7.634743e+00
7.743605e+00
7.808460e+00
7.837575e+00
7.842667e+00
7.838048e+00
7.835495e+00
0.000000e+00
-2.792441e-01
-5.897055e-01
-9.867437e-01
-1.419185e+00
-1.889005e+00
-2.399447e+00
-2.940534e+00
-3.517132e+00
-4.125125e+00
-4.766994e+00
-5.444899e+00
-6.159274e+00
-6.911836e+00
-7.701148e+00
-8.529022e+00
-9.395281e+00
-1.030178e+01
-1.124831e+01
-1.223447e+01
-1.326072e+01
-1.432669e+01
-1.543405e+01
-1.658120e+01
-1.776583e+01
-1.898953e+01
-2.025666e+01
-2.157779e+01
-2.295949e+01
-2.442223e+01
-2.598301e+01
-2.779101e+01
-3.032827e+01
0.000000e+00
-1.802059e-01
-5.092573e-01
-8.989897e-01
-1.338262e+00
-1.804564e+00
-2.314889e+00
-2.858114e+00
-3.432927e+00
-4.042014e+00
-4.682826e+00
-5.361059e+00
-6.075165e+00
-6.827953e+00
-7.617275e+00
-8.444840e+00
-9.311230e+00
-1.021740e+01
-1.116432e+01
-1.215028e+01
-1.317669e+01
-1.424233e+01
-1.534979e+01
-1.649774e+01
-1.768212e+01
-1.890534e+01
-2.017093e+01
-2.149042e+01
-2.287370e+01
-2.432732e+01
-2.590742e+01
-2.770264e+01
-2.995347e+01
0.000000e+00
-1.593117e-01
-4.501407e-01
-8.425157e-01
-1.271700e+00
-1.735672e+00
-2.243985e+00
-2.785003e+00
-3.361198e+00
-3.969066e+00
-4.611020e+00
-5.289373e+00
-6.003632e+00
-6.756509e+00
-7.546441e+00
-8.374108e+00
-9.241037e+00
-1.014689e+01
-1.109372e+01
-1.207953e+01
-1.310575e+01
-1.417109e+01
-1.527695e+01
-1.642428e+01
-1.760966e+01
-1.883572e+01
-2.010317e+01
-2.142780e+01
-2.281484e+01
-2.428892e+01
-2.591196e+01
-2.759658e+01
-2.934486e+01
0.000000e+00
-2.047435e-01
-4.501911e-01
-8.391542e-01
-1.237061e+00
-1.689986e+00
-2.196775e+00
-2.724681e+00
-3.307438e+00
-3.909423e+00
-4.554510e+00
-5.233157e+00
-5.945682e+00
-6.701297e+00
-7.488900e+00
-8.319550e+00
-9.185045e+00
-1.009126e+01
-1.103775e+01
-1.202226e+01
-1.304946e+01
-1.411345e+01
-1.521846e+01
-1.636550e+01
-1.755330e+01
-1.878561e+01
-2.005918e+01
-2.139100e+01
-2.278676e+01
-2.428050e+01
-2.589611e+01
-2.744585e+01
-2.884501e+01
0.000000e+00
-2.208357e-01
-4.890464e-01
-8.343285e-01
-1.234878e+00
-1.670438e+00
-2.167604e+00
-2.689769e+00
-3.267492e+00
-3.869422e+00
-4.513534e+00
-5.194029e+00
-5.905004e+00
-6.663276e+00
-7.448874e+00
-8.281751e+00
-9.146363e+00
-1.005268e+01
-1.099916e+01
-1.198263e+01
-1.301038e+01
-1.407412e+01
-1.518052e+01
-1.632832e+01
-1.751978e+01
-1.875543e+01
-2.003723e+01
-2.137254e+01
-2.277089e+01
-2.426056e+01
-2.579572e+01
-2.724489e+01
-2.851201e+01
0.000000e+00
-2.277493e-01
-5.054948e-01
-8.403031e-01
-1.228280e+00
-1.663598e+00
-2.145968e+00
-2.670634e+00
-3.237770e+00
-3.842647e+00
-4.484775e+00
-5.164472e+00
-5.879744e+00
-6.633801e+00
-7.424533e+00
-8.253856e+00
-9.121382e+00
-1.002755e+01
-1.097395e+01
-1.195983e+01
-1.298668e+01
-1.405374e+01
-1.516189e+01
-1.631242e+01
-1.750602e+01
-1.874357e+01
-2.002796e+01
-2.136265e+01
-2.275016e+01
-2.419953e+01
-2.564078e+01
-2.700888e+01
-2.821411e+01
0.000000e+00
-2.314408e-01
-5.117122e-01
-8.435054e-01
-1.226198e+00
-1.657486e+00
-2.135224e+00
-2.657136e+00
-3.221164e+00
-3.824998e+00
-4.467235e+00
-5.146879e+00
-5.863713e+00
-6.617826e+00
-7.409503e+00
-8.239215e+00
-9.107423e+00
-1.001488e+01
-1.096217e+01
-1.194989e+01
-1.297839e+01
-1.404794e+01
-1.515894e+01
-1.631160e+01
-1.750653e+01
-1.874434e+01
-2.002481e+01
-2.135618e+01
-2.271123e+01
-2.410936e+01
-2.548608e+01
-2.678649e+01
-2.792837e+01
0.000000e+00
-2.328408e-01
-5.140352e-01
-8.449414e-01
-1.225582e+00
-1.654720e+00
-2.130530e+00
-2.650953e+00
-3.213924e+00
-3.817501e+00
-4.460079e+00
-5.140563e+00
-5.858320e+00
-6.613263e+00
-7.405611e+00
-8.235960e+00
-9.105085e+00
-1.001369e+01
-1.096241e+01
-1.195182e+01
-1.298231e+01
-1.405417e+01
-1.516738e+01
-1.632199e+01
-1.751584e+01
-1.875354e+01
-2.002627e+01
-2.133855e+01
-2.265895e+01
-2.400349e+01
-2.533468e+01
-2.657832e+01
-2.766452e+01
0.000000e+00
-2.331306e-01
-5.146294e-01
-8.455635e-01
-1.226060e+00
-1.655132e+00
-2.131036e+00
-2.651723e+00
-3.215166e+00
-3.819515e+00
-4.463176e+00
-5.144852e+00
-5.863742e+00
-6.619636e+00
-7.412721e+00
-8.243669e+00
-9.113735e+00
-1.002359e+01
-1.097351e+01
-1.196431e+01
-1.299653e+01
-1.406965e+01
-1.518416e+01
-1.633952e+01
-1.753236e+01
-1.876460e+01
-2.002309e+01
-2.130608e+01
-2.260260e+01
-2.389596e+01
-2.516725e+01
-2.633565e+01
-2.732687e+01
0.000000e+00
-2.326772e-01
-5.140911e-01
-8.456964e-01
-1.227647e+00
-1.658666e+00
-2.136666e+00
-2.659350e+00
-3.224630e+00
-3.830742e+00
-4.476150e+00
-5.159385e+00
-5.879482e+00
-6.636492e+00
-7.430526e+00
-8.261826e+00
-9.133112e+00
-1.004425e+01
-1.099521e+01
-1.198607e+01
-1.301998e+01
-1.409285e+01
-1.520571e+01
-1.636295e+01
-1.754856e+01
-1.876871e+01
-2.001012e+01
-2.127006e+01
-2.253736e+01
-2.379400e+01
-2.499903e+01
-2.610025e+01
-2.705923e+01
0.000000e+00
-2.312055e-01
-5.118909e-01
-8.449998e-01
-1.230365e+00
-1.665600e+00
-2.147851e+00
-2.674235e+00
-3.242633e+00
-3.851250e+00
-4.498850e+00
-5.183628e+00
-5.904605e+00
-6.663025e+00
-7.458019e+00
-8.290466e+00
-9.163286e+00
-1.007554e+01
-1.102774e+01
-1.201739e+01
-1.305071e+01
-1.412149e+01
-1.523206e+01
-1.638287e+01
-1.755984e+01
-1.876449e+01
-1.999478e+01
-2.123235e+01
-2.247403e+01
-2.368968e+01
-2.484922e+01
-2.591842e+01
-2.686695e+01
0.000000e+00
-2.275685e-01
-5.059677e-01
-8.425712e-01
-1.234500e+00
-1.676606e+00
-2.165768e+00
-2.697109e+00
-3.270222e+00
-3.881786e+00
-4.531367e+00
-5.217383e+00
-5.938430e+00
-6.697989e+00
-7.494073e+00
-8.329264e+00
-9.203610e+00
-1.011703e+01
-1.106908e+01
-1.205798e+01
-1.308627e+01
-1.415341e+01
-1.525815e+01
-1.639859e+01
-1.756637e+01
-1.876150e+01
-1.997989e+01
-2.120466e+01
-2.241946e+01
-2.360593e+01
-2.473601e+01
-2.578922e+01
-2.674173e+01
0.000000e+00
-2.205675e-01
-4.899359e-01
-8.377984e-01
-1.243050e+00
-1.690511e+00
-2.194747e+00
-2.727285e+00
-3.310112e+00
-3.921793e+00
-4.574076e+00
-5.260570e+00
-5.980911e+00
-6.743425e+00
-7.539746e+00
-8.378786e+00
-9.254023e+00
-1.016648e+01
-1.111706e+01
-1.210262e+01
-1.312568e+01
-1.418730e+01
-1.528392e+01
-1.641471e+01
-1.757530e+01
-1.876688e+01
-1.997954e+01
-2.118964e+01
-2.238460e+01
-2.354577e+01
-2.465726e+01
-2.570348e+01
-2.667071e+01
0.000000e+00
-2.034676e-01
-4.510499e-01
-8.434458e-01
-1.250290e+00
-1.716591e+00
-2.234284e+00
-2.770355e+00
-3.360761e+00
-3.971924e+00
-4.624786e+00
-5.310748e+00
-6.033735e+00
-6.798166e+00
-7.598090e+00
-8.438412e+00
-9.313869e+00
-1.022454e+01
-1.117157e+01
-1.215312e+01
-1.317106e+01
-1.422539e+01
-1.531317e+01
-1.643662e+01
-1.759870e+01
-1.879041e+01
-1.999580e+01
-2.119089e+01
-2.236688e+01
-2.350968e+01
-2.460765e+01
-2.565248e+01
-2.663998e+01
0.000000e+00
-1.564772e-01
-4.489133e-01
-8.464322e-01
-1.287864e+00
-1.765765e+00
-2.286058e+00
-2.835476e+00
-3.419820e+00
-4.035149e+00
-4.683889e+00
-5.370812e+00
-6.095675e+00
-6.861063e+00
-7.664195e+00
-8.504308e+00
-9.379639e+00
-1.028841e+01
-1.123301e+01
-1.221191e+01
-1.322553e+01
-1.427323e+01
-1.535389e+01
-1.647834e+01
-1.764333e+01
-1.883220e+01
-2.002321e+01
-2.120491e+01
-2.236548e+01
-2.349404e+01
-2.458205e+01
-2.562692e+01
-2.663476e+01
0.000000e+00
-1.768333e-01
-5.069910e-01
-9.032597e-01
-1.355346e+00
-1.836042e+00
-2.358026e+00
-2.910461e+00
-3.492996e+00
-4.108954e+00
-4.756218e+00
-5.443125e+00
-6.168221e+00
-6.934074e+00
-7.737586e+00
-8.577860e+00
-9.452219e+00
-1.035935e+01
-1.130274e+01
-1.228019e+01
-1.329212e+01
-1.433657e+01
-1.541784e+01
-1.654365e+01
-1.770522e+01
-1.888156e+01
-2.005930e+01
-2.122794e+01
-2.237607e+01
-2.349353e+01
-2.457375e+01
-2.561772e+01
-2.663944e+01
0.000000e+00
-2.767000e-01
-5.885816e-01
-9.918577e-01
-1.436428e+00
-1.919882e+00
-2.442168e+00
-2.992667e+00
-3.576911e+00
-4.191768e+00
-4.840394e+00
-5.526942e+00
-6.251993e+00
-7.017424e+00
-7.820248e+00
-8.660039e+00
-9.533433e+00
-1.044065e+01
-1.138310e+01
-1.236004e+01
-1.337155e+01
-1.441616e+01