TITLE = "Solution"
VARIABLES = x, y, u, v, psiu, psiv, t, stress
ZONE T="structure" N=561 E=512 F=FEBLOCK ET=QUADRILATERAL VARLOCATION=([7,8]=cellcentered)
0.000000e+00
6.250000e+00
1.250000e+01
1.875000e+01
2.500000e+01
3.125000e+01
3.750000e+01
4.375000e+01
5.000000e+01
5.625000e+01
6.250000e+01
6.875000e+01
7.500000e+01
8.125000e+01
8.750000e+01
9.375000e+01
1.000000e+02
1.062500e+02
1.125000e+02
1.187500e+02
1.250000e+02
1.312500e+02
1.375000e+02
1.437500e+02
1.500000e+02
1.562500e+02
1.625000e+02
1.687500e+02
1.750000e+02
1.812500e+02
1.875000e+02
1.937500e+02
2.000000e+02
0.000000e+00
6.250000e+00
1.250000e+01
1.875000e+01
2.500000e+01
3.125000e+01
3.750000e+01
4.375000e+01
5.000000e+01
5.625000e+01
6.250000e+01
6.875000e+01
7.500000e+01
8.125000e+01
8.750000e+01
9.375000e+01
1.000000e+02
1.062500e+02
1.125000e+02
1.187500e+02
1.250000e+02
1.312500e+02
1.375000e+02
1.437500e+02
1.500000e+02
1.562500e+02
1.625000e+02
1.687500e+02
1.750000e+02
1.812500e+02
1.875000e+02
1.937500e+02
2.000000e+02
0.000000e+00
6.250000e+00
1.250000e+01
1.875000e+01
2.500000e+01
3.125000e+01
3.750000e+01
4.375000e+01
5.000000e+01
5.625000e+01
6.250000e+01
6.875000e+01
7.500000e+01
8.125000e+01
8.750000e+01
9.375000e+01
1.000000e+02
1.062500e+02
1.125000e+02
1.187500e+02
1.250000e+02
1.312500e+02
1.375000e+02
1.437500e+02
1.500000e+02
1.562500e+02
1.625000e+02
1.687500e+02
1.750000e+02
1.812500e+02
1.875000e+02
1.937500e+02
2.000000e+02
0.000000e+00
6.250000e+00
1.250000e+01
1.875000e+01
2.500000e+01
3.125000e+01
3.750000e+01
4.375000e+01
5.000000e+01
5.625000e+01
6.250000e+01
6.875000e+01
7.500000e+01
8.125000e+01
8.750000e+01
9.375000e+01
1.000000e+02
1.062500e+02
1.125000e+02
1.187500e+02
1.250000e+02
1.312500e+02
1.375000e+02
1.437500e+02
1.500000e+02
1.562500e+02
1.625000e+02
1.687500e+02
1.750000e+02
1.812500e+02
1.875000e+02
1.937500e+02
2.000000e+02
0.000000e+00
6.250000e+00
1.250000e+01
1.875000e+01
2.500000e+01
3.125000e+01
3.750000e+01
4.375000e+01
5.000000e+01
5.625000e+01
6.250000e+01
6.875000e+01
7.500000e+01
8.125000e+01
8.750000e+01
9.375000e+01
1.000000e+02
1.062500e+02
1.125000e+02
1.187500e+02
1.250000e+02
1.312500e+02
1.375000e+02
1.437500e+02
1.500000e+02
1.562500e+02
1.625000e+02
1.687500e+02
1.750000e+02
1.812500e+02
1.875000e+02
1.937500e+02
2.000000e+02
0.000000e+00
6.250000e+00
1.250000e+01
1.875000e+01
2.500000e+01
3.125000e+01
3.750000e+01
4.375000e+01
5.000000e+01
5.625000e+01
6.250000e+01
6.875000e+01
7.500000e+01
8.125000e+01
8.750000e+01
9.375000e+01
1.000000e+02
1.062500e+02
1.125000e+02
1.187500e+02
1.250000e+02
1.312500e+02
1.375000e+02
1.437500e+02
1.500000e+02
1.562500e+02
1.625000e+02
1.687500e+02
1.750000e+02
1.812500e+02
1.875000e+02
1.937500e+02
2.000000e+02
0.000000e+00
6.250000e+00
1.250000e+01
1.875000e+01
2.500000e+01
3.125000e+01
3.750000e+01
4.375000e+01
5.000000e+01
5.625000e+01
6.250000e+01
6.875000e+01
7.500000e+01
8.125000e+01
8.750000e+01
9.375000e+01
1.000000e+02
1.062500e+02
1.125000e+02
1.187500e+02
1.250000e+02
1.312500e+02
1.375000e+02
1.437500e+02
1.500000e+02
1.562500e+02
1.625000e+02
1.687500e+02
1.750000e+02
1.812500e+02
1.875000e+02
1.937500e+02
2.000000e+02
0.000000e+00
6.250000e+00
1.250000e+01
1.875000e+01
2.500000e+01
3.125000e+01
3.750000e+01
4.375000e+01
5.000000e+01
5.625000e+01
6.250000e+01
6.875000e+01
7.500000e+01
8.125000e+01
8.750000e+01
9.375000e+01
1.000000e+02
1.062500e+02
1.125000e+02
1.187500e+02
1.250000e+02
1.312500e+02
1.375000e+02
1.437500e+02
1.500000e+02
1.562500e+02
1.625000e+02
1.687500e+02
1.750000e+02
1.812500e+02
1.875000e+02
1.937500e+02
2.000000e+02
0.000000e+00
6.250000e+00
1.250000e+01
1.875000e+01
2.500000e+01
3.125000e+01
3.750000e+01
4.375000e+01
5.000000e+01
5.625000e+01
6.250000e+01
6.875000e+01
7.500000e+01
8.125000e+01
8.750000e+01
9.375000e+01
1.000000e+02
1.062500e+02
1.125000e+02
1.187500e+02
1.250000e+02
1.312500e+02
1.375000e+02
1.437500e+02
1.500000e+02
1.562500e+02
1.625000e+02
1.687500e+02
1.750000e+02
1.812500e+02
1.875000e+02
1.937500e+02
2.000000e+02
0.000000e+00
6.250000e+00
1.250000e+01
1.875000e+01
2.500000e+01
3.125000e+01
3.750000e+01
4.375000e+01
5.000000e+01
5.625000e+01
6.250000e+01
6.875000e+01
7.500000e+01
8.125000e+01
8.750000e+01
9.375000e+01
1.000000e+02
1.062500e+02
1.125000e+02
1.187500e+02
1.250000e+02
1.312500e+02
1.375000e+02
1.437500e+02
1.500000e+02
1.562500e+02
1.625000e+02
1.687500e+02
1.750000e+02
1.812500e+02
1.875000e+02
1.937500e+02
2.000000e+02
0.000000e+00
6.250000e+00
1.250000e+01
1.875000e+01
2.500000e+01
3.125000e+01
3.750000e+01
4.375000e+01
5.000000e+01
5.625000e+01
6.250000e+01
6.875000e+01
7.500000e+01
8.125000e+01
8.750000e+01
9.375000e+01
1.000000e+02
1.062500e+02
1.125000e+02
1.187500e+02
1.250000e+02
1.312500e+02
1.375000e+02
1.437500e+02
1.500000e+02
1.562500e+02
1.625000e+02
1.687500e+02
1.750000e+02
1.812500e+02
1.875000e+02
1.937500e+02
2.000000e+02
0.000000e+00
6.250000e+00
1.250000e+01
1.875000e+01
2.500000e+01
3.125000e+01
3.750000e+01
4.375000e+01
5.000000e+01
5.625000e+01
6.250000e+01
6.875000e+01
7.500000e+01
8.125000e+01
8.750000e+01
9.375000e+01
1.000000e+02
1.062500e+02
1.125000e+02
1.187500e+02
1.250000e+02
1.312500e+02
1.375000e+02
1.437500e+02
1.500000e+02
1.562500e+02
1.625000e+02
1.687500e+02
1.750000e+02
1.812500e+02
1.875000e+02
1.937500e+02
2.000000e+02
0.000000e+00
6.250000e+00
1.250000e+01
1.875000e+01
2.500000e+01
3.125000e+01
3.750000e+01
4.375000e+01
5.000000e+01
5.625000e+01
6.250000e+01
6.875000e+01
7.500000e+01
8.125000e+01
8.750000e+01
9.375000e+01
1.000000e+02
1.062500e+02
1.125000e+02
1.187500e+02
1.250000e+02
1.312500e+02
1.375000e+02
1.437500e+02
1.500000e+02
1.562500e+02
1.625000e+02
1.687500e+02
1.750000e+02
1.812500e+02
1.875000e+02
1.937500e+02
2.000000e+02
0.000000e+00
6.250000e+00
1.250000e+01
1.875000e+01
2.500000e+01
3.125000e+01
3.750000e+01
4.375000e+01
5.000000e+01
5.625000e+01
6.250000e+01
6.875000e+01
7.500000e+01
8.125000e+01
8.750000e+01
9.375000e+01
1.000000e+02
1.062500e+02
1.125000e+02
1.187500e+02
1.250000e+02
1.312500e+02
1.375000e+02
1.437500e+02
1.500000e+02
1.562500e+02
1.625000e+02
1.687500e+02
1.750000e+02
1.812500e+02
1.875000e+02
1.937500e+02
2.000000e+02
0.000000e+00
6.250000e+00
1.250000e+01
1.875000e+01
2.500000e+01
3.125000e+01
3.750000e+01
4.375000e+01
5.000000e+01
5.625000e+01
6.250000e+01
6.875000e+01
7.500000e+01
8.125000e+01
8.750000e+01
9.375000e+01
1.000000e+02
1.062500e+02
1.125000e+02
1.187500e+02
1.250000e+02
1.312500e+02
1.375000e+02
1.437500e+02
1.500000e+02
1.562500e+02
1.625000e+02
1.687500e+02
1.750000e+02
1.812500e+02
1.875000e+02
1.937500e+02
2.000000e+02
0.000000e+00
6.250000e+00
1.250000e+01
1.875000e+01
2.500000e+01
3.125000e+01
3.750000e+01
4.375000e+01
5.000000e+01
5.625000e+01
6.250000e+01
6.875000e+01
7.500000e+01
8.125000e+01
8.750000e+01
9.375000e+01
1.000000e+02
1.062500e+02
1.125000e+02
1.187500e+02
1.250000e+02
1.312500e+02
1.375000e+02
1.437500e+02
1.500000e+02
1.562500e+02
1.625000e+02
1.687500e+02
1.750000e+02
1.812500e+02
1.875000e+02
1.937500e+02
2.000000e+02
0.000000e+00
6.250000e+00
1.250000e+01
1.875000e+01
2.500000e+01
3.125000e+01
3.750000e+01
4.375000e+01
5.000000e+01
5.625000e+01
6.250000e+01
6.875000e+01
7.500000e+01
8.125000e+01
8.750000e+01
9.375000e+01
1.000000e+02
1.062500e+02
1.125000e+02
1.187500e+02
1.250000e+02
1.312500e+02
1.375000e+02
1.437500e+02
1.500000e+02
1.562500e+02
1.625000e+02
1.687500e+02
1.750000e+02
1.812500e+02
1.875000e+02
1.937500e+02
2.000000e+02
0.000000e+00
0.000000e+00
0.000000e+00
0.000000e+00
0.000000e+00
0.000000e+00
0.000000e+00
0.000000e+00
0.000000e+00
0.000000e+00
0.000000e+00
0.000000e+00
0.000000e+00
0.000000e+00
0.000000e+00
0.000000e+00
0.000000e+00
0.000000e+00
0.000000e+00
0.000000e+00
0.000000e+00
0.000000e+00
0.000000e+00
0.000000e+00
0.000000e+00
0.000000e+00
0.000000e+00
0.000000e+00
0.000000e+00
0.000000e+00
0.000000e+00
0.000000e+00
0.000000e+00
6.250000e+00
6.250000e+00
6.250000e+00
6.250000e+00
6.250000e+00
6.250000e+00
6.250000e+00
6.250000e+00
6.250000e+00
6.250000e+00
6.250000e+00
6.250000e+00
6.250000e+00
6.250000e+00
6.250000e+00
6.250000e+00
6.250000e+00
6.250000e+00
6.250000e+00
6.250000e+00
6.250000e+00
6.250000e+00
6.250000e+00
6.250000e+00
6.250000e+00
6.250000e+00
6.250000e+00
6.250000e+00
6.250000e+00
6.250000e+00
6.250000e+00
6.250000e+00
6.250000e+00
1.250000e+01
1.250000e+01
1.250000e+01
1.250000e+01
1.250000e+01
1.250000e+01
1.250000e+01
1.250000e+01
1.250000e+01
1.250000e+01
1.250000e+01
1.250000e+01
1.250000e+01
1.250000e+01
1.250000e+01
1.250000e+01
1.250000e+01
1.250000e+01
1.250000e+01
1.250000e+01
1.250000e+01
1.250000e+01
1.250000e+01
1.250000e+01
1.250000e+01
1.250000e+01
1.250000e+01
1.250000e+01
1.250000e+01
1.250000e+01
1.250000e+01
1.250000e+01
1.250000e+01
1.875000e+01
1.875000e+01
1.875000e+01
1.875000e+01
1.875000e+01
1.875000e+01
1.875000e+01
1.875000e+01
1.875000e+01
1.875000e+01
1.875000e+01
1.875000e+01
1.875000e+01
1.875000e+01
1.875000e+01
1.875000e+01
1.875000e+01
1.875000e+01
1.875000e+01
1.875000e+01
1.875000e+01
1.875000e+01
1.875000e+01
1.875000e+01
1.875000e+01
1.875000e+01
1.875000e+01
1.875000e+01
1.875000e+01
1.875000e+01
1.875000e+01
1.875000e+01
1.875000e+01
2.500000e+01
2.500000e+01
2.500000e+01
2.500000e+01
2.500000e+01
2.500000e+01
2.500000e+01
2.500000e+01
2.500000e+01
2.500000e+01
2.500000e+01
2.500000e+01
2.500000e+01
2.500000e+01
2.500000e+01
2.500000e+01
2.500000e+01
2.500000e+01
2.500000e+01
2.500000e+01
2.500000e+01
2.500000e+01
2.500000e+01
2.500000e+01
2.500000e+01
2.500000e+01
2.500000e+01
2.500000e+01
2.500000e+01
2.500000e+01
2.500000e+01
2.500000e+01
2.500000e+01
3.125000e+01
3.125000e+01
3.125000e+01
3.125000e+01
3.125000e+01
3.125000e+01
3.125000e+01
3.125000e+01
3.125000e+01
3.125000e+01
3.125000e+01
3.125000e+01
3.125000e+01
3.125000e+01
3.125000e+01
3.125000e+01
3.125000e+01
3.125000e+01
3.125000e+01
3.125000e+01
3.125000e+01
3.125000e+01
3.125000e+01
3.125000e+01
3.125000e+01
3.125000e+01
3.125000e+01
3.125000e+01
3.125000e+01
3.125000e+01
3.125000e+01
3.125000e+01
3.125000e+01
3.750000e+01
3.750000e+01
3.750000e+01
3.750000e+01
3.750000e+01
3.750000e+01
3.750000e+01
3.750000e+01
3.750000e+01
3.750000e+01
3.750000e+01
3.750000e+01
3.750000e+01
3.750000e+01
3.750000e+01
3.750000e+01
3.750000e+01
3.750000e+01
3.750000e+01
3.750000e+01
3.750000e+01
3.750000e+01
3.750000e+01
3.750000e+01
3.750000e+01
3.750000e+01
3.750000e+01
3.750000e+01
3.750000e+01
3.750000e+01
3.750000e+01
3.750000e+01
3.750000e+01
4.375000e+01
4.375000e+01
4.375000e+01
4.375000e+01
4.375000e+01
4.375000e+01
4.375000e+01
4.375000e+01
4.375000e+01
4.375000e+01
4.375000e+01
4.375000e+01
4.375000e+01
4.375000e+01
4.375000e+01
4.375000e+01
4.375000e+01
4.375000e+01
4.375000e+01
4.375000e+01
4.375000e+01
4.375000e+01
4.375000e+01
4.375000e+01
4.375000e+01
4.375000e+01
4.375000e+01
4.375000e+01
4.375000e+01
4.375000e+01
4.375000e+01
4.375000e+01
4.375000e+01
5.000000e+01
5.000000e+01
5.000000e+01
5.000000e+01
5.000000e+01
5.000000e+01
5.000000e+01
5.000000e+01
5.000000e+01
5.000000e+01
5.000000e+01
5.000000e+01
5.000000e+01
5.000000e+01
5.000000e+01
5.000000e+01
5.000000e+01
5.000000e+01
5.000000e+01
5.000000e+01
5.000000e+01
5.000000e+01
5.000000e+01
5.000000e+01
5.000000e+01
5.000000e+01
5.000000e+01
5.000000e+01
5.000000e+01
5.000000e+01
5.000000e+01
5.000000e+01
5.000000e+01
5.625000e+01
5.625000e+01
5.625000e+01
5.625000e+01
5.625000e+01
5.625000e+01
5.625000e+01
5.625000e+01
5.625000e+01
5.625000e+01
5.625000e+01
5.625000e+01
5.625000e+01
5.625000e+01
5.625000e+01
5.625000e+01
5.625000e+01
5.625000e+01
5.625000e+01
5.625000e+01
5.625000e+01
5.625000e+01
5.625000e+01
5.625000e+01
5.625000e+01
5.625000e+01
5.625000e+01
5.625000e+01
5.625000e+01
5.625000e+01
5.625000e+01
5.625000e+01
5.625000e+01
6.250000e+01
6.250000e+01
6.250000e+01
6.250000e+01
6.250000e+01
6.250000e+01
6.250000e+01
6.250000e+01
6.250000e+01
6.250000e+01
6.250000e+01
6.250000e+01
6.250000e+01
6.250000e+01
6.250000e+01
6.250000e+01
6.250000e+01
6.250000e+01
6.250000e+01
6.250000e+01
6.250000e+01
6.250000e+01
6.250000e+01
6.250000e+01
6.250000e+01
6.250000e+01
6.250000e+01
6.250000e+01
6.250000e+01
6.250000e+01
6.250000e+01
6.250000e+01
6.250000e+01
6.875000e+01
6.875000e+01
6.875000e+01
6.875000e+01
6.875000e+01
6.875000e+01
6.875000e+01
6.875000e+01
6.875000e+01
6.875000e+01
6.875000e+01
6.875000e+01
6.875000e+01
6.875000e+01
6.875000e+01
6.875000e+01
6.875000e+01
6.875000e+01
6.875000e+01
6.875000e+01
6.875000e+01
6.875000e+01
6.875000e+01
6.875000e+01
6.875000e+01
6.875000e+01
6.875000e+01
6.875000e+01
6.875000e+01
6.875000e+01
6.875000e+01
6.875000e+01
6.875000e+01
7.500000e+01
7.500000e+01
7.500000e+01
7.500000e+01
7.500000e+01
7.500000e+01
7.500000e+01
7.500000e+01
7.500000e+01
7.500000e+01
7.500000e+01
7.500000e+01
7.500000e+01
7.500000e+01
7.500000e+01
7.500000e+01
7.500000e+01
7.500000e+01
7.500000e+01
7.500000e+01
7.500000e+01
7.500000e+01
7.500000e+01
7.500000e+01
7.500000e+01
7.500000e+01
7.500000e+01
7.500000e+01
7.500000e+01
7.500000e+01
7.500000e+01
7.500000e+01
7.500000e+01
8.125000e+01
8.125000e+01
8.125000e+01
8.125000e+01
8.125000e+01
8.125000e+01
8.125000e+01
8.125000e+01
8.125000e+01
8.125000e+01
8.125000e+01
8.125000e+01
8.125000e+01
8.125000e+01
8.125000e+01
8.125000e+01
8.125000e+01
8.125000e+01
8.125000e+01
8.125000e+01
8.125000e+01
8.125000e+01
8.125000e+01
8.125000e+01
8.125000e+01
8.125000e+01
8.125000e+01
8.125000e+01
8.125000e+01
8.125000e+01
8.125000e+01
8.125000e+01
8.125000e+01
8.750000e+01
8.750000e+01
8.750000e+01
8.750000e+01
8.750000e+01
8.750000e+01
8.750000e+01
8.750000e+01
8.750000e+01
8.750000e+01
8.750000e+01
8.750000e+01
8.750000e+01
8.750000e+01
8.750000e+01
8.750000e+01
8.750000e+01
8.750000e+01
8.750000e+01
8.750000e+01
8.750000e+01
8.750000e+01
8.750000e+01
8.750000e+01
8.750000e+01
8.750000e+01
8.750000e+01
8.750000e+01
8.750000e+01
8.750000e+01
8.750000e+01
8.750000e+01
8.750000e+01
9.375000e+01
9.375000e+01
9.375000e+01
9.375000e+01
9.375000e+01
9.375000e+01
9.375000e+01
9.375000e+01
9.375000e+01
9.375000e+01
9.375000e+01
9.375000e+01
9.375000e+01
9.375000e+01
9.375000e+01
9.375000e+01
9.375000e+01
9.375000e+01
9.375000e+01
9.375000e+01
9.375000e+01
9.375000e+01
9.375000e+01
9.375000e+01
9.375000e+01
9.375000e+01
9.375000e+01
9.375000e+01
9.375000e+01
9.375000e+01
9.375000e+01
9.375000e+01
9.375000e+01
1.000000e+02
1.000000e+02
1.000000e+02
1.000000e+02
1.000000e+02
1.000000e+02
1.000000e+02
1.000000e+02
1.000000e+02
1.000000e+02
1.000000e+02
1.000000e+02
1.000000e+02
1.000000e+02
1.000000e+02
1.000000e+02
1.000000e+02
1.000000e+02
1.000000e+02
1.000000e+02
1.000000e+02
1.000000e+02
1.000000e+02
1.000000e+02
1.000000e+02
1.000000e+02
1.000000e+02
1.000000e+02
1.000000e+02
1.000000e+02
1.000000e+02
1.000000e+02
1.000000e+02
0.000000e+00
-3.994959e-02
-7.248323e-02
-1.026210e-01
-1.315449e-01
-1.594752e-01
-1.864681e-01
-2.125212e-01
-2.376181e-01
-2.617406e-01
-2.848735e-01
-3.070063e-01
-3.281338e-01
-3.482554e-01
-3.673759e-01
-3.855053e-01
-4.026599e-01
-4.188632e-01
-4.341479e-01
-4.485579e-01
-4.621518e-01
-4.750071e-01
-4.872262e-01
-4.989450e-01
-5.103454e-01
-5.216749e-01
-5.332771e-01
-5.456418e-01
-5.594878e-01
-5.758729e-01
-5.961692e-01
-6.203568e-01
-6.351181e-01
0.000000e+00
-2.678513e-02
-5.572934e-02
-8.301991e-02
-1.089585e-01
-1.337922e-01
-1.576521e-01
-1.805957e-01
-2.026459e-01
-2.238100e-01
-2.440895e-01
-2.634845e-01
-2.819957e-01
-2.996263e-01
-3.163820e-01
-3.322722e-01
-3.473104e-01
-3.615152e-01
-3.749112e-01
-3.875304e-01
-3.994135e-01
-4.106120e-01
-4.211896e-01
-4.312243e-01
-4.408095e-01
-4.500525e-01
-4.590665e-01
-4.679447e-01
-4.766866e-01
-4.850077e-01
-4.919414e-01
-4.959952e-01
-5.016388e-01
0.000000e+00
-2.124603e-02
-4.374006e-02
-6.664256e-02
-8.889671e-02
-1.103307e-01
-1.309310e-01
-1.507169e-01
-1.697061e-01
-1.879104e-01
-2.053376e-01
-2.219932e-01
-2.378818e-01
-2.530080e-01
-2.673774e-01
-2.809970e-01
-2.938758e-01
-3.060247e-01
-3.174575e-01
-3.281904e-01
-3.382422e-01
-3.476332e-01
-3.563835e-01
-3.645085e-01
-3.720116e-01
-3.788685e-01
-3.850010e-01
-3.902284e-01
-3.941973e-01
-3.963344e-01
-3.961470e-01
-3.949469e-01
-4.015371e-01
0.000000e+00
-1.685684e-02
-3.464465e-02
-5.291940e-02
-7.115133e-02
-8.894163e-02
-1.061380e-01
-1.226857e-01
-1.385700e-01
-1.537903e-01
-1.683504e-01
-1.822552e-01
-1.955095e-01
-2.081174e-01
-2.200826e-01
-2.314085e-01
-2.420982e-01
-2.521544e-01
-2.615793e-01
-2.703733e-01
-2.785342e-01
-2.860544e-01
-2.929175e-01
-2.990913e-01
-3.045190e-01
-3.091046e-01
-3.126965e-01
-3.150751e-01
-3.159832e-01
-3.153090e-01
-3.136716e-01
-3.135738e-01
-3.198526e-01
0.000000e+00
-1.308326e-02
-2.679006e-02
-4.093471e-02
-5.519428e-02
-6.927895e-02
-8.299439e-02
-9.624220e-02
-1.089777e-01
-1.211836e-01
-1.328554e-01
-1.439938e-01
-1.546008e-01
-1.646782e-01
-1.742268e-01
-1.832456e-01
-1.917318e-01
-1.996803e-01
-2.070829e-01
-2.139272e-01
-2.201948e-01
-2.258589e-01
-2.308808e-01
-2.352052e-01
-2.387559e-01
-2.414323e-01
-2.431164e-01
-2.437072e-01
-2.432225e-01
-2.420366e-01
-2.412672e-01
-2.430440e-01
-2.484000e-01
0.000000e+00
-9.615436e-03
-1.964283e-02
-2.999238e-02
-4.048525e-02
-5.092557e-02
-6.115785e-02
-7.108101e-02
-8.063957e-02
-8.980657e-02
-9.857062e-02
-1.069277e-01
-1.148764e-01
-1.224153e-01
-1.295415e-01
-1.362500e-01
-1.425328e-01
-1.483784e-01
-1.537710e-01
-1.586896e-01
-1.631063e-01
-1.669854e-01
-1.702817e-01
-1.729397e-01
-1.748963e-01
-1.760903e-01
-1.764863e-01
-1.761309e-01
-1.752548e-01
-1.744212e-01
-1.746242e-01
-1.768892e-01
-1.813209e-01
0.000000e+00
-6.328113e-03
-1.290653e-02
-1.969364e-02
-2.659264e-02
-3.348742e-02
-4.027400e-02
-4.687658e-02
-5.324772e-02
-5.936127e-02
-6.520399e-02
-7.076924e-02
-7.605275e-02
-8.105012e-02
-8.575533e-02
-9.015976e-02
-9.425154e-02
-9.801494e-02
-1.014298e-01
-1.044709e-01
-1.071077e-01
-1.093045e-01
-1.110213e-01
-1.122177e-01
-1.128605e-01
-1.129403e-01
-1.125008e-01
-1.116874e-01
-1.108098e-01
-1.103844e-01
-1.110482e-01
-1.132534e-01
-1.168308e-01
0.000000e+00
-3.143172e-03
-6.405173e-03
-9.769240e-03
-1.319288e-02
-1.662202e-02
-2.000529e-02
-2.330249e-02
-2.648649e-02
-2.954068e-02
-3.245524e-02
-3.522367e-02
-3.784030e-02
-4.029865e-02
-4.259034e-02
-4.470435e-02
-4.662652e-02
-4.833909e-02
-4.982054e-02
-5.104563e-02
-5.198605e-02
-5.261202e-02
-5.289558e-02
-5.281671e-02
-5.237386e-02
-5.160081e-02
-5.059113e-02
-4.952726e-02
-4.870139e-02
-4.849450e-02
-4.927323e-02
-5.119698e-02
-5.403557e-02
0.000000e+00
-5.071192e-06
-1.099579e-05
-1.744559e-05
-2.408131e-05
-3.044554e-05
-3.584887e-05
-3.924372e-05
-3.907664e-05
-3.311080e-05
-1.821144e-05
9.909160e-06
5.698687e-05
1.305347e-04
2.401896e-04
3.980472e-04
6.189328e-04
9.205237e-04
1.323193e-03
1.849367e-03
2.522106e-03
3.362456e-03
4.384994e-03
5.590829e-03
6.957373e-03
8.424764e-03
9.880656e-03
1.114908e-02
1.199580e-02
1.216751e-02
1.147612e-02
9.910347e-03
7.717396e-03
0.000000e+00
3.133620e-03
6.384421e-03
9.736247e-03
1.314724e-02
1.656414e-02
1.993688e-02
2.322722e-02
2.641090e-02
2.947551e-02
3.241710e-02
3.523722e-02
3.794099e-02
4.053606e-02
4.303225e-02
4.544141e-02
4.777745e-02
5.005625e-02
5.229517e-02
5.451210e-02
5.672362e-02
5.894189e-02
6.117009e-02
6.339583e-02
6.558295e-02
6.766242e-02
6.952539e-02
7.102378e-02
7.198654e-02
7.225911e-02
7.176546e-02
7.057602e-02
6.894842e-02
0.000000e+00
6.320310e-03
1.288946e-02
1.966630e-02
2.655453e-02
3.343865e-02
4.021568e-02
4.681138e-02
5.318061e-02
5.930056e-02
6.516275e-02
7.076705e-02
7.611800e-02
8.122280e-02
8.609042e-02
9.073122e-02
9.515681e-02
9.937983e-02
1.034134e-01
1.072699e-01
1.109595e-01
1.144868e-01
1.178470e-01
1.210206e-01
1.239680e-01
1.266235e-01
1.288950e-01
1.306691e-01
1.318303e-01
1.322945e-01
1.320558e-01
1.312328e-01
1.300968e-01
0.000000e+00
9.610459e-03
1.963174e-02
2.997432e-02
4.045961e-02
5.089210e-02
6.111689e-02
7.103387e-02
8.058898e-02
8.975736e-02
9.853064e-02
1.069090e-01
1.148968e-01
1.225001e-01
1.297262e-01
1.365827e-01
1.430777e-01
1.492195e-01
1.550159e-01
1.604736e-01
1.655964e-01
1.703832e-01
1.748246e-01
1.788997e-01
1.825726e-01
1.857898e-01
1.884819e-01
1.905714e-01
1.919883e-01
1.926983e-01
1.927383e-01
1.922554e-01
1.915375e-01
0.000000e+00
1.308202e-02
2.678697e-02
4.092918e-02
5.518572e-02
6.926689e-02
8.297851e-02
9.622248e-02
1.089545e-01
1.211580e-01
1.328293e-01
1.439706e-01
1.545859e-01
1.646794e-01
1.742557e-01
1.833184e-01
1.918711e-01
1.999165e-01
2.074566e-01
2.144918e-01
2.210198e-01
2.270348e-01
2.325251e-01
2.374718e-01
2.418471e-01
2.456142e-01
2.487301e-01
2.511517e-01
2.528488e-01
2.538238e-01
2.541401e-01
2.539588e-01
2.535806e-01
0.000000e+00
1.685997e-02
3.465102e-02
5.292887e-02
7.116364e-02
8.895643e-02
1.061547e-01
1.227036e-01
1.385877e-01
1.538055e-01
1.683600e-01
1.822543e-01
1.954911e-01
2.080719e-01
2.199969e-01
2.312651e-01
2.418744e-01
2.518214e-01
2.611011e-01
2.697070e-01
2.776303e-01
2.848600e-01
2.913825e-01
2.971811e-01
3.022375e-01
3.065327e-01
3.100505e-01
3.127832e-01
3.147389e-01
3.159543e-01
3.165133e-01
3.165800e-01
3.164545e-01
0.000000e+00
2.125368e-02
4.375638e-02
6.666812e-02
8.893198e-02
1.103761e-01
1.309866e-01
1.507821e-01
1.697790e-01
1.879873e-01
2.054119e-01
2.220542e-01
2.379131e-01
2.529856e-01
2.672669e-01
2.807506e-01
2.934284e-01
3.052900e-01
3.163227e-01
3.265120e-01
3.358410e-01
3.442916e-01
3.518455e-01
3.584857e-01
3.641997e-01
3.689831e-01
3.728445e-01
3.758112e-01
3.779344e-01
3.792943e-01
3.800061e-01
3.802379e-01
3.802656e-01
0.000000e+00
2.679660e-02
5.575442e-02
8.306024e-02
1.090161e-01
1.338690e-01
1.577498e-01
1.807152e-01
2.027867e-01
2.239694e-01
2.442608e-01
2.636555e-01
2.821460e-01
2.997240e-01
3.163794e-01
3.321004e-01
3.468726e-01
3.606787e-01
3.734979e-01
3.853061e-01
3.960760e-01
4.057786e-01
4.143852e-01
4.218713e-01
4.282212e-01
4.334352e-01
4.375382e-01
4.405877e-01
4.426825e-01
4.439661e-01
4.446219e-01
4.448597e-01
4.449179e-01
0.000000e+00
3.996216e-02
7.251254e-02
1.026713e-01
1.316200e-01
1.595794e-01
1.866056e-01
2.126961e-01
2.378335e-01
2.619978e-01
2.851703e-01
3.073349e-01
3.284775e-01
3.485844e-01
3.676416e-01
3.856333e-01
4.025403e-01
4.183391e-01
4.330007e-01
4.464904e-01
4.587677e-01
4.697874e-01
4.795020e-01
4.878672e-01
4.948484e-01
5.004314e-01
5.046362e-01
5.075329e-01
5.092594e-01
5.100374e-01
5.101788e-01
5.100616e-01
5.099957e-01
0.000000e+00
-2.468809e-02
-4.308604e-02
-6.316263e-02
-8.551912e-02
-1.107730e-01
-1.390998e-01
-1.705487e-01
-2.050884e-01
-2.426449e-01
-2.831186e-01
-3.263950e-01
-3.723506e-01
-4.208569e-01
-4.717826e-01
-5.249957e-01
-5.803648e-01
-6.377608e-01
-6.970593e-01
-7.581427e-01
-8.209046e-01
-8.852558e-01
-9.511322e-01
-1.018508e+00
-1.087418e+00
-1.157989e+00
-1.230502e+00
-1.305503e+00
-1.384040e+00
-1.468187e+00
-1.562416e+00
-1.677281e+00
-1.835970e+00
0.000000e+00
-1.534271e-02
-3.460051e-02
-5.481254e-02
-7.748063e-02
-1.030089e-01
-1.316109e-01
-1.633351e-01
-1.981528e-01
-2.359900e-01
-2.767466e-01
-3.203071e-01
-3.665470e-01
-4.153367e-01
-4.665438e-01
-5.200347e-01
-5.756766e-01
-6.333385e-01
-6.928934e-01
-7.542209e-01
-8.172110e-01
-8.817696e-01
-9.478271e-01
-1.015350e+00
-1.084364e+00
-1.154985e+00
-1.227477e+00
-1.302373e+00
-1.380696e+00
-1.464486e+00
-1.557987e+00
-1.670295e+00
-1.818551e+00
0.000000e+00
-1.127010e-02
-2.789477e-02
-4.783107e-02
-7.053877e-02
-9.625512e-02
-1.250829e-01
-1.570488e-01
-1.921145e-01
-2.302024e-01
-2.712106e-01
-3.150229e-01
-3.615141e-01
-4.105541e-01
-4.620101e-01
-5.157480e-01
-5.716343e-01
-6.295372e-01
-6.893290e-01
-7.508882e-01
-8.141038e-01
-8.788812e-01
-9.451502e-01
-1.012879e+00
-1.082096e+00
-1.152922e+00
-1.225635e+00
-1.300780e+00
-1.379369e+00
-1.463237e+00
-1.555522e+00
-1.659929e+00
-1.775747e+00
0.000000e+00
-9.024619e-03
-2.362124e-02
-4.249444e-02
-6.491031e-02
-9.061868e-02
-1.195698e-01
-1.517148e-01
-1.869845e-01
-2.252872e-01
-2.665146e-01
-3.105473e-01
-3.572594e-01
-4.065203e-01
-4.581973e-01
-5.121568e-01
-5.682658e-01
-6.263929e-01
-6.864110e-01
-7.481997e-01
-8.116496e-01
-8.766680e-01
-9.431886e-01
-1.011185e+00
-1.080690e+00
-1.151834e+00
-1.224890e+00
-1.300360e+00
-1.379073e+00
-1.462238e+00
-1.551013e+00
-1.644643e+00
-1.731802e+00
0.000000e+00
-7.636311e-03
-2.082650e-02
-3.870480e-02
-6.060968e-02
-8.614950e-02
-1.151115e-01
-1.473609e-01
-1.827814e-01
-2.212571e-01
-2.626676e-01
-3.068883e-01
-3.537907e-01
-4.032440e-01
-4.551160e-01
-5.092740e-01
-5.655862e-01
-6.239229e-01
-6.841586e-01
-7.461749e-01
-8.098649e-01
-8.751388e-01
-9.419330e-01
-1.010223e+00
-1.080039e+00
-1.151495e+00
-1.224814e+00
-1.300358e+00
-1.378603e+00
-1.459933e+00
-1.543960e+00
-1.627598e+00
-1.703505e+00
0.000000e+00
-6.752919e-03
-1.899281e-02
-3.609693e-02
-5.750873e-02
-8.280931e-02
-1.117083e-01
-1.439991e-01
-1.795187e-01
-2.181240e-01
-2.596798e-01
-3.040538e-01
-3.511146e-01
-4.007307e-01
-4.527706e-01
-5.071029e-01
-5.635976e-01
-6.221268e-01
-6.825670e-01
-7.448019e-01
-8.087259e-01
-8.742498e-01
-9.413080e-01
-1.009868e+00
-1.079943e+00
-1.151598e+00
-1.224962e+00
-1.300192e+00
-1.377376e+00
-1.456252e+00
-1.535620e+00
-1.612643e+00
-1.683043e+00
0.000000e+00
-6.203900e-03
-1.783346e-02
-3.440177e-02
-5.543132e-02
-8.051387e-02
-1.093271e-01
-1.416219e-01
-1.772001e-01
-2.158952e-01
-2.575579e-01
-3.020491e-01
-3.492342e-01
-3.989812e-01
-4.511592e-01
-5.056384e-01
-5.622905e-01
-6.209895e-01
-6.816133e-01
-7.440461e-01
-8.081817e-01
-8.739271e-01
-9.412081e-01
-1.009974e+00
-1.080201e+00
-1.151890e+00
-1.225048e+00
-1.299633e+00
-1.375430e+00
-1.451821e+00
-1.527485e+00
-1.600241e+00
-1.667416e+00
0.000000e+00
-5.902207e-03
-1.719016e-02
-3.344650e-02
-5.424011e-02
-7.917680e-02
-1.079239e-01
-1.402116e-01
-1.758215e-01
-2.145721e-01
-2.563049e-01
-3.008760e-01
-3.481489e-01
-3.979916e-01
-4.502742e-01
-5.048683e-01
-5.616471e-01
-6.204858e-01
-6.812626e-01
-7.438606e-01
-8.081697e-01
-8.740889e-01
-9.415284e-01
-1.010411e+00
-1.080666e+00
-1.152223e+00
-1.224976e+00
-1.298726e+00
-1.373081e+00
-1.447308e+00
-1.520215e+00
-1.590162e+00
-1.655324e+00
0.000000e+00
-5.805002e-03
-1.698261e-02
-3.313689e-02
-5.385187e-02
-7.873920e-02
-1.074642e-01
-1.397514e-01
-1.753764e-01
-2.141528e-01
-2.559199e-01
-3.005325e-01
-3.478544e-01
-3.977543e-01
-4.501038e-01
-5.047757e-01
-5.616443e-01
-6.205851e-01
-6.814754e-01
-7.441952e-01
-8.086279e-01
-8.746605e-01
-9.421836e-01
-1.011088e+00
-1.081258e+00
-1.152552e+00
-1.224779e+00
-1.297640e+00
-1.370664e+00
-1.443132e+00
-1.514036e+00
-1.582123e+00
-1.646058e+00
0.000000e+00
-5.899395e-03
-1.718626e-02
-3.344314e-02
-5.423909e-02
-7.918037e-02
-1.079350e-01
-1.402341e-01
-1.758607e-01
-2.146346e-01
-2.563996e-01
-3.010137e-01
-3.483433e-01
-3.982589e-01
-4.506336e-01
-5.053415e-01
-5.622572e-01
-6.212558e-01
-6.822127e-01
-7.450032e-01
-8.095023e-01
-8.755831e-01
-9.431146e-01
-1.011956e+00
-1.081949e+00
-1.152899e+00
-1.224551e+00
-1.296556e+00
-1.368430e+00
-1.439518e+00
-1.508989e+00
-1.575874e+00
-1.639151e+00
0.000000e+00
-6.198505e-03
-1.782597e-02
-3.439529e-02
-5.542929e-02
-8.052057e-02
-1.093481e-01
-1.416648e-01
-1.772749e-01
-2.160148e-01
-2.577391e-01
-3.023129e-01
-3.496067e-01
-3.994938e-01
-4.518487e-01
-5.065465e-01
-5.634619e-01
-6.224690e-01
-6.834402e-01
-7.462456e-01
-8.107509e-01
-8.768152e-01
-9.442868e-01
-1.012997e+00
-1.082751e+00
-1.153315e+00
-1.224396e+00
-1.295627e+00
-1.366542e+00
-1.436567e+00
-1.505031e+00
-1.571186e+00
-1.634249e+00
0.000000e+00
-6.745419e-03
-1.898240e-02
-3.608789e-02
-5.750580e-02
-8.281847e-02
-1.117375e-01
-1.440587e-01
-1.796228e-01
-2.182908e-01
-2.599326e-01
-3.044222e-01
-3.516352e-01
-4.014477e-01
-4.537355e-01
-5.083744e-01
-5.652387e-01
-6.242011e-01
-6.851311e-01
-7.478932e-01
-8.123446e-01
-8.783314e-01
-9.456840e-01
-1.014211e+00
-1.083689e+00
-1.153859e+00
-1.224406e+00
-1.294961e+00
-1.365092e+00
-1.434307e+00
-1.502076e+00
-1.567842e+00
-1.631035e+00
0.000000e+00
-7.627477e-03
-2.081425e-02
-3.869414e-02
-6.060629e-02
-8.616060e-02
-1.151466e-01
-1.474329e-01
-1.829071e-01
-2.214585e-01
-2.629732e-01
-3.073338e-01
-3.544204e-01
-4.041113e-01
-4.562836e-01
-5.108130e-01
-5.675735e-01
-6.264360e-01
-6.872674e-01
-7.499274e-01
-8.142659e-01
-8.801185e-01
-9.473018e-01
-1.015607e+00
-1.084792e+00
-1.154579e+00
-1.224645e+00
-1.294626e+00
-1.364123e+00
-1.432721e+00
-1.500013e+00
-1.565622e+00
-1.629196e+00
0.000000e+00
-9.015539e-03
-2.360866e-02
-4.248360e-02
-6.490740e-02
-9.063171e-02
-1.196094e-01
-1.517951e-01
-1.871243e-01
-2.255108e-01
-2.668532e-01
-3.110407e-01
-3.579561e-01
-4.074794e-01
-4.594877e-01
-5.138569e-01
-5.704600e-01
-6.291667e-01
-6.898415e-01
-7.523405e-01
-8.165083e-01
-8.821732e-01
-9.491421e-01
-1.017195e+00
-1.086078e+00
-1.155503e+00
-1.225143e+00
-1.294644e+00
-1.363634e+00
-1.431759e+00
-1.498716e+00
-1.564296e+00
-1.628394e+00
0.000000e+00
-1.126219e-02
-2.788375e-02
-4.782192e-02
-7.053790e-02
-9.627099e-02
-1.251267e-01
-1.571353e-01
-1.922630e-01
-2.304382e-01
-2.715662e-01
-3.155390e-01
-3.622408e-01
-4.115518e-01
-4.633492e-01
-5.175082e-01
-5.739012e-01
-6.323968e-01
-6.928574e-01
-7.551370e-01
-8.190767e-01
-8.845006e-01
-9.512104e-01
-1.018980e+00
-1.087551e+00
-1.156631e+00
-1.225894e+00
-1.294993e+00
-1.363579e+00
-1.431338e+00
-1.498044e+00
-1.563630e+00
-1.628254e+00
0.000000e+00
-1.533762e-02
-3.459302e-02
-5.480715e-02
-7.748396e-02
-1.030295e-01
-1.316602e-01
-1.634278e-01
-1.983083e-01
-2.362334e-01
-2.771098e-01
-3.208300e-01
-3.672786e-01
-4.163353e-01
-4.678771e-01
-5.217784e-01
-5.779108e-01
-6.361418e-01
-6.963326e-01
-7.583354e-01
-8.219896e-01
-8.871173e-01
-9.535184e-01
-1.020966e+00
-1.089200e+00
-1.157933e+00
-1.226842e+00
-1.295591e+00
-1.363846e+00
-1.431318e+00
-1.497825e+00
-1.563389e+00
-1.628373e+00
0.000000e+00
-2.468737e-02
-4.308354e-02
-6.316311e-02
-8.552920e-02
-1.108014e-01
-1.391577e-01
-1.706509e-01
-2.052538e-01
-2.428979e-01
-2.834899e-01
-3.269226e-01
-3.730807e-01
-4.218438e-01
-4.730883e-01
-5.266880e-01
-5.825136e-01
-6.404310e-01
-7.003003e-01
-7.619718e-01
-8.252836e-01
-8.900568e-01
-9.560910e-01