TITLE = "Solution"
VARIABLES = x, y, u, v, psiu, psiv, t, stress
ZONE T="structure" N=561 E=512 F=FEBLOCK ET=QUADRILATERAL VARLOCATION=([7,8]=cellcentered)
0.000000e+00
6.250000e+00
1.250000e+01
1.875000e+01
2.500000e+01
3.125000e+01
3.750000e+01
4.375000e+01
5.000000e+01
5.625000e+01
6.250000e+01
6.875000e+01
7.500000e+01
8.125000e+01
8.750000e+01
9.375000e+01
1.000000e+02
1.062500e+02
1.125000e+02
1.187500e+02
1.250000e+02
1.312500e+02
1.375000e+02
1.437500e+02
1.500000e+02
1.562500e+02
1.625000e+02
1.687500e+02
1.750000e+02
1.812500e+02
1.875000e+02
1.937500e+02
2.000000e+02
0.000000e+00
6.250000e+00
1.250000e+01
1.875000e+01
2.500000e+01
3.125000e+01
3.750000e+01
4.375000e+01
5.000000e+01
5.625000e+01
6.250000e+01
6.875000e+01
7.500000e+01
8.125000e+01
8.750000e+01
9.375000e+01
1.000000e+02
1.062500e+02
1.125000e+02
1.187500e+02
1.250000e+02
1.312500e+02
1.375000e+02
1.437500e+02
1.500000e+02
1.562500e+02
1.625000e+02
1.687500e+02
1.750000e+02
1.812500e+02
1.875000e+02
1.937500e+02
2.000000e+02
0.000000e+00
6.250000e+00
1.250000e+01
1.875000e+01
2.500000e+01
3.125000e+01
3.750000e+01
4.375000e+01
5.000000e+01
5.625000e+01
6.250000e+01
6.875000e+01
7.500000e+01
8.125000e+01
8.750000e+01
9.375000e+01
1.000000e+02
1.062500e+02
1.125000e+02
1.187500e+02
1.250000e+02
1.312500e+02
1.375000e+02
1.437500e+02
1.500000e+02
1.562500e+02
1.625000e+02
1.687500e+02
1.750000e+02
1.812500e+02
1.875000e+02
1.937500e+02
2.000000e+02
0.000000e+00
6.250000e+00
1.250000e+01
1.875000e+01
2.500000e+01
3.125000e+01
3.750000e+01
4.375000e+01
5.000000e+01
5.625000e+01
6.250000e+01
6.875000e+01
7.500000e+01
8.125000e+01
8.750000e+01
9.375000e+01
1.000000e+02
1.062500e+02
1.125000e+02
1.187500e+02
1.250000e+02
1.312500e+02
1.375000e+02
1.437500e+02
1.500000e+02
1.562500e+02
1.625000e+02
1.687500e+02
1.750000e+02
1.812500e+02
1.875000e+02
1.937500e+02
2.000000e+02
0.000000e+00
6.250000e+00
1.250000e+01
1.875000e+01
2.500000e+01
3.125000e+01
3.750000e+01
4.375000e+01
5.000000e+01
5.625000e+01
6.250000e+01
6.875000e+01
7.500000e+01
8.125000e+01
8.750000e+01
9.375000e+01
1.000000e+02
1.062500e+02
1.125000e+02
1.187500e+02
1.250000e+02
1.312500e+02
1.375000e+02
1.437500e+02
1.500000e+02
1.562500e+02
1.625000e+02
1.687500e+02
1.750000e+02
1.812500e+02
1.875000e+02
1.937500e+02
2.000000e+02
0.000000e+00
6.250000e+00
1.250000e+01
1.875000e+01
2.500000e+01
3.125000e+01
3.750000e+01
4.375000e+01
5.000000e+01
5.625000e+01
6.250000e+01
6.875000e+01
7.500000e+01
8.125000e+01
8.750000e+01
9.375000e+01
1.000000e+02
1.062500e+02
1.125000e+02
1.187500e+02
1.250000e+02
1.312500e+02
1.375000e+02
1.437500e+02
1.500000e+02
1.562500e+02
1.625000e+02
1.687500e+02
1.750000e+02
1.812500e+02
1.875000e+02
1.937500e+02
2.000000e+02
0.000000e+00
6.250000e+00
1.250000e+01
1.875000e+01
2.500000e+01
3.125000e+01
3.750000e+01
4.375000e+01
5.000000e+01
5.625000e+01
6.250000e+01
6.875000e+01
7.500000e+01
8.125000e+01
8.750000e+01
9.375000e+01
1.000000e+02
1.062500e+02
1.125000e+02
1.187500e+02
1.250000e+02
1.312500e+02
1.375000e+02
1.437500e+02
1.500000e+02
1.562500e+02
1.625000e+02
1.687500e+02
1.750000e+02
1.812500e+02
1.875000e+02
1.937500e+02
2.000000e+02
0.000000e+00
6.250000e+00
1.250000e+01
1.875000e+01
2.500000e+01
3.125000e+01
3.750000e+01
4.375000e+01
5.000000e+01
5.625000e+01
6.250000e+01
6.875000e+01
7.500000e+01
8.125000e+01
8.750000e+01
9.375000e+01
1.000000e+02
1.062500e+02
1.125000e+02
1.187500e+02
1.250000e+02
1.312500e+02
1.375000e+02
1.437500e+02
1.500000e+02
1.562500e+02
1.625000e+02
1.687500e+02
1.750000e+02
1.812500e+02
1.875000e+02
1.937500e+02
2.000000e+02
0.000000e+00
6.250000e+00
1.250000e+01
1.875000e+01
2.500000e+01
3.125000e+01
3.750000e+01
4.375000e+01
5.000000e+01
5.625000e+01
6.250000e+01
6.875000e+01
7.500000e+01
8.125000e+01
8.750000e+01
9.375000e+01
1.000000e+02
1.062500e+02
1.125000e+02
1.187500e+02
1.250000e+02
1.312500e+02
1.375000e+02
1.437500e+02
1.500000e+02
1.562500e+02
1.625000e+02
1.687500e+02
1.750000e+02
1.812500e+02
1.875000e+02
1.937500e+02
2.000000e+02
0.000000e+00
6.250000e+00
1.250000e+01
1.875000e+01
2.500000e+01
3.125000e+01
3.750000e+01
4.375000e+01
5.000000e+01
5.625000e+01
6.250000e+01
6.875000e+01
7.500000e+01
8.125000e+01
8.750000e+01
9.375000e+01
1.000000e+02
1.062500e+02
1.125000e+02
1.187500e+02
1.250000e+02
1.312500e+02
1.375000e+02
1.437500e+02
1.500000e+02
1.562500e+02
1.625000e+02
1.687500e+02
1.750000e+02
1.812500e+02
1.875000e+02
1.937500e+02
2.000000e+02
0.000000e+00
6.250000e+00
1.250000e+01
1.875000e+01
2.500000e+01
3.125000e+01
3.750000e+01
4.375000e+01
5.000000e+01
5.625000e+01
6.250000e+01
6.875000e+01
7.500000e+01
8.125000e+01
8.750000e+01
9.375000e+01
1.000000e+02
1.062500e+02
1.125000e+02
1.187500e+02
1.250000e+02
1.312500e+02
1.375000e+02
1.437500e+02
1.500000e+02
1.562500e+02
1.625000e+02
1.687500e+02
1.750000e+02
1.812500e+02
1.875000e+02
1.937500e+02
2.000000e+02
0.000000e+00
6.250000e+00
1.250000e+01
1.875000e+01
2.500000e+01
3.125000e+01
3.750000e+01
4.375000e+01
5.000000e+01
5.625000e+01
6.250000e+01
6.875000e+01
7.500000e+01
8.125000e+01
8.750000e+01
9.375000e+01
1.000000e+02
1.062500e+02
1.125000e+02
1.187500e+02
1.250000e+02
1.312500e+02
1.375000e+02
1.437500e+02
1.500000e+02
1.562500e+02
1.625000e+02
1.687500e+02
1.750000e+02
1.812500e+02
1.875000e+02
1.937500e+02
2.000000e+02
0.000000e+00
6.250000e+00
1.250000e+01
1.875000e+01
2.500000e+01
3.125000e+01
3.750000e+01
4.375000e+01
5.000000e+01
5.625000e+01
6.250000e+01
6.875000e+01
7.500000e+01
8.125000e+01
8.750000e+01
9.375000e+01
1.000000e+02
1.062500e+02
1.125000e+02
1.187500e+02
1.250000e+02
1.312500e+02
1.375000e+02
1.437500e+02
1.500000e+02
1.562500e+02
1.625000e+02
1.687500e+02
1.750000e+02
1.812500e+02
1.875000e+02
1.937500e+02
2.000000e+02
0.000000e+00
6.250000e+00
1.250000e+01
1.875000e+01
2.500000e+01
3.125000e+01
3.750000e+01
4.375000e+01
5.000000e+01
5.625000e+01
6.250000e+01
6.875000e+01
7.500000e+01
8.125000e+01
8.750000e+01
9.375000e+01
1.000000e+02
1.062500e+02
1.125000e+02
1.187500e+02
1.250000e+02
1.312500e+02
1.375000e+02
1.437500e+02
1.500000e+02
1.562500e+02
1.625000e+02
1.687500e+02
1.750000e+02
1.812500e+02
1.875000e+02
1.937500e+02
2.000000e+02
0.000000e+00
6.250000e+00
1.250000e+01
1.875000e+01
2.500000e+01
3.125000e+01
3.750000e+01
4.375000e+01
5.000000e+01
5.625000e+01
6.250000e+01
6.875000e+01
7.500000e+01
8.125000e+01
8.750000e+01
9.375000e+01
1.000000e+02
1.062500e+02
1.125000e+02
1.187500e+02
1.250000e+02
1.312500e+02
1.375000e+02
1.437500e+02
1.500000e+02
1.562500e+02
1.625000e+02
1.687500e+02
1.750000e+02
1.812500e+02
1.875000e+02
1.937500e+02
2.000000e+02
0.000000e+00
6.250000e+00
1.250000e+01
1.875000e+01
2.500000e+01
3.125000e+01
3.750000e+01
4.375000e+01
5.000000e+01
5.625000e+01
6.250000e+01
6.875000e+01
7.500000e+01
8.125000e+01
8.750000e+01
9.375000e+01
1.000000e+02
1.062500e+02
1.125000e+02
1.187500e+02
1.250000e+02
1.312500e+02
1.375000e+02
1.437500e+02
1.500000e+02
1.562500e+02
1.625000e+02
1.687500e+02
1.750000e+02
1.812500e+02
1.875000e+02
1.937500e+02
2.000000e+02
0.000000e+00
6.250000e+00
1.250000e+01
1.875000e+01
2.500000e+01
3.125000e+01
3.750000e+01
4.375000e+01
5.000000e+01
5.625000e+01
6.250000e+01
6.875000e+01
7.500000e+01
8.125000e+01
8.750000e+01
9.375000e+01
1.000000e+02
1.062500e+02
1.125000e+02
1.187500e+02
1.250000e+02
1.312500e+02
1.375000e+02
1.437500e+02
1.500000e+02
1.562500e+02
1.625000e+02
1.687500e+02
1.750000e+02
1.812500e+02
1.875000e+02
1.937500e+02
2.000000e+02
0.000000e+00
0.000000e+00
0.000000e+00
0.000000e+00
0.000000e+00
0.000000e+00
0.000000e+00
0.000000e+00
0.000000e+00
0.000000e+00
0.000000e+00
0.000000e+00
0.000000e+00
0.000000e+00
0.000000e+00
0.000000e+00
0.000000e+00
0.000000e+00
0.000000e+00
0.000000e+00
0.000000e+00
0.000000e+00
0.000000e+00
0.000000e+00
0.000000e+00
0.000000e+00
0.000000e+00
0.000000e+00
0.000000e+00
0.000000e+00
0.000000e+00
0.000000e+00
0.000000e+00
6.250000e+00
6.250000e+00
6.250000e+00
6.250000e+00
6.250000e+00
6.250000e+00
6.250000e+00
6.250000e+00
6.250000e+00
6.250000e+00
6.250000e+00
6.250000e+00
6.250000e+00
6.250000e+00
6.250000e+00
6.250000e+00
6.250000e+00
6.250000e+00
6.250000e+00
6.250000e+00
6.250000e+00
6.250000e+00
6.250000e+00
6.250000e+00
6.250000e+00
6.250000e+00
6.250000e+00
6.250000e+00
6.250000e+00
6.250000e+00
6.250000e+00
6.250000e+00
6.250000e+00
1.250000e+01
1.250000e+01
1.250000e+01
1.250000e+01
1.250000e+01
1.250000e+01
1.250000e+01
1.250000e+01
1.250000e+01
1.250000e+01
1.250000e+01
1.250000e+01
1.250000e+01
1.250000e+01
1.250000e+01
1.250000e+01
1.250000e+01
1.250000e+01
1.250000e+01
1.250000e+01
1.250000e+01
1.250000e+01
1.250000e+01
1.250000e+01
1.250000e+01
1.250000e+01
1.250000e+01
1.250000e+01
1.250000e+01
1.250000e+01
1.250000e+01
1.250000e+01
1.250000e+01
1.875000e+01
1.875000e+01
1.875000e+01
1.875000e+01
1.875000e+01
1.875000e+01
1.875000e+01
1.875000e+01
1.875000e+01
1.875000e+01
1.875000e+01
1.875000e+01
1.875000e+01
1.875000e+01
1.875000e+01
1.875000e+01
1.875000e+01
1.875000e+01
1.875000e+01
1.875000e+01
1.875000e+01
1.875000e+01
1.875000e+01
1.875000e+01
1.875000e+01
1.875000e+01
1.875000e+01
1.875000e+01
1.875000e+01
1.875000e+01
1.875000e+01
1.875000e+01
1.875000e+01
2.500000e+01
2.500000e+01
2.500000e+01
2.500000e+01
2.500000e+01
2.500000e+01
2.500000e+01
2.500000e+01
2.500000e+01
2.500000e+01
2.500000e+01
2.500000e+01
2.500000e+01
2.500000e+01
2.500000e+01
2.500000e+01
2.500000e+01
2.500000e+01
2.500000e+01
2.500000e+01
2.500000e+01
2.500000e+01
2.500000e+01
2.500000e+01
2.500000e+01
2.500000e+01
2.500000e+01
2.500000e+01
2.500000e+01
2.500000e+01
2.500000e+01
2.500000e+01
2.500000e+01
3.125000e+01
3.125000e+01
3.125000e+01
3.125000e+01
3.125000e+01
3.125000e+01
3.125000e+01
3.125000e+01
3.125000e+01
3.125000e+01
3.125000e+01
3.125000e+01
3.125000e+01
3.125000e+01
3.125000e+01
3.125000e+01
3.125000e+01
3.125000e+01
3.125000e+01
3.125000e+01
3.125000e+01
3.125000e+01
3.125000e+01
3.125000e+01
3.125000e+01
3.125000e+01
3.125000e+01
3.125000e+01
3.125000e+01
3.125000e+01
3.125000e+01
3.125000e+01
3.125000e+01
3.750000e+01
3.750000e+01
3.750000e+01
3.750000e+01
3.750000e+01
3.750000e+01
3.750000e+01
3.750000e+01
3.750000e+01
3.750000e+01
3.750000e+01
3.750000e+01
3.750000e+01
3.750000e+01
3.750000e+01
3.750000e+01
3.750000e+01
3.750000e+01
3.750000e+01
3.750000e+01
3.750000e+01
3.750000e+01
3.750000e+01
3.750000e+01
3.750000e+01
3.750000e+01
3.750000e+01
3.750000e+01
3.750000e+01
3.750000e+01
3.750000e+01
3.750000e+01
3.750000e+01
4.375000e+01
4.375000e+01
4.375000e+01
4.375000e+01
4.375000e+01
4.375000e+01
4.375000e+01
4.375000e+01
4.375000e+01
4.375000e+01
4.375000e+01
4.375000e+01
4.375000e+01
4.375000e+01
4.375000e+01
4.375000e+01
4.375000e+01
4.375000e+01
4.375000e+01
4.375000e+01
4.375000e+01
4.375000e+01
4.375000e+01
4.375000e+01
4.375000e+01
4.375000e+01
4.375000e+01
4.375000e+01
4.375000e+01
4.375000e+01
4.375000e+01
4.375000e+01
4.375000e+01
5.000000e+01
5.000000e+01
5.000000e+01
5.000000e+01
5.000000e+01
5.000000e+01
5.000000e+01
5.000000e+01
5.000000e+01
5.000000e+01
5.000000e+01
5.000000e+01
5.000000e+01
5.000000e+01
5.000000e+01
5.000000e+01
5.000000e+01
5.000000e+01
5.000000e+01
5.000000e+01
5.000000e+01
5.000000e+01
5.000000e+01
5.000000e+01
5.000000e+01
5.000000e+01
5.000000e+01
5.000000e+01
5.000000e+01
5.000000e+01
5.000000e+01
5.000000e+01
5.000000e+01
5.625000e+01
5.625000e+01
5.625000e+01
5.625000e+01
5.625000e+01
5.625000e+01
5.625000e+01
5.625000e+01
5.625000e+01
5.625000e+01
5.625000e+01
5.625000e+01
5.625000e+01
5.625000e+01
5.625000e+01
5.625000e+01
5.625000e+01
5.625000e+01
5.625000e+01
5.625000e+01
5.625000e+01
5.625000e+01
5.625000e+01
5.625000e+01
5.625000e+01
5.625000e+01
5.625000e+01
5.625000e+01
5.625000e+01
5.625000e+01
5.625000e+01
5.625000e+01
5.625000e+01
6.250000e+01
6.250000e+01
6.250000e+01
6.250000e+01
6.250000e+01
6.250000e+01
6.250000e+01
6.250000e+01
6.250000e+01
6.250000e+01
6.250000e+01
6.250000e+01
6.250000e+01
6.250000e+01
6.250000e+01
6.250000e+01
6.250000e+01
6.250000e+01
6.250000e+01
6.250000e+01
6.250000e+01
6.250000e+01
6.250000e+01
6.250000e+01
6.250000e+01
6.250000e+01
6.250000e+01
6.250000e+01
6.250000e+01
6.250000e+01
6.250000e+01
6.250000e+01
6.250000e+01
6.875000e+01
6.875000e+01
6.875000e+01
6.875000e+01
6.875000e+01
6.875000e+01
6.875000e+01
6.875000e+01
6.875000e+01
6.875000e+01
6.875000e+01
6.875000e+01
6.875000e+01
6.875000e+01
6.875000e+01
6.875000e+01
6.875000e+01
6.875000e+01
6.875000e+01
6.875000e+01
6.875000e+01
6.875000e+01
6.875000e+01
6.875000e+01
6.875000e+01
6.875000e+01
6.875000e+01
6.875000e+01
6.875000e+01
6.875000e+01
6.875000e+01
6.875000e+01
6.875000e+01
7.500000e+01
7.500000e+01
7.500000e+01
7.500000e+01
7.500000e+01
7.500000e+01
7.500000e+01
7.500000e+01
7.500000e+01
7.500000e+01
7.500000e+01
7.500000e+01
7.500000e+01
7.500000e+01
7.500000e+01
7.500000e+01
7.500000e+01
7.500000e+01
7.500000e+01
7.500000e+01
7.500000e+01
7.500000e+01
7.500000e+01
7.500000e+01
7.500000e+01
7.500000e+01
7.500000e+01
7.500000e+01
7.500000e+01
7.500000e+01
7.500000e+01
7.500000e+01
7.500000e+01
8.125000e+01
8.125000e+01
8.125000e+01
8.125000e+01
8.125000e+01
8.125000e+01
8.125000e+01
8.125000e+01
8.125000e+01
8.125000e+01
8.125000e+01
8.125000e+01
8.125000e+01
8.125000e+01
8.125000e+01
8.125000e+01
8.125000e+01
8.125000e+01
8.125000e+01
8.125000e+01
8.125000e+01
8.125000e+01
8.125000e+01
8.125000e+01
8.125000e+01
8.125000e+01
8.125000e+01
8.125000e+01
8.125000e+01
8.125000e+01
8.125000e+01
8.125000e+01
8.125000e+01
8.750000e+01
8.750000e+01
8.750000e+01
8.750000e+01
8.750000e+01
8.750000e+01
8.750000e+01
8.750000e+01
8.750000e+01
8.750000e+01
8.750000e+01
8.750000e+01
8.750000e+01
8.750000e+01
8.750000e+01
8.750000e+01
8.750000e+01
8.750000e+01
8.750000e+01
8.750000e+01
8.750000e+01
8.750000e+01
8.750000e+01
8.750000e+01
8.750000e+01
8.750000e+01
8.750000e+01
8.750000e+01
8.750000e+01
8.750000e+01
8.750000e+01
8.750000e+01
8.750000e+01
9.375000e+01
9.375000e+01
9.375000e+01
9.375000e+01
9.375000e+01
9.375000e+01
9.375000e+01
9.375000e+01
9.375000e+01
9.375000e+01
9.375000e+01
9.375000e+01
9.375000e+01
9.375000e+01
9.375000e+01
9.375000e+01
9.375000e+01
9.375000e+01
9.375000e+01
9.375000e+01
9.375000e+01
9.375000e+01
9.375000e+01
9.375000e+01
9.375000e+01
9.375000e+01
9.375000e+01
9.375000e+01
9.375000e+01
9.375000e+01
9.375000e+01
9.375000e+01
9.375000e+01
1.000000e+02
1.000000e+02
1.000000e+02
1.000000e+02
1.000000e+02
1.000000e+02
1.000000e+02
1.000000e+02
1.000000e+02
1.000000e+02
1.000000e+02
1.000000e+02
1.000000e+02
1.000000e+02
1.000000e+02
1.000000e+02
1.000000e+02
1.000000e+02
1.000000e+02
1.000000e+02
1.000000e+02
1.000000e+02
1.000000e+02
1.000000e+02
1.000000e+02
1.000000e+02
1.000000e+02
1.000000e+02
1.000000e+02
1.000000e+02
1.000000e+02
1.000000e+02
1.000000e+02
0.000000e+00
-4.639168e-01
-7.748314e-01
-1.111699e+00
-1.415092e+00
-1.710163e+00
-2.019306e+00
-2.310081e+00
-2.611636e+00
-2.906505e+00
-3.205219e+00
-3.504134e+00
-3.802542e+00
-4.103482e+00
-4.402943e+00
-4.704194e+00
-5.005101e+00
-5.306348e+00
-5.608031e+00
-5.909400e+00
-6.211446e+00
-6.512864e+00
-6.814200e+00
-7.112555e+00
-7.412136e+00
-7.714451e+00
-8.020274e+00
-8.346171e+00
-8.669931e+00
-9.031931e+00
-9.510104e+00
-9.926266e+00
-1.013200e+01
0.000000e+00
-2.328441e-01
-4.725608e-01
-7.371330e-01
-1.003597e+00
-1.257115e+00
-1.526335e+00
-1.786681e+00
-2.049176e+00
-2.314022e+00
-2.574153e+00
-2.839013e+00
-3.099861e+00
-3.362775e+00
-3.625028e+00
-3.886429e+00
-4.148948e+00
-4.410202e+00
-4.671878e+00
-4.933434e+00
-5.194318e+00
-5.455524e+00
-5.716632e+00
-5.976803e+00
-6.238836e+00
-6.498703e+00
-6.759377e+00
-7.022481e+00
-7.277777e+00
-7.538442e+00
-7.785696e+00
-7.884176e+00
-7.989869e+00
0.000000e+00
-1.087505e-01
-2.506096e-01
-4.467557e-01
-6.625879e-01
-8.693165e-01
-1.096488e+00
-1.320555e+00
-1.545581e+00
-1.775372e+00
-1.997871e+00
-2.225643e+00
-2.448792e+00
-2.673127e+00
-2.897232e+00
-3.119973e+00
-3.344020e+00
-3.566973e+00
-3.790505e+00
-4.014382e+00
-4.237672e+00
-4.461669e+00
-4.686522e+00
-4.912236e+00
-5.138211e+00
-5.358175e+00
-5.569362e+00
-5.767081e+00
-5.945421e+00
-6.094096e+00
-6.176291e+00
-6.180619e+00
-6.273436e+00
0.000000e+00
-1.025760e-01
-1.888498e-01
-3.379929e-01
-4.618400e-01
-6.193971e-01
-7.952594e-01
-9.659231e-01
-1.153500e+00
-1.333289e+00
-1.518399e+00
-1.702446e+00
-1.887056e+00
-2.072300e+00
-2.257852e+00
-2.444574e+00
-2.631885e+00
-2.820637e+00
-3.010321e+00
-3.201243e+00
-3.392934e+00
-3.584629e+00
-3.776776e+00
-3.965893e+00
-4.148405e+00
-4.318989e+00
-4.470248e+00
-4.601263e+00
-4.701762e+00
-4.762611e+00
-4.775883e+00
-4.791737e+00
-4.872722e+00
0.000000e+00
-9.182130e-02
-1.822333e-01
-2.733641e-01
-3.842260e-01
-5.007629e-01
-6.319713e-01
-7.665114e-01
-9.090952e-01
-1.052380e+00
-1.197063e+00
-1.344252e+00
-1.489664e+00
-1.637571e+00
-1.784834e+00
-1.932933e+00
-2.081900e+00
-2.230839e+00
-2.380315e+00
-2.529385e+00
-2.677298e+00
-2.823104e+00
-2.964943e+00
-3.100362e+00
-3.226324e+00
-3.338958e+00
-3.434488e+00
-3.507668e+00
-3.554788e+00
-3.576243e+00
-3.576495e+00
-3.606001e+00
-3.679008e+00
0.000000e+00
-7.338259e-02
-1.441385e-01
-2.185210e-01
-2.992670e-01
-3.876876e-01
-4.820468e-01
-5.828847e-01
-6.865845e-01
-7.936476e-01
-9.016763e-01
-1.010269e+00
-1.119585e+00
-1.228520e+00
-1.337852e+00
-1.446968e+00
-1.555914e+00
-1.664525e+00
-1.772183e+00
-1.878360e+00
-1.982023e+00
-2.081746e+00
-2.175829e+00
-2.262192e+00
-2.338411e+00
-2.402259e+00
-2.451683e+00
-2.484662e+00
-2.502165e+00
-2.498836e+00
-2.494366e+00
-2.522355e+00
-2.589658e+00
0.000000e+00
-5.059890e-02
-1.007320e-01
-1.520845e-01
-2.069086e-01
-2.656542e-01
-3.285589e-01
-3.947362e-01
-4.636164e-01
-5.340748e-01
-6.054638e-01
-6.771655e-01
-7.487912e-01
-8.202255e-01
-8.912190e-01
-9.617152e-01
-1.031470e+00
-1.100191e+00
-1.167430e+00
-1.232480e+00
-1.294352e+00
-1.351727e+00
-1.403126e+00
-1.446894e+00
-1.481352e+00
-1.504504e+00
-1.515992e+00
-1.516180e+00
-1.497892e+00
-1.469313e+00
-1.459106e+00
-1.485546e+00
-1.552218e+00
0.000000e+00
-2.664520e-02
-5.317495e-02
-8.029481e-02
-1.087137e-01
-1.388967e-01
-1.707947e-01
-2.041949e-01
-2.386182e-01
-2.736413e-01
-3.088021e-01
-3.437739e-01
-3.783194e-01
-4.122514e-01
-4.454434e-01
-4.777134e-01
-5.088488e-01
-5.385655e-01
-5.665078e-01
-5.921583e-01
-6.147088e-01
-6.330559e-01
-6.459217e-01
-6.523419e-01
-6.509577e-01
-6.413307e-01
-6.212651e-01
-5.830380e-01
-5.352843e-01
-4.880457e-01
-4.673109e-01
-4.937541e-01
-5.624298e-01
0.000000e+00
-1.916879e-03
-3.886840e-03
-5.834913e-03
-7.679933e-03
-9.331078e-03
-1.069778e-02
-1.168422e-02
-1.220337e-02
-1.216850e-02
-1.150715e-02
-1.013919e-02
-7.969033e-03
-4.878092e-03
-7.313257e-04
4.650738e-03
1.150847e-02
2.007379e-02
3.051954e-02
4.301524e-02
5.795927e-02
7.613259e-02
9.855013e-02
1.266396e-01
1.600586e-01
2.019008e-01
2.587864e-01
3.276174e-01
3.965723e-01
4.442808e-01
4.575297e-01
4.252032e-01
3.504310e-01
0.000000e+00
2.291642e-02
4.562155e-02
6.897370e-02
9.385698e-02
1.209125e-01
1.502762e-01
1.818799e-01
2.154031e-01
2.505145e-01
2.868690e-01
3.242504e-01
3.626256e-01
4.020851e-01
4.428439e-01
4.851650e-01
5.293440e-01
5.755645e-01
6.238310e-01
6.740181e-01
7.259129e-01
7.797897e-01
8.363761e-01
8.966219e-01
9.660127e-01
1.047521e+00
1.134026e+00
1.220538e+00
1.291889e+00
1.333880e+00
1.333648e+00
1.293051e+00
1.231602e+00
0.000000e+00
4.716039e-02
9.378866e-02
1.417409e-01
1.934759e-01
2.496711e-01
3.106564e-01
3.757377e-01
4.442761e-01
5.152168e-01
5.877577e-01
6.613109e-01
7.355819e-01
8.107667e-01
8.871966e-01
9.655433e-01
1.046156e+00
1.129037e+00
1.214198e+00
1.301634e+00
1.391397e+00
1.483308e+00
1.577511e+00
1.678390e+00
1.784427e+00
1.893915e+00
2.000344e+00
2.088991e+00
2.152994e+00
2.182217e+00
2.177340e+00
2.147576e+00
2.103516e+00
0.000000e+00
7.033375e-02
1.380205e-01
2.095478e-01
2.879109e-01
3.747262e-01
4.684760e-01
5.693255e-01
6.743118e-01
7.829011e-01
8.931802e-01
1.004324e+00
1.116471e+00
1.228842e+00
1.342338e+00
1.457102e+00
1.573632e+00
1.691672e+00
1.811349e+00
1.934057e+00
2.061811e+00
2.196787e+00
2.336868e+00
2.476064e+00
2.610442e+00
2.736121e+00
2.847799e+00
2.937520e+00
2.995968e+00
3.025905e+00
3.029820e+00
3.012052e+00
2.984187e+00
0.000000e+00
8.918248e-02
1.767909e-01
2.655897e-01
3.750399e-01
4.916149e-01
6.231018e-01
7.609138e-01
9.054321e-01
1.052637e+00
1.200641e+00
1.351292e+00
1.501591e+00
1.654947e+00
1.809240e+00
1.966409e+00
2.125956e+00
2.287396e+00
2.451475e+00
2.616473e+00
2.784563e+00
2.953601e+00
3.120930e+00
3.284100e+00
3.436740e+00
3.575073e+00
3.693913e+00
3.787442e+00
3.855260e+00
3.895158e+00
3.908673e+00
3.902263e+00
3.887606e+00
0.000000e+00
1.001505e-01
1.840082e-01
3.302134e-01
4.530300e-01
6.107415e-01
7.891429e-01
9.629785e-01
1.155678e+00
1.338589e+00
1.526925e+00
1.712959e+00
1.900761e+00
2.092071e+00
2.287122e+00
2.486591e+00
2.688731e+00
2.894423e+00
3.103607e+00
3.314540e+00
3.523261e+00
3.726011e+00
3.919416e+00
4.103698e+00
4.278652e+00
4.435724e+00
4.570477e+00
4.677244e+00
4.754307e+00
4.802711e+00
4.825301e+00
4.828267e+00
4.823467e+00
0.000000e+00
1.078877e-01
2.474229e-01
4.394788e-01
6.525658e-01
8.568666e-01
1.083551e+00
1.309580e+00
1.537306e+00
1.770715e+00
1.996161e+00
2.225335e+00
2.450276e+00
2.677574e+00
2.907027e+00
3.137634e+00
3.369224e+00
3.600234e+00
3.832903e+00
4.066198e+00
4.298934e+00
4.526650e+00
4.748261e+00
4.966513e+00
5.173412e+00
5.356261e+00
5.505850e+00
5.621281e+00
5.704288e+00
5.757651e+00
5.785698e+00
5.794894e+00
5.796020e+00
0.000000e+00
2.334856e-01
4.735908e-01
7.379347e-01
1.004016e+00
1.257181e+00
1.525776e+00
1.785794e+00
2.047774e+00
2.312041e+00
2.571834e+00
2.835685e+00
3.095642e+00
3.357142e+00
3.617607e+00
3.877112e+00
4.136997e+00
4.394713e+00
4.652009e+00
4.907701e+00
5.161883e+00
5.415427e+00
5.669375e+00
5.923741e+00
6.159519e+00
6.358451e+00
6.516257e+00
6.633862e+00
6.714797e+00
6.764501e+00
6.789940e+00
6.799171e+00
6.801437e+00
0.000000e+00
4.645691e-01
7.781976e-01
1.118580e+00
1.425310e+00
1.722450e+00
2.032993e+00
2.322450e+00
2.622221e+00
2.914120e+00
3.209956e+00
3.506984e+00
3.802754e+00
4.099581e+00
4.392340e+00
4.683638e+00
4.974099e+00
5.264021e+00
5.552081e+00
5.840196e+00
6.125779e+00
6.414583e+00
6.705969e+00
6.993734e+00
7.251724e+00
7.461504e+00
7.620423e+00
7.730301e+00
7.795916e+00
7.825430e+00
7.830629e+00
7.825980e+00
7.823402e+00
0.000000e+00
-2.759619e-01
-5.787201e-01
-9.638451e-01
-1.385381e+00
-1.845817e+00
-2.346910e+00
-2.879523e+00
-3.449439e+00
-4.052600e+00
-4.691181e+00
-5.366603e+00
-6.077845e+00
-6.827540e+00
-7.614397e+00
-8.439796e+00
-9.303731e+00
-1.020612e+01
-1.114776e+01
-1.212829e+01
-1.314834e+01
-1.420849e+01
-1.530858e+01
-1.644857e+01
-1.762787e+01
-1.884754e+01
-2.011257e+01
-2.143019e+01
-2.280961e+01
-2.427024e+01
-2.582847e+01
-2.763915e+01
-3.018479e+01
0.000000e+00
-1.772398e-01
-4.984285e-01
-8.762455e-01
-1.303708e+00
-1.761372e+00
-2.262618e+00
-2.796558e+00
-3.365045e+00
-3.969331e+00
-4.606945e+00
-5.282826e+00
-5.993905e+00
-6.743433e+00
-7.530564e+00
-8.355689e+00
-9.219787e+00
-1.012213e+01
-1.106373e+01
-1.204433e+01
-1.306426e+01
-1.412432e+01
-1.522464e+01
-1.636461e+01
-1.754388e+01
-1.876331e+01
-2.002653e+01
-2.134333e+01
-2.272228e+01
-2.417544e+01
-2.575375e+01
-2.755019e+01
-2.980791e+01
0.000000e+00
-1.543771e-01
-4.402995e-01
-8.189819e-01
-1.236911e+00
-1.692471e+00
-2.192167e+00
-2.724461e+00
-3.293310e+00
-3.897003e+00
-4.535130e+00
-5.210843e+00
-5.922542e+00
-6.671906e+00
-7.459430e+00
-8.284641e+00
-9.148749e+00
-1.005133e+01
-1.099277e+01
-1.197355e+01
-1.299339e+01
-1.405296e+01
-1.515296e+01
-1.629243e+01
-1.747273e+01
-1.869406e+01
-1.995966e+01
-2.128062e+01
-2.266415e+01
-2.413791e+01
-2.575693e+01
-2.744492e+01
-2.919847e+01
0.000000e+00
-1.947098e-01
-4.388281e-01
-8.112373e-01
-1.200045e+00
-1.646850e+00
-2.143790e+00
-2.667210e+00
-3.238405e+00
-3.838864e+00
-4.477778e+00
-5.153570e+00
-5.865078e+00
-6.615085e+00
-7.402380e+00
-8.227883e+00
-9.091940e+00
-9.994528e+00
-1.093596e+01
-1.191676e+01
-1.293672e+01
-1.399600e+01
-1.509596e+01
-1.623623e+01
-1.741886e+01
-1.864509e+01
-1.991678e+01
-2.124441e+01
-2.263750e+01
-2.412865e+01
-2.574125e+01
-2.729321e+01
-2.869690e+01
0.000000e+00
-2.121529e-01
-4.733770e-01
-8.091559e-01
-1.197159e+00
-1.627192e+00
-2.114810e+00
-2.633028e+00
-3.199231e+00
-3.799263e+00
-4.436323e+00
-5.113146e+00
-5.823994e+00
-6.574836e+00
-7.362138e+00
-8.187724e+00
-9.052047e+00
-9.954498e+00
-1.089621e+01
-1.187718e+01
-1.289761e+01
-1.395784e+01
-1.505891e+01
-1.620153e+01
-1.738731e+01
-1.861778e+01
-1.989593e+01
-2.122803e+01
-2.262312e+01
-2.410657e+01
-2.564546e+01
-2.709086e+01
-2.835349e+01
0.000000e+00
-2.195752e-01
-4.890172e-01
-8.146547e-01
-1.192820e+00
-1.619746e+00
-2.094543e+00
-2.612241e+00
-3.171843e+00
-3.771062e+00
-4.408047e+00
-5.083463e+00
-5.796066e+00
-6.546396e+00
-7.334607e+00
-8.160668e+00
-9.025257e+00
-9.928505e+00
-1.087091e+01
-1.185296e+01
-1.287494e+01
-1.393738e+01
-1.504103e+01
-1.618675e+01
-1.737553e+01
-1.860848e+01
-1.988871e+01
-2.122047e+01
-2.260301e+01
-2.404813e+01
-2.549232e+01
-2.685810e+01
-2.805395e+01
0.000000e+00
-2.233387e-01
-4.950619e-01
-8.178239e-01
-1.191369e+00
-1.614019e+00
-2.083817e+00
-2.598312e+00
-3.155422e+00
-3.753151e+00
-4.390147e+00
-5.065519e+00
-5.778808e+00
-6.529852e+00
-7.318708e+00
-8.145635e+00
-9.010978e+00
-9.915202e+00
-1.085883e+01
-1.184244e+01
-1.286657e+01
-1.393165e+01
-1.503819e+01
-1.618678e+01
-1.737792e+01
-1.861144e+01
-1.988801e+01
-2.121416e+01
-2.256726e+01
-2.396102e+01
-2.533554e+01
-2.663165e+01
-2.776629e+01
0.000000e+00
-2.247431e-01
-4.973325e-01
-8.192628e-01
-1.190842e+00
-1.611217e+00
-2.078817e+00
-2.591678e+00
-3.147763e+00
-3.745205e+00
-4.382467e+00
-5.058498e+00
-5.772638e+00
-6.524603e+00
-7.314396e+00
-8.142262e+00
-9.008604e+00
-9.913912e+00
-1.085880e+01
-1.184401e+01
-1.287021e+01
-1.393777e+01
-1.504674e+01
-1.619736e+01
-1.738948e+01
-1.862220e+01
-1.989007e+01
-2.119775e+01
-2.251765e+01
-2.385833e+01
-2.517951e+01
-2.641466e+01
-2.749184e+01
0.000000e+00
-2.250143e-01
-4.978616e-01
-8.197447e-01
-1.191043e+00
-1.611132e+00
-2.078617e+00
-2.591657e+00
-3.148259e+00
-3.746515e+00
-4.384822e+00
-5.062003e+00
-5.777328e+00
-6.530428e+00
-7.321280e+00
-8.150186e+00
-9.017585e+00
-9.923941e+00
-1.086985e+01
-1.185618e+01
-1.288386e+01
-1.395324e+01
-1.506402e+01
-1.621508e+01
-1.740702e+01
-1.863412e+01
-1.988716e+01
-2.116778e+01
-2.246191e+01
-2.375191e+01
-2.501428e+01
-2.617777e+01
-2.717636e+01
0.000000e+00
-2.245071e-01
-4.971931e-01
-8.195781e-01
-1.192012e+00
-1.613675e+00
-2.083006e+00
-2.598033e+00
-3.156649e+00
-3.756855e+00
-4.396949e+00
-5.075755e+00
-5.792551e+00
-6.546957e+00
-7.338939e+00
-8.168929e+00
-9.037448e+00
-9.944781e+00
-1.089134e+01
-1.187798e+01
-1.290602e+01
-1.397620e+01
-1.508730e+01
-1.623868e+01
-1.742354e+01
-1.863930e+01
-1.987622e+01
-2.113369e+01
-2.239920e+01
-2.365044e+01
-2.485256e+01
-2.595441e+01
-2.691451e+01
0.000000e+00
-2.228880e-01
-4.948034e-01
-8.184761e-01
-1.193766e+00
-1.619020e+00
-2.092294e+00
-2.611114e+00
-3.173222e+00
-3.776369e+00
-4.418837e+00
-5.099521e+00
-5.817893e+00
-6.573635e+00
-7.366757e+00
-8.197931e+00
-9.067685e+00
-9.975959e+00
-1.092285e+01
-1.190902e+01
-1.293583e+01
-1.400540e+01
-1.511447e+01
-1.626049e+01
-1.743505e+01
-1.863732e+01
-1.986269e+01
-2.109940e+01
-2.233794e+01
-2.355068e+01
-2.470778e+01
-2.577582e+01
-2.672272e+01
0.000000e+00
-2.189119e-01
-4.886495e-01
-8.156563e-01
-1.196513e+00
-1.627569e+00
-2.107481e+00
-2.631834e+00
-3.198790e+00
-3.805820e+00
-4.450734e+00
-5.133454e+00
-5.853104e+00
-6.609956e+00
-7.404188e+00
-8.236621e+00
-9.107613e+00
-1.001634e+01
-1.096314e+01
-1.194789e+01
-1.297266e+01
-1.403827e+01
-1.514111e+01
-1.627807e+01
-1.744378e+01
-1.863594e+01
-1.985023e+01
-2.107274e+01
-2.228468e+01
-2.346757e+01
-2.459546e+01
-2.564636e+01
-2.659600e+01
0.000000e+00
-2.111433e-01
-4.727810e-01
-8.104615e-01
-1.202170e+00
-1.638465e+00
-2.132258e+00
-2.660469e+00
-3.235346e+00
-3.845836e+00
-4.492709e+00
-5.178215e+00
-5.897929e+00
-6.656646e+00
-7.451713e+00
-8.285714e+00
-9.157371e+00
-1.006518e+01
-1.101062e+01
-1.199248e+01
-1.301385e+01
-1.407302e+01
-1.516723e+01
-1.629581e+01
-1.745547e+01
-1.864259e+01
-1.984939e+01
-2.105753e+01
-2.224908e+01
-2.340761e+01
-2.451649e+01
-2.556001e+01
-2.652368e+01
0.000000e+00
-1.929947e-01
-4.375274e-01
-8.123446e-01
-1.206459e+00
-1.660665e+00
-2.167307e+00
-2.701397e+00
-3.284358e+00
-3.895682e+00
-4.545682e+00
-5.231255e+00
-5.952816e+00
-6.712762e+00
-7.509831e+00
-8.344975e+00
-9.216199e+00
-1.012290e+01
-1.106566e+01
-1.204437e+01
-1.306013e+01
-1.411164e+01
-1.519748e+01
-1.632023e+01
-1.747975e+01
-1.866520e+01
-1.986449e+01
-2.105764e+01
-2.223114e+01
-2.337137e+01
-2.446667e+01
-2.550849e+01
-2.649231e+01
0.000000e+00
-1.519535e-01
-4.376859e-01
-8.186866e-01
-1.242790e+00
-1.707106e+00
-2.218250e+00
-2.762698e+00
-3.343978e+00
-3.958898e+00
-4.607653e+00
-5.293547e+00
-6.016015e+00
-6.776820e+00
-7.575530e+00
-8.410470e+00
-9.281267e+00
-1.018712e+01
-1.112838e+01
-1.210453e+01
-1.311525e+01
-1.416011e+01
-1.524059e+01
-1.636300e+01
-1.752290e+01
-1.870460e+01
-1.989191e+01
-2.107115e+01
-2.222954e+01
-2.335565e+01
-2.444090e+01
-2.548265e+01
-2.648691e+01
0.000000e+00
-1.747283e-01
-4.953697e-01
-8.755194e-01
-1.309191e+00
-1.776244e+00
-2.289275e+00
-2.836122e+00
-3.416965e+00
-4.032818e+00
-4.680689e+00
-5.366801e+00
-6.088975e+00
-6.850355e+00
-7.649124e+00
-8.483641e+00
-9.353736e+00
-1.025873e+01
-1.119910e+01
-1.217372e+01
-1.318201e+01
-1.422430e+01
-1.530459e+01
-1.642686e+01
-1.758195e+01
-1.875344e+01
-1.992811e+01
-2.109428e+01
-2.224012e+01
-2.335512e+01
-2.443254e+01
-2.547334e+01
-2.649161e+01
0.000000e+00
-2.738629e-01
-5.762353e-01
-9.636432e-01
-1.391283e+00
-1.860984e+00
-2.373648e+00
-2.918906e+00
-3.501114e+00
-4.115729e+00
-4.764673e+00
-5.450372e+00
-6.172572e+00
-6.933787e+00
-7.731757e+00
-8.566020e+00
-9.435548e+00
-1.034008e+01
-1.127971e+01
-1.225372e+01
-1.326136e+01
-1.430423e+01