TITLE = "Solution"
VARIABLES = x, y, u, v, psiu, psiv, t, stress
ZONE T="structure" N=561 E=512 F=FEBLOCK ET=QUADRILATERAL VARLOCATION=([7,8]=cellcentered)
0.000000e+00
6.250000e+00
1.250000e+01
1.875000e+01
2.500000e+01
3.125000e+01
3.750000e+01
4.375000e+01
5.000000e+01
5.625000e+01
6.250000e+01
6.875000e+01
7.500000e+01
8.125000e+01
8.750000e+01
9.375000e+01
1.000000e+02
1.062500e+02
1.125000e+02
1.187500e+02
1.250000e+02
1.312500e+02
1.375000e+02
1.437500e+02
1.500000e+02
1.562500e+02
1.625000e+02
1.687500e+02
1.750000e+02
1.812500e+02
1.875000e+02
1.937500e+02
2.000000e+02
0.000000e+00
6.250000e+00
1.250000e+01
1.875000e+01
2.500000e+01
3.125000e+01
3.750000e+01
4.375000e+01
5.000000e+01
5.625000e+01
6.250000e+01
6.875000e+01
7.500000e+01
8.125000e+01
8.750000e+01
9.375000e+01
1.000000e+02
1.062500e+02
1.125000e+02
1.187500e+02
1.250000e+02
1.312500e+02
1.375000e+02
1.437500e+02
1.500000e+02
1.562500e+02
1.625000e+02
1.687500e+02
1.750000e+02
1.812500e+02
1.875000e+02
1.937500e+02
2.000000e+02
0.000000e+00
6.250000e+00
1.250000e+01
1.875000e+01
2.500000e+01
3.125000e+01
3.750000e+01
4.375000e+01
5.000000e+01
5.625000e+01
6.250000e+01
6.875000e+01
7.500000e+01
8.125000e+01
8.750000e+01
9.375000e+01
1.000000e+02
1.062500e+02
1.125000e+02
1.187500e+02
1.250000e+02
1.312500e+02
1.375000e+02
1.437500e+02
1.500000e+02
1.562500e+02
1.625000e+02
1.687500e+02
1.750000e+02
1.812500e+02
1.875000e+02
1.937500e+02
2.000000e+02
0.000000e+00
6.250000e+00
1.250000e+01
1.875000e+01
2.500000e+01
3.125000e+01
3.750000e+01
4.375000e+01
5.000000e+01
5.625000e+01
6.250000e+01
6.875000e+01
7.500000e+01
8.125000e+01
8.750000e+01
9.375000e+01
1.000000e+02
1.062500e+02
1.125000e+02
1.187500e+02
1.250000e+02
1.312500e+02
1.375000e+02
1.437500e+02
1.500000e+02
1.562500e+02
1.625000e+02
1.687500e+02
1.750000e+02
1.812500e+02
1.875000e+02
1.937500e+02
2.000000e+02
0.000000e+00
6.250000e+00
1.250000e+01
1.875000e+01
2.500000e+01
3.125000e+01
3.750000e+01
4.375000e+01
5.000000e+01
5.625000e+01
6.250000e+01
6.875000e+01
7.500000e+01
8.125000e+01
8.750000e+01
9.375000e+01
1.000000e+02
1.062500e+02
1.125000e+02
1.187500e+02
1.250000e+02
1.312500e+02
1.375000e+02
1.437500e+02
1.500000e+02
1.562500e+02
1.625000e+02
1.687500e+02
1.750000e+02
1.812500e+02
1.875000e+02
1.937500e+02
2.000000e+02
0.000000e+00
6.250000e+00
1.250000e+01
1.875000e+01
2.500000e+01
3.125000e+01
3.750000e+01
4.375000e+01
5.000000e+01
5.625000e+01
6.250000e+01
6.875000e+01
7.500000e+01
8.125000e+01
8.750000e+01
9.375000e+01
1.000000e+02
1.062500e+02
1.125000e+02
1.187500e+02
1.250000e+02
1.312500e+02
1.375000e+02
1.437500e+02
1.500000e+02
1.562500e+02
1.625000e+02
1.687500e+02
1.750000e+02
1.812500e+02
1.875000e+02
1.937500e+02
2.000000e+02
0.000000e+00
6.250000e+00
1.250000e+01
1.875000e+01
2.500000e+01
3.125000e+01
3.750000e+01
4.375000e+01
5.000000e+01
5.625000e+01
6.250000e+01
6.875000e+01
7.500000e+01
8.125000e+01
8.750000e+01
9.375000e+01
1.000000e+02
1.062500e+02
1.125000e+02
1.187500e+02
1.250000e+02
1.312500e+02
1.375000e+02
1.437500e+02
1.500000e+02
1.562500e+02
1.625000e+02
1.687500e+02
1.750000e+02
1.812500e+02
1.875000e+02
1.937500e+02
2.000000e+02
0.000000e+00
6.250000e+00
1.250000e+01
1.875000e+01
2.500000e+01
3.125000e+01
3.750000e+01
4.375000e+01
5.000000e+01
5.625000e+01
6.250000e+01
6.875000e+01
7.500000e+01
8.125000e+01
8.750000e+01
9.375000e+01
1.000000e+02
1.062500e+02
1.125000e+02
1.187500e+02
1.250000e+02
1.312500e+02
1.375000e+02
1.437500e+02
1.500000e+02
1.562500e+02
1.625000e+02
1.687500e+02
1.750000e+02
1.812500e+02
1.875000e+02
1.937500e+02
2.000000e+02
0.000000e+00
6.250000e+00
1.250000e+01
1.875000e+01
2.500000e+01
3.125000e+01
3.750000e+01
4.375000e+01
5.000000e+01
5.625000e+01
6.250000e+01
6.875000e+01
7.500000e+01
8.125000e+01
8.750000e+01
9.375000e+01
1.000000e+02
1.062500e+02
1.125000e+02
1.187500e+02
1.250000e+02
1.312500e+02
1.375000e+02
1.437500e+02
1.500000e+02
1.562500e+02
1.625000e+02
1.687500e+02
1.750000e+02
1.812500e+02
1.875000e+02
1.937500e+02
2.000000e+02
0.000000e+00
6.250000e+00
1.250000e+01
1.875000e+01
2.500000e+01
3.125000e+01
3.750000e+01
4.375000e+01
5.000000e+01
5.625000e+01
6.250000e+01
6.875000e+01
7.500000e+01
8.125000e+01
8.750000e+01
9.375000e+01
1.000000e+02
1.062500e+02
1.125000e+02
1.187500e+02
1.250000e+02
1.312500e+02
1.375000e+02
1.437500e+02
1.500000e+02
1.562500e+02
1.625000e+02
1.687500e+02
1.750000e+02
1.812500e+02
1.875000e+02
1.937500e+02
2.000000e+02
0.000000e+00
6.250000e+00
1.250000e+01
1.875000e+01
2.500000e+01
3.125000e+01
3.750000e+01
4.375000e+01
5.000000e+01
5.625000e+01
6.250000e+01
6.875000e+01
7.500000e+01
8.125000e+01
8.750000e+01
9.375000e+01
1.000000e+02
1.062500e+02
1.125000e+02
1.187500e+02
1.250000e+02
1.312500e+02
1.375000e+02
1.437500e+02
1.500000e+02
1.562500e+02
1.625000e+02
1.687500e+02
1.750000e+02
1.812500e+02
1.875000e+02
1.937500e+02
2.000000e+02
0.000000e+00
6.250000e+00
1.250000e+01
1.875000e+01
2.500000e+01
3.125000e+01
3.750000e+01
4.375000e+01
5.000000e+01
5.625000e+01
6.250000e+01
6.875000e+01
7.500000e+01
8.125000e+01
8.750000e+01
9.375000e+01
1.000000e+02
1.062500e+02
1.125000e+02
1.187500e+02
1.250000e+02
1.312500e+02
1.375000e+02
1.437500e+02
1.500000e+02
1.562500e+02
1.625000e+02
1.687500e+02
1.750000e+02
1.812500e+02
1.875000e+02
1.937500e+02
2.000000e+02
0.000000e+00
6.250000e+00
1.250000e+01
1.875000e+01
2.500000e+01
3.125000e+01
3.750000e+01
4.375000e+01
5.000000e+01
5.625000e+01
6.250000e+01
6.875000e+01
7.500000e+01
8.125000e+01
8.750000e+01
9.375000e+01
1.000000e+02
1.062500e+02
1.125000e+02
1.187500e+02
1.250000e+02
1.312500e+02
1.375000e+02
1.437500e+02
1.500000e+02
1.562500e+02
1.625000e+02
1.687500e+02
1.750000e+02
1.812500e+02
1.875000e+02
1.937500e+02
2.000000e+02
0.000000e+00
6.250000e+00
1.250000e+01
1.875000e+01
2.500000e+01
3.125000e+01
3.750000e+01
4.375000e+01
5.000000e+01
5.625000e+01
6.250000e+01
6.875000e+01
7.500000e+01
8.125000e+01
8.750000e+01
9.375000e+01
1.000000e+02
1.062500e+02
1.125000e+02
1.187500e+02
1.250000e+02
1.312500e+02
1.375000e+02
1.437500e+02
1.500000e+02
1.562500e+02
1.625000e+02
1.687500e+02
1.750000e+02
1.812500e+02
1.875000e+02
1.937500e+02
2.000000e+02
0.000000e+00
6.250000e+00
1.250000e+01
1.875000e+01
2.500000e+01
3.125000e+01
3.750000e+01
4.375000e+01
5.000000e+01
5.625000e+01
6.250000e+01
6.875000e+01
7.500000e+01
8.125000e+01
8.750000e+01
9.375000e+01
1.000000e+02
1.062500e+02
1.125000e+02
1.187500e+02
1.250000e+02
1.312500e+02
1.375000e+02
1.437500e+02
1.500000e+02
1.562500e+02
1.625000e+02
1.687500e+02
1.750000e+02
1.812500e+02
1.875000e+02
1.937500e+02
2.000000e+02
0.000000e+00
6.250000e+00
1.250000e+01
1.875000e+01
2.500000e+01
3.125000e+01
3.750000e+01
4.375000e+01
5.000000e+01
5.625000e+01
6.250000e+01
6.875000e+01
7.500000e+01
8.125000e+01
8.750000e+01
9.375000e+01
1.000000e+02
1.062500e+02
1.125000e+02
1.187500e+02
1.250000e+02
1.312500e+02
1.375000e+02
1.437500e+02
1.500000e+02
1.562500e+02
1.625000e+02
1.687500e+02
1.750000e+02
1.812500e+02
1.875000e+02
1.937500e+02
2.000000e+02
0.000000e+00
6.250000e+00
1.250000e+01
1.875000e+01
2.500000e+01
3.125000e+01
3.750000e+01
4.375000e+01
5.000000e+01
5.625000e+01
6.250000e+01
6.875000e+01
7.500000e+01
8.125000e+01
8.750000e+01
9.375000e+01
1.000000e+02
1.062500e+02
1.125000e+02
1.187500e+02
1.250000e+02
1.312500e+02
1.375000e+02
1.437500e+02
1.500000e+02
1.562500e+02
1.625000e+02
1.687500e+02
1.750000e+02
1.812500e+02
1.875000e+02
1.937500e+02
2.000000e+02
0.000000e+00
0.000000e+00
0.000000e+00
0.000000e+00
0.000000e+00
0.000000e+00
0.000000e+00
0.000000e+00
0.000000e+00
0.000000e+00
0.000000e+00
0.000000e+00
0.000000e+00
0.000000e+00
0.000000e+00
0.000000e+00
0.000000e+00
0.000000e+00
0.000000e+00
0.000000e+00
0.000000e+00
0.000000e+00
0.000000e+00
0.000000e+00
0.000000e+00
0.000000e+00
0.000000e+00
0.000000e+00
0.000000e+00
0.000000e+00
0.000000e+00
0.000000e+00
0.000000e+00
6.250000e+00
6.250000e+00
6.250000e+00
6.250000e+00
6.250000e+00
6.250000e+00
6.250000e+00
6.250000e+00
6.250000e+00
6.250000e+00
6.250000e+00
6.250000e+00
6.250000e+00
6.250000e+00
6.250000e+00
6.250000e+00
6.250000e+00
6.250000e+00
6.250000e+00
6.250000e+00
6.250000e+00
6.250000e+00
6.250000e+00
6.250000e+00
6.250000e+00
6.250000e+00
6.250000e+00
6.250000e+00
6.250000e+00
6.250000e+00
6.250000e+00
6.250000e+00
6.250000e+00
1.250000e+01
1.250000e+01
1.250000e+01
1.250000e+01
1.250000e+01
1.250000e+01
1.250000e+01
1.250000e+01
1.250000e+01
1.250000e+01
1.250000e+01
1.250000e+01
1.250000e+01
1.250000e+01
1.250000e+01
1.250000e+01
1.250000e+01
1.250000e+01
1.250000e+01
1.250000e+01
1.250000e+01
1.250000e+01
1.250000e+01
1.250000e+01
1.250000e+01
1.250000e+01
1.250000e+01
1.250000e+01
1.250000e+01
1.250000e+01
1.250000e+01
1.250000e+01
1.250000e+01
1.875000e+01
1.875000e+01
1.875000e+01
1.875000e+01
1.875000e+01
1.875000e+01
1.875000e+01
1.875000e+01
1.875000e+01
1.875000e+01
1.875000e+01
1.875000e+01
1.875000e+01
1.875000e+01
1.875000e+01
1.875000e+01
1.875000e+01
1.875000e+01
1.875000e+01
1.875000e+01
1.875000e+01
1.875000e+01
1.875000e+01
1.875000e+01
1.875000e+01
1.875000e+01
1.875000e+01
1.875000e+01
1.875000e+01
1.875000e+01
1.875000e+01
1.875000e+01
1.875000e+01
2.500000e+01
2.500000e+01
2.500000e+01
2.500000e+01
2.500000e+01
2.500000e+01
2.500000e+01
2.500000e+01
2.500000e+01
2.500000e+01
2.500000e+01
2.500000e+01
2.500000e+01
2.500000e+01
2.500000e+01
2.500000e+01
2.500000e+01
2.500000e+01
2.500000e+01
2.500000e+01
2.500000e+01
2.500000e+01
2.500000e+01
2.500000e+01
2.500000e+01
2.500000e+01
2.500000e+01
2.500000e+01
2.500000e+01
2.500000e+01
2.500000e+01
2.500000e+01
2.500000e+01
3.125000e+01
3.125000e+01
3.125000e+01
3.125000e+01
3.125000e+01
3.125000e+01
3.125000e+01
3.125000e+01
3.125000e+01
3.125000e+01
3.125000e+01
3.125000e+01
3.125000e+01
3.125000e+01
3.125000e+01
3.125000e+01
3.125000e+01
3.125000e+01
3.125000e+01
3.125000e+01
3.125000e+01
3.125000e+01
3.125000e+01
3.125000e+01
3.125000e+01
3.125000e+01
3.125000e+01
3.125000e+01
3.125000e+01
3.125000e+01
3.125000e+01
3.125000e+01
3.125000e+01
3.750000e+01
3.750000e+01
3.750000e+01
3.750000e+01
3.750000e+01
3.750000e+01
3.750000e+01
3.750000e+01
3.750000e+01
3.750000e+01
3.750000e+01
3.750000e+01
3.750000e+01
3.750000e+01
3.750000e+01
3.750000e+01
3.750000e+01
3.750000e+01
3.750000e+01
3.750000e+01
3.750000e+01
3.750000e+01
3.750000e+01
3.750000e+01
3.750000e+01
3.750000e+01
3.750000e+01
3.750000e+01
3.750000e+01
3.750000e+01
3.750000e+01
3.750000e+01
3.750000e+01
4.375000e+01
4.375000e+01
4.375000e+01
4.375000e+01
4.375000e+01
4.375000e+01
4.375000e+01
4.375000e+01
4.375000e+01
4.375000e+01
4.375000e+01
4.375000e+01
4.375000e+01
4.375000e+01
4.375000e+01
4.375000e+01
4.375000e+01
4.375000e+01
4.375000e+01
4.375000e+01
4.375000e+01
4.375000e+01
4.375000e+01
4.375000e+01
4.375000e+01
4.375000e+01
4.375000e+01
4.375000e+01
4.375000e+01
4.375000e+01
4.375000e+01
4.375000e+01
4.375000e+01
5.000000e+01
5.000000e+01
5.000000e+01
5.000000e+01
5.000000e+01
5.000000e+01
5.000000e+01
5.000000e+01
5.000000e+01
5.000000e+01
5.000000e+01
5.000000e+01
5.000000e+01
5.000000e+01
5.000000e+01
5.000000e+01
5.000000e+01
5.000000e+01
5.000000e+01
5.000000e+01
5.000000e+01
5.000000e+01
5.000000e+01
5.000000e+01
5.000000e+01
5.000000e+01
5.000000e+01
5.000000e+01
5.000000e+01
5.000000e+01
5.000000e+01
5.000000e+01
5.000000e+01
5.625000e+01
5.625000e+01
5.625000e+01
5.625000e+01
5.625000e+01
5.625000e+01
5.625000e+01
5.625000e+01
5.625000e+01
5.625000e+01
5.625000e+01
5.625000e+01
5.625000e+01
5.625000e+01
5.625000e+01
5.625000e+01
5.625000e+01
5.625000e+01
5.625000e+01
5.625000e+01
5.625000e+01
5.625000e+01
5.625000e+01
5.625000e+01
5.625000e+01
5.625000e+01
5.625000e+01
5.625000e+01
5.625000e+01
5.625000e+01
5.625000e+01
5.625000e+01
5.625000e+01
6.250000e+01
6.250000e+01
6.250000e+01
6.250000e+01
6.250000e+01
6.250000e+01
6.250000e+01
6.250000e+01
6.250000e+01
6.250000e+01
6.250000e+01
6.250000e+01
6.250000e+01
6.250000e+01
6.250000e+01
6.250000e+01
6.250000e+01
6.250000e+01
6.250000e+01
6.250000e+01
6.250000e+01
6.250000e+01
6.250000e+01
6.250000e+01
6.250000e+01
6.250000e+01
6.250000e+01
6.250000e+01
6.250000e+01
6.250000e+01
6.250000e+01
6.250000e+01
6.250000e+01
6.875000e+01
6.875000e+01
6.875000e+01
6.875000e+01
6.875000e+01
6.875000e+01
6.875000e+01
6.875000e+01
6.875000e+01
6.875000e+01
6.875000e+01
6.875000e+01
6.875000e+01
6.875000e+01
6.875000e+01
6.875000e+01
6.875000e+01
6.875000e+01
6.875000e+01
6.875000e+01
6.875000e+01
6.875000e+01
6.875000e+01
6.875000e+01
6.875000e+01
6.875000e+01
6.875000e+01
6.875000e+01
6.875000e+01
6.875000e+01
6.875000e+01
6.875000e+01
6.875000e+01
7.500000e+01
7.500000e+01
7.500000e+01
7.500000e+01
7.500000e+01
7.500000e+01
7.500000e+01
7.500000e+01
7.500000e+01
7.500000e+01
7.500000e+01
7.500000e+01
7.500000e+01
7.500000e+01
7.500000e+01
7.500000e+01
7.500000e+01
7.500000e+01
7.500000e+01
7.500000e+01
7.500000e+01
7.500000e+01
7.500000e+01
7.500000e+01
7.500000e+01
7.500000e+01
7.500000e+01
7.500000e+01
7.500000e+01
7.500000e+01
7.500000e+01
7.500000e+01
7.500000e+01
8.125000e+01
8.125000e+01
8.125000e+01
8.125000e+01
8.125000e+01
8.125000e+01
8.125000e+01
8.125000e+01
8.125000e+01
8.125000e+01
8.125000e+01
8.125000e+01
8.125000e+01
8.125000e+01
8.125000e+01
8.125000e+01
8.125000e+01
8.125000e+01
8.125000e+01
8.125000e+01
8.125000e+01
8.125000e+01
8.125000e+01
8.125000e+01
8.125000e+01
8.125000e+01
8.125000e+01
8.125000e+01
8.125000e+01
8.125000e+01
8.125000e+01
8.125000e+01
8.125000e+01
8.750000e+01
8.750000e+01
8.750000e+01
8.750000e+01
8.750000e+01
8.750000e+01
8.750000e+01
8.750000e+01
8.750000e+01
8.750000e+01
8.750000e+01
8.750000e+01
8.750000e+01
8.750000e+01
8.750000e+01
8.750000e+01
8.750000e+01
8.750000e+01
8.750000e+01
8.750000e+01
8.750000e+01
8.750000e+01
8.750000e+01
8.750000e+01
8.750000e+01
8.750000e+01
8.750000e+01
8.750000e+01
8.750000e+01
8.750000e+01
8.750000e+01
8.750000e+01
8.750000e+01
9.375000e+01
9.375000e+01
9.375000e+01
9.375000e+01
9.375000e+01
9.375000e+01
9.375000e+01
9.375000e+01
9.375000e+01
9.375000e+01
9.375000e+01
9.375000e+01
9.375000e+01
9.375000e+01
9.375000e+01
9.375000e+01
9.375000e+01
9.375000e+01
9.375000e+01
9.375000e+01
9.375000e+01
9.375000e+01
9.375000e+01
9.375000e+01
9.375000e+01
9.375000e+01
9.375000e+01
9.375000e+01
9.375000e+01
9.375000e+01
9.375000e+01
9.375000e+01
9.375000e+01
1.000000e+02
1.000000e+02
1.000000e+02
1.000000e+02
1.000000e+02
1.000000e+02
1.000000e+02
1.000000e+02
1.000000e+02
1.000000e+02
1.000000e+02
1.000000e+02
1.000000e+02
1.000000e+02
1.000000e+02
1.000000e+02
1.000000e+02
1.000000e+02
1.000000e+02
1.000000e+02
1.000000e+02
1.000000e+02
1.000000e+02
1.000000e+02
1.000000e+02
1.000000e+02
1.000000e+02
1.000000e+02
1.000000e+02
1.000000e+02
1.000000e+02
1.000000e+02
1.000000e+02
0.000000e+00
-4.667940e-01
-7.777729e-01
-1.115833e+00
-1.418726e+00
-1.712826e+00
-2.022380e+00
-2.312202e+00
-2.613481e+00
-2.907637e+00
-3.206237e+00
-3.504744e+00
-3.803178e+00
-4.104410e+00
-4.403696e+00
-4.705632e+00
-5.006597e+00
-5.308260e+00
-5.610370e+00
-5.911638e+00
-6.214129e+00
-6.515569e+00
-6.817219e+00
-7.115724e+00
-7.413321e+00
-7.716498e+00
-8.020118e+00
-8.346953e+00
-8.670015e+00
-9.028753e+00
-9.509810e+00
-9.926168e+00
-1.013141e+01
0.000000e+00
-2.329384e-01
-4.717312e-01
-7.365499e-01
-1.002878e+00
-1.256162e+00
-1.525558e+00
-1.785954e+00
-2.048421e+00
-2.313410e+00
-2.573537e+00
-2.838597e+00
-3.099287e+00
-3.362490e+00
-3.624555e+00
-3.886145e+00
-4.148648e+00
-4.409855e+00
-4.671749e+00
-4.933079e+00
-5.194296e+00
-5.455254e+00
-5.716564e+00
-5.976682e+00
-6.238504e+00
-6.498770e+00
-6.759075e+00
-7.022391e+00
-7.277825e+00
-7.537329e+00
-7.786568e+00
-7.885945e+00
-7.991688e+00
0.000000e+00
-1.065172e-01
-2.460636e-01
-4.420693e-01
-6.586265e-01
-8.656723e-01
-1.092919e+00
-1.317850e+00
-1.543379e+00
-1.773938e+00
-1.996546e+00
-2.224783e+00
-2.447598e+00
-2.671922e+00
-2.895725e+00
-3.118145e+00
-3.341914e+00
-3.564502e+00
-3.787944e+00
-4.011635e+00
-4.235176e+00
-4.458964e+00
-4.683794e+00
-4.910160e+00
-5.137402e+00
-5.358480e+00
-5.570416e+00
-5.768297e+00
-5.947276e+00
-6.096258e+00
-6.180237e+00
-6.184979e+00
-6.277824e+00
0.000000e+00
-1.025006e-01
-1.876013e-01
-3.383095e-01
-4.615299e-01
-6.186283e-01
-7.949994e-01
-9.649960e-01
-1.154072e+00
-1.333150e+00
-1.518441e+00
-1.702123e+00
-1.886086e+00
-2.070914e+00
-2.255734e+00
-2.442115e+00
-2.628841e+00
-2.817446e+00
-3.007181e+00
-3.198270e+00
-3.390683e+00
-3.582834e+00
-3.775791e+00
-3.966691e+00
-4.150407e+00
-4.322610e+00
-4.473816e+00
-4.605492e+00
-4.706421e+00
-4.768256e+00
-4.782337e+00
-4.798754e+00
-4.879578e+00
0.000000e+00
-9.216425e-02
-1.828613e-01
-2.738058e-01
-3.853876e-01
-5.016366e-01
-6.332020e-01
-7.675503e-01
-9.106696e-01
-1.053466e+00
-1.198263e+00
-1.345090e+00
-1.489933e+00
-1.637699e+00
-1.784268e+00
-1.932281e+00
-2.080883e+00
-2.229848e+00
-2.379481e+00
-2.528732e+00
-2.677245e+00
-2.823469e+00
-2.966110e+00
-3.102271e+00
-3.229155e+00
-3.342500e+00
-3.438847e+00
-3.512601e+00
-3.560481e+00
-3.583239e+00
-3.584689e+00
-3.614343e+00
-3.686775e+00
0.000000e+00
-7.368715e-02
-1.446350e-01
-2.191861e-01
-3.000900e-01
-3.887783e-01
-4.832254e-01
-5.841984e-01
-6.878539e-01
-7.950479e-01
-9.029003e-01
-1.011406e+00
-1.120538e+00
-1.229217e+00
-1.338422e+00
-1.447349e+00
-1.556297e+00
-1.664922e+00
-1.772733e+00
-1.879146e+00
-1.983097e+00
-2.083263e+00
-2.177757e+00
-2.264630e+00
-2.341404e+00
-2.405975e+00
-2.456313e+00
-2.490441e+00
-2.509934e+00
-2.507967e+00
-2.503455e+00
-2.530920e+00
-2.597732e+00
0.000000e+00
-5.079673e-02
-1.011025e-01
-1.525886e-01
-2.075697e-01
-2.664526e-01
-3.294798e-01
-3.957004e-01
-4.646295e-01
-5.350886e-01
-6.064774e-01
-6.781324e-01
-7.496993e-01
-8.210773e-01
-8.920262e-01
-9.625470e-01
-1.032370e+00
-1.101227e+00
-1.168646e+00
-1.233928e+00
-1.296098e+00
-1.353820e+00
-1.405632e+00
-1.449873e+00
-1.484961e+00
-1.508814e+00
-1.521252e+00
-1.523315e+00
-1.505973e+00
-1.477204e+00
-1.466726e+00
-1.492204e+00
-1.558036e+00
0.000000e+00
-2.675022e-02
-5.337243e-02
-8.057496e-02
-1.090646e-01
-1.393061e-01
-1.712311e-01
-2.046392e-01
-2.390586e-01
-2.740937e-01
-3.092768e-01
-3.442883e-01
-3.788830e-01
-4.128782e-01
-4.461685e-01
-4.785857e-01
-5.099182e-01
-5.398558e-01
-5.680401e-01
-5.939724e-01
-6.168684e-01
-6.356555e-01
-6.490653e-01
-6.562059e-01
-6.556704e-01
-6.472989e-01
-6.287904e-01
-5.906091e-01
-5.422194e-01
-4.936258e-01
-4.709111e-01
-4.962025e-01
-5.643072e-01
0.000000e+00
-1.916803e-03
-3.883581e-03
-5.820958e-03
-7.638465e-03
-9.235191e-03
-1.052412e-02
-1.142905e-02
-1.189609e-02
-1.186406e-02
-1.127622e-02
-1.005121e-02
-8.076694e-03
-5.208278e-03
-1.308805e-03
3.778756e-03
1.031888e-02
1.859548e-02
2.876931e-02
4.093902e-02
5.544242e-02
7.303877e-02
9.463466e-02
1.217856e-01
1.540155e-01
1.948202e-01
2.519718e-01
3.217720e-01
3.924504e-01
4.415019e-01
4.557209e-01
4.235393e-01
3.473213e-01
0.000000e+00
2.303668e-02
4.585908e-02
6.933266e-02
9.436020e-02
1.216029e-01
1.511752e-01
1.829646e-01
2.165922e-01
2.516831e-01
2.878633e-01
3.249109e-01
3.628239e-01
4.017758e-01
4.420378e-01
4.839080e-01
5.277404e-01
5.737207e-01
6.217832e-01
6.716613e-01
7.230263e-01
7.761515e-01
8.318363e-01
8.908336e-01
9.593951e-01
1.041593e+00
1.129294e+00
1.217431e+00
1.289967e+00
1.332858e+00
1.332044e+00
1.289877e+00
1.227884e+00
0.000000e+00
4.741102e-02
9.429261e-02
1.424764e-01
1.945059e-01
2.510527e-01
3.124085e-01
3.777769e-01
4.464490e-01
5.172898e-01
5.894586e-01
6.623258e-01
7.356420e-01
8.097142e-01
8.850949e-01
9.627716e-01
1.043219e+00
1.126179e+00
1.211251e+00
1.298464e+00
1.387757e+00
1.478826e+00
1.571966e+00
1.672840e+00
1.779641e+00
1.890121e+00
1.998110e+00
2.087473e+00
2.151695e+00
2.180099e+00
2.174209e+00
2.144250e+00
2.100149e+00
0.000000e+00
7.071372e-02
1.387469e-01
2.106835e-01
2.895072e-01
3.770062e-01
4.713199e-01
5.725225e-01
6.776326e-01
7.860375e-01
8.957156e-01
1.006054e+00
1.117056e+00
1.228082e+00
1.340041e+00
1.453266e+00
1.568864e+00
1.686247e+00
1.805404e+00
1.927605e+00
2.055115e+00
2.190871e+00
2.331981e+00
2.472262e+00
2.608117e+00
2.735004e+00
2.847046e+00
2.936958e+00
2.994491e+00
3.023787e+00
3.027512e+00
3.009640e+00
2.981864e+00
0.000000e+00
8.953123e-02
1.775389e-01
2.665955e-01
3.776500e-01
4.950807e-01
6.273617e-01
7.657950e-01
9.102195e-01
1.056749e+00
1.204034e+00
1.353273e+00
1.502354e+00
1.654707e+00
1.807459e+00
1.963513e+00
2.121929e+00
2.282826e+00
2.446845e+00
2.612241e+00
2.780545e+00
2.950502e+00
3.118917e+00
3.282621e+00
3.435982e+00
3.575346e+00
3.694260e+00
3.787096e+00
3.854666e+00
3.894401e+00
3.907735e+00
3.901286e+00
3.886683e+00
0.000000e+00
9.967739e-02
1.822456e-01
3.303498e-01
4.539817e-01
6.134608e-01
7.940051e-01
9.674909e-01
1.161227e+00
1.342554e+00
1.529723e+00
1.713530e+00
1.899159e+00
2.089454e+00
2.283894e+00
2.483433e+00
2.685608e+00
2.891225e+00
3.100742e+00
3.312623e+00
3.522062e+00
3.725412e+00
3.919499e+00
4.103651e+00
4.278741e+00
4.436302e+00
4.571419e+00
4.678273e+00
4.755187e+00
4.803435e+00
4.825919e+00
4.828841e+00
4.824068e+00
0.000000e+00
1.051563e-01
2.415559e-01
4.322220e-01
6.463567e-01
8.519084e-01
1.080338e+00
1.308502e+00
1.537302e+00
1.771757e+00
1.997272e+00
2.225723e+00
2.449438e+00
2.676103e+00
2.905348e+00
3.136237e+00
3.368093e+00
3.598880e+00
3.831172e+00
4.064183e+00
4.297436e+00
4.525346e+00
4.746900e+00
4.966157e+00
5.174572e+00
5.358630e+00
5.508431e+00
5.623785e+00
5.706669e+00
5.759889e+00
5.787831e+00
5.796985e+00
5.798112e+00
0.000000e+00
2.335721e-01
4.729187e-01
7.373445e-01
1.003212e+00
1.256097e+00
1.524797e+00
1.784972e+00
2.046959e+00
2.311355e+00
2.571222e+00
2.835149e+00
3.095019e+00
3.356608e+00
3.616873e+00
3.876514e+00
4.136335e+00
4.393970e+00
4.651353e+00
4.906451e+00
5.160983e+00
5.414556e+00
5.668441e+00
5.924554e+00
6.162811e+00
6.362553e+00
6.520416e+00
6.637860e+00
6.718602e+00
6.768153e+00
6.793492e+00
6.802679e+00
6.804937e+00
0.000000e+00
4.677581e-01
7.825352e-01
1.124878e+00
1.431208e+00
1.726529e+00
2.036231e+00
2.323670e+00
2.622462e+00
2.913299e+00
3.208741e+00
3.506105e+00
3.802532e+00
4.099847e+00
4.392378e+00
4.683417e+00
4.973301e+00
5.263099e+00
5.551895e+00
5.840170e+00
6.126146e+00
6.415336e+00
6.706651e+00
6.996584e+00
7.256880e+00
7.467185e+00
7.625976e+00
7.735587e+00
7.800972e+00
7.830341e+00
7.835477e+00
7.830820e+00
7.828246e+00
0.000000e+00
-2.772374e-01
-5.829246e-01
-9.724815e-01
-1.398288e+00
-1.862551e+00
-2.367253e+00
-2.903035e+00
-3.475695e+00
-4.081041e+00
-4.721430e+00
-5.398316e+00
-6.110885e+00
-6.861959e+00
-7.650131e+00
-8.477095e+00
-9.342633e+00
-1.024690e+01
-1.119054e+01
-1.217315e+01
-1.319539e+01
-1.425770e+01
-1.536030e+01
-1.650288e+01
-1.768440e+01
-1.890593e+01
-2.017213e+01
-2.149117e+01
-2.287163e+01
-2.433300e+01
-2.589199e+01
-2.770148e+01
-3.024415e+01
0.000000e+00
-1.783647e-01
-5.025758e-01
-8.848085e-01
-1.316828e+00
-1.778147e+00
-2.282927e+00
-2.820191e+00
-3.391337e+00
-3.997841e+00
-4.637179e+00
-5.314606e+00
-6.026889e+00
-6.777858e+00
-7.566288e+00
-8.392921e+00
-9.258697e+00
-1.016282e+01
-1.110650e+01
-1.208916e+01
-1.311129e+01
-1.417349e+01
-1.527627e+01
-1.641902e+01
-1.760048e+01
-1.882170e+01
-2.008625e+01
-2.140411e+01
-2.278466e+01
-2.423825e+01
-2.581702e+01
-2.761273e+01
-2.986780e+01
0.000000e+00
-1.561866e-01
-4.442324e-01
-8.278681e-01
-1.250026e+00
-1.709202e+00
-2.212382e+00
-2.747827e+00
-3.319576e+00
-3.925357e+00
-4.565314e+00
-5.242642e+00
-5.955590e+00
-6.706403e+00
-7.495279e+00
-8.322004e+00
-9.187760e+00
-1.009213e+01
-1.103559e+01
-1.201837e+01
-1.304048e+01
-1.410212e+01
-1.520437e+01
-1.634648e+01
-1.752885e+01
-1.875225e+01
-2.001902e+01
-2.134133e+01
-2.272627e+01
-2.420034e+01
-2.582068e+01
-2.750724e+01
-2.925865e+01
0.000000e+00
-1.984624e-01
-4.435333e-01
-8.217562e-01
-1.213717e+00
-1.663502e+00
-2.164467e+00
-2.689809e+00
-3.264995e+00
-3.866865e+00
-4.508108e+00
-5.185555e+00
-5.898304e+00
-6.650008e+00
-7.438437e+00
-8.265699e+00
-9.131165e+00
-1.003557e+01
-1.097893e+01
-1.196152e+01
-1.298389e+01
-1.404507e+01
-1.514700e+01
-1.628962e+01
-1.747412e+01
-1.870275e+01
-1.997563e+01
-2.130486e+01
-2.269915e+01
-2.419117e+01
-2.580498e+01
-2.735585e+01
-2.875758e+01
0.000000e+00
-2.155314e-01
-4.796102e-01
-8.189572e-01
-1.211280e+00
-1.643847e+00
-2.135437e+00
-2.655581e+00
-3.225648e+00
-3.827330e+00
-4.466806e+00
-5.145538e+00
-5.857609e+00
-6.610398e+00
-7.398692e+00
-8.226102e+00
-9.091725e+00
-9.995858e+00
-1.093941e+01
-1.192203e+01
-1.294472e+01
-1.400670e+01
-1.510967e+01
-1.625420e+01
-1.744195e+01
-1.867440e+01
-1.995424e+01
-2.128783e+01
-2.268421e+01
-2.416964e+01
-2.570750e+01
-2.715393e+01
-2.841777e+01
0.000000e+00
-2.228085e-01
-4.955114e-01
-8.246235e-01
-1.206436e+00
-1.636709e+00
-2.114711e+00
-2.635307e+00
-3.197831e+00
-3.799510e+00
-4.438675e+00
-5.116079e+00
-5.830288e+00
-6.582197e+00
-7.371805e+00
-8.199293e+00
-9.065330e+00
-9.970103e+00
-1.091419e+01
-1.189800e+01
-1.292189e+01
-1.398618e+01
-1.509160e+01
-1.623907e+01
-1.742957e+01
-1.866423e+01
-1.994619e+01
-2.127965e+01
-2.266381e+01
-2.411029e+01
-2.555350e+01
-2.692014e+01
-2.811899e+01
0.000000e+00
-2.265457e-01
-5.016004e-01
-8.278272e-01
-1.204889e+00
-1.630960e+00
-2.104007e+00
-2.621555e+00
-3.181512e+00
-3.781803e+00
-4.421069e+00
-5.098421e+00
-5.813437e+00
-6.566004e+00
-7.356252e+00
-8.184520e+00
-9.051238e+00
-9.956945e+00
-1.090219e+01
-1.188754e+01
-1.291349e+01
-1.398040e+01
-1.508867e+01
-1.623882e+01
-1.743144e+01
-1.866650e+01
-1.994456e+01
-2.127328e+01
-2.262716e+01
-2.402218e+01
-2.539729e+01
-2.669488e+01
-2.783221e+01
0.000000e+00
-2.279412e-01
-5.038841e-01
-8.292858e-01
-1.204385e+00
-1.628229e+00
-2.099160e+00
-2.615150e+00
-3.174121e+00
-3.774166e+00
-4.413731e+00
-5.091769e+00
-5.807640e+00
-6.561097e+00
-7.352202e+00
-8.181307e+00
-9.048945e+00
-9.955691e+00
-1.090218e+01
-1.188912e+01
-1.291712e+01
-1.398652e+01
-1.509714e+01
-1.624914e+01
-1.744243e+01
-1.867690e+01
-1.994639e+01
-2.125618e+01
-2.257666e+01
-2.391853e+01
-2.524272e+01
-2.648081e+01
-2.756129e+01
0.000000e+00
-2.282158e-01
-5.044359e-01
-8.298249e-01
-1.204699e+00
-1.628339e+00
-2.099245e+00
-2.615486e+00
-3.175016e+00
-3.775894e+00
-4.416507e+00
-5.095683e+00
-5.812716e+00
-6.567253e+00
-7.359296e+00
-8.189288e+00
-9.057898e+00
-9.965688e+00
-1.091321e+01
-1.190127e+01
-1.293078e+01
-1.400199e+01
-1.511434e+01
-1.626651e+01
-1.745971e+01
-1.868863e+01
-1.994326e+01
-2.122498e+01
-2.252050e+01
-2.381195e+01
-2.507709e+01
-2.624223e+01
-2.723949e+01
0.000000e+00
-2.277287e-01
-5.038158e-01
-8.297631e-01
-1.205874e+00
-1.631214e+00
-2.104080e+00
-2.622380e+00
-3.183945e+00
-3.786758e+00
-4.429117e+00
-5.109850e+00
-5.828299e+00
-6.584095e+00
-7.377116e+00
-8.207976e+00
-9.077653e+00
-9.986501e+00
-1.093473e+01
-1.192308e+01
-1.295295e+01
-1.402503e+01
-1.513731e+01
-1.629003e+01
-1.747595e+01
-1.869331e+01
-1.993158e+01
-2.119020e+01
-2.245694e+01
-2.371051e+01
-2.491393e+01
-2.601562e+01
-2.697547e+01
0.000000e+00
-2.261603e-01
-5.014964e-01
-8.288035e-01
-1.207935e+00
-1.637054e+00
-2.114008e+00
-2.636166e+00
-3.201208e+00
-3.806890e+00
-4.451511e+00
-5.133955e+00
-5.853859e+00
-6.610951e+00
-7.404962e+00
-8.236852e+00
-9.107845e+00
-1.001782e+01
-1.096642e+01
-1.195432e+01
-1.298275e+01
-1.405422e+01
-1.516429e+01
-1.631124e+01
-1.748696e+01
-1.869045e+01
-1.991734e+01
-2.115511e+01
-2.239509e+01
-2.360947e+01
-2.476750e+01
-2.583595e+01
-2.678341e+01
0.000000e+00
-2.222810e-01
-4.954166e-01
-8.261249e-01
-1.211135e+00
-1.646343e+00
-2.130070e+00
-2.657793e+00
-3.227665e+00
-3.837007e+00
-4.483910e+00
-5.168115e+00
-5.888972e+00
-6.647080e+00
-7.442066e+00
-8.275343e+00
-9.147947e+00
-1.005847e+01
-1.100703e+01
-1.199358e+01
-1.301949e+01
-1.408673e+01
-1.519054e+01
-1.632805e+01
-1.749490e+01
-1.868852e+01
-1.990402e+01
-2.112825e+01
-2.234134e+01
-2.352588e+01
-2.465472e+01
-2.570648e+01
-2.665712e+01
0.000000e+00
-2.147182e-01
-4.794280e-01
-8.210477e-01
-1.217756e+00
-1.658093e+00
-2.156190e+00
-2.687443e+00
-3.265400e+00
-3.877518e+00
-4.526369e+00
-5.212876e+00
-5.933321e+00
-6.693367e+00
-7.488981e+00
-8.324506e+00
-9.197884e+00
-1.010753e+01
-1.105459e+01
-1.203810e+01
-1.306042e+01
-1.412090e+01
-1.521623e+01
-1.634514e+01
-1.750570e+01
-1.869479e+01
-1.990324e+01
-2.111300e+01
-2.230598e+01
-2.346574e+01
-2.457572e+01
-2.562028e+01
-2.658523e+01
0.000000e+00
-1.968367e-01
-4.426468e-01
-8.240722e-01
-1.222670e+00
-1.681466e+00
-2.193105e+00
-2.729364e+00
-3.315619e+00
-3.927728e+00
-4.579275e+00
-5.265379e+00
-5.987557e+00
-6.748861e+00
-7.547045e+00
-8.384010e+00
-9.256916e+00
-1.016523e+01
-1.110945e+01
-1.208954e+01
-1.310636e+01
-1.415901e+01
-1.524578e+01
-1.636875e+01
-1.752967e+01
-1.871759e+01
-1.991891e+01
-2.111335e+01
-2.228812e+01
-2.342951e+01
-2.452593e+01
-2.556892e+01
-2.655410e+01
0.000000e+00
-1.534632e-01
-4.416863e-01
-8.287047e-01
-1.259079e+00
-1.728827e+00
-2.244614e+00
-2.792089e+00
-3.375519e+00
-3.991387e+00
-4.640728e+00
-5.327006e+00
-6.050211e+00
-6.812523e+00
-7.612879e+00
-8.449580e+00
-9.321966e+00
-1.022910e+01
-1.117180e+01
-1.214915e+01
-1.316111e+01
-1.420702e+01
-1.528797e+01
-1.641131e+01
-1.757336e+01
-1.875764e+01
-1.994655e+01
-2.112702e+01
-2.228655e+01
-2.341379e+01
-2.450019e+01
-2.554317e+01
-2.654880e+01
0.000000e+00
-1.753840e-01
-4.994428e-01
-8.853274e-01
-1.325721e+00
-1.798406e+00
-2.316015e+00
-2.866098e+00
-3.448697e+00
-4.065535e+00
-4.713627e+00
-5.400004e+00
-6.122980e+00
-6.885945e+00
-7.686485e+00
-8.522781e+00
-9.394297e+00
-1.030040e+01
-1.124209e+01
-1.221798e+01
-1.322768e+01
-1.427096e+01
-1.535198e+01
-1.647576e+01
-1.763325e+01
-1.880671e+01
-1.998280e+01
-2.115017e+01
-2.229713e+01
-2.341325e+01
-2.449184e+01
-2.553390e+01
-2.655350e+01
0.000000e+00
-2.748164e-01
-5.805570e-01
-9.736343e-01
-1.407566e+00
-1.882948e+00
-2.400250e+00
-2.948652e+00
-3.532760e+00
-4.148329e+00
-4.797615e+00
-5.483629e+00
-6.206680e+00
-6.969370e+00
-7.769068e+00
-8.605077e+00
-9.475956e+00
-1.038170e+01
-1.132258e+01
-1.229792e+01
-1.330703e+01
-1.435088e+01