TITLE = "Solution"
VARIABLES = x, y, u, v, psiu, psiv, t, stress
ZONE T="structure" N=153 E=128 F=FEBLOCK ET=QUADRILATERAL VARLOCATION=([7,8]=cellcentered)
0.000000e+00
1.250000e+01
2.500000e+01
3.750000e+01
5.000000e+01
6.250000e+01
7.500000e+01
8.750000e+01
1.000000e+02
1.125000e+02
1.250000e+02
1.375000e+02
1.500000e+02
1.625000e+02
1.750000e+02
1.875000e+02
2.000000e+02
0.000000e+00
1.250000e+01
2.500000e+01
3.750000e+01
5.000000e+01
6.250000e+01
7.500000e+01
8.750000e+01
1.000000e+02
1.125000e+02
1.250000e+02
1.375000e+02
1.500000e+02
1.625000e+02
1.750000e+02
1.875000e+02
2.000000e+02
0.000000e+00
1.250000e+01
2.500000e+01
3.750000e+01
5.000000e+01
6.250000e+01
7.500000e+01
8.750000e+01
1.000000e+02
1.125000e+02
1.250000e+02
1.375000e+02
1.500000e+02
1.625000e+02
1.750000e+02
1.875000e+02
2.000000e+02
0.000000e+00
1.250000e+01
2.500000e+01
3.750000e+01
5.000000e+01
6.250000e+01
7.500000e+01
8.750000e+01
1.000000e+02
1.125000e+02
1.250000e+02
1.375000e+02
1.500000e+02
1.625000e+02
1.750000e+02
1.875000e+02
2.000000e+02
0.000000e+00
1.250000e+01
2.500000e+01
3.750000e+01
5.000000e+01
6.250000e+01
7.500000e+01
8.750000e+01
1.000000e+02
1.125000e+02
1.250000e+02
1.375000e+02
1.500000e+02
1.625000e+02
1.750000e+02
1.875000e+02
2.000000e+02
0.000000e+00
1.250000e+01
2.500000e+01
3.750000e+01
5.000000e+01
6.250000e+01
7.500000e+01
8.750000e+01
1.000000e+02
1.125000e+02
1.250000e+02
1.375000e+02
1.500000e+02
1.625000e+02
1.750000e+02
1.875000e+02
2.000000e+02
0.000000e+00
1.250000e+01
2.500000e+01
3.750000e+01
5.000000e+01
6.250000e+01
7.500000e+01
8.750000e+01
1.000000e+02
1.125000e+02
1.250000e+02
1.375000e+02
1.500000e+02
1.625000e+02
1.750000e+02
1.875000e+02
2.000000e+02
0.000000e+00
1.250000e+01
2.500000e+01
3.750000e+01
5.000000e+01
6.250000e+01
7.500000e+01
8.750000e+01
1.000000e+02
1.125000e+02
1.250000e+02
1.375000e+02
1.500000e+02
1.625000e+02
1.750000e+02
1.875000e+02
2.000000e+02
0.000000e+00
1.250000e+01
2.500000e+01
3.750000e+01
5.000000e+01
6.250000e+01
7.500000e+01
8.750000e+01
1.000000e+02
1.125000e+02
1.250000e+02
1.375000e+02
1.500000e+02
1.625000e+02
1.750000e+02
1.875000e+02
2.000000e+02
0.000000e+00
0.000000e+00
0.000000e+00
0.000000e+00
0.000000e+00
0.000000e+00
0.000000e+00
0.000000e+00
0.000000e+00
0.000000e+00
0.000000e+00
0.000000e+00
0.000000e+00
0.000000e+00
0.000000e+00
0.000000e+00
0.000000e+00
1.250000e+01
1.250000e+01
1.250000e+01
1.250000e+01
1.250000e+01
1.250000e+01
1.250000e+01
1.250000e+01
1.250000e+01
1.250000e+01
1.250000e+01
1.250000e+01
1.250000e+01
1.250000e+01
1.250000e+01
1.250000e+01
1.250000e+01
2.500000e+01
2.500000e+01
2.500000e+01
2.500000e+01
2.500000e+01
2.500000e+01
2.500000e+01
2.500000e+01
2.500000e+01
2.500000e+01
2.500000e+01
2.500000e+01
2.500000e+01
2.500000e+01
2.500000e+01
2.500000e+01
2.500000e+01
3.750000e+01
3.750000e+01
3.750000e+01
3.750000e+01
3.750000e+01
3.750000e+01
3.750000e+01
3.750000e+01
3.750000e+01
3.750000e+01
3.750000e+01
3.750000e+01
3.750000e+01
3.750000e+01
3.750000e+01
3.750000e+01
3.750000e+01
5.000000e+01
5.000000e+01
5.000000e+01
5.000000e+01
5.000000e+01
5.000000e+01
5.000000e+01
5.000000e+01
5.000000e+01
5.000000e+01
5.000000e+01
5.000000e+01
5.000000e+01
5.000000e+01
5.000000e+01
5.000000e+01
5.000000e+01
6.250000e+01
6.250000e+01
6.250000e+01
6.250000e+01
6.250000e+01
6.250000e+01
6.250000e+01
6.250000e+01
6.250000e+01
6.250000e+01
6.250000e+01
6.250000e+01
6.250000e+01
6.250000e+01
6.250000e+01
6.250000e+01
6.250000e+01
7.500000e+01
7.500000e+01
7.500000e+01
7.500000e+01
7.500000e+01
7.500000e+01
7.500000e+01
7.500000e+01
7.500000e+01
7.500000e+01
7.500000e+01
7.500000e+01
7.500000e+01
7.500000e+01
7.500000e+01
7.500000e+01
7.500000e+01
8.750000e+01
8.750000e+01
8.750000e+01
8.750000e+01
8.750000e+01
8.750000e+01
8.750000e+01
8.750000e+01
8.750000e+01
8.750000e+01
8.750000e+01
8.750000e+01
8.750000e+01
8.750000e+01
8.750000e+01
8.750000e+01
8.750000e+01
1.000000e+02
1.000000e+02
1.000000e+02
1.000000e+02
1.000000e+02
1.000000e+02
1.000000e+02
1.000000e+02
1.000000e+02
1.000000e+02
1.000000e+02
1.000000e+02
1.000000e+02
1.000000e+02
1.000000e+02
1.000000e+02
1.000000e+02
0.000000e+00
-9.960352e-01
-1.678950e+00
-2.431183e+00
-3.117341e+00
-3.750336e+00
-4.458295e+00
-5.087154e+00
-5.763213e+00
-6.405564e+00
-7.055479e+00
-7.723541e+00
-8.376396e+00
-9.146363e+00
-1.007743e+01
-1.083395e+01
-1.128406e+01
0.000000e+00
-4.460361e-01
-9.064254e-01
-1.419027e+00
-1.930689e+00
-2.410640e+00
-2.924787e+00
-3.423005e+00
-3.918937e+00
-4.421435e+00
-4.913880e+00
-5.416892e+00
-5.901745e+00
-6.421359e+00
-6.897716e+00
-7.024057e+00
-7.202949e+00
0.000000e+00
-1.460872e-01
-3.488021e-01
-6.395399e-01
-9.775320e-01
-1.302537e+00
-1.655640e+00
-2.012852e+00
-2.356330e+00
-2.718586e+00
-3.057373e+00
-3.391723e+00
-3.687421e+00
-3.927368e+00
-4.036631e+00
-4.034659e+00
-4.183076e+00
0.000000e+00
-7.898961e-02
-1.621089e-01
-3.096565e-01
-4.549133e-01
-6.281472e-01
-8.139777e-01
-9.790511e-01
-1.166913e+00
-1.328817e+00
-1.489885e+00
-1.628952e+00
-1.722367e+00
-1.730544e+00
-1.656886e+00
-1.635928e+00
-1.752965e+00
0.000000e+00
-3.323194e-03
-7.233170e-03
-1.130376e-02
-1.569841e-02
-1.914122e-02
-2.004081e-02
-1.730918e-02
-8.560781e-03
8.294675e-03
3.271034e-02
7.768547e-02
1.602085e-01
2.751224e-01
3.949301e-01
4.358204e-01
3.376385e-01
0.000000e+00
7.317664e-02
1.503888e-01
2.905706e-01
4.290595e-01
5.954887e-01
7.744471e-01
9.425330e-01
1.148641e+00
1.343792e+00
1.561807e+00
1.782094e+00
2.008786e+00
2.216312e+00
2.352107e+00
2.385015e+00
2.319334e+00
0.000000e+00
1.437196e-01
3.434974e-01
6.305042e-01
9.655717e-01
1.290817e+00
1.643042e+00
1.999661e+00
2.358946e+00
2.764583e+00
3.143575e+00
3.510534e+00
3.843349e+00
4.119093e+00
4.295877e+00
4.350528e+00
4.327862e+00
0.000000e+00
4.467583e-01
9.071554e-01
1.419533e+00
1.930495e+00
2.408992e+00
2.920058e+00
3.415643e+00
3.903231e+00
4.396687e+00
4.874974e+00
5.350097e+00
5.777881e+00
6.125555e+00
6.342639e+00
6.438461e+00
6.456173e+00
0.000000e+00
9.983441e-01
1.684034e+00
2.440033e+00
3.128155e+00
3.761639e+00
4.468643e+00
5.095621e+00
5.747595e+00
6.331580e+00
6.905108e+00
7.505994e+00
8.035834e+00
8.447899e+00
8.649137e+00
8.701874e+00
8.702405e+00
0.000000e+00
-6.187973e-01
-1.361850e+00
-2.363303e+00
-3.537498e+00
-4.881005e+00
-6.412546e+00
-8.098678e+00
-9.959160e+00
-1.198267e+01
-1.416743e+01
-1.651831e+01
-1.903196e+01
-2.176307e+01
-2.472729e+01
-2.808671e+01
-3.310236e+01
0.000000e+00
-4.159703e-01
-1.193530e+00
-2.177063e+00
-3.368462e+00
-4.706898e+00
-6.234978e+00
-7.930109e+00
-9.782835e+00
-1.181512e+01
-1.399513e+01
-1.635060e+01
-1.885909e+01
-2.157041e+01
-2.458709e+01
-2.800296e+01
-3.205277e+01
0.000000e+00
-3.904326e-01
-1.091696e+00
-2.073655e+00
-3.249375e+00
-4.580927e+00
-6.115300e+00
-7.800246e+00
-9.663862e+00
-1.169327e+01
-1.388447e+01
-1.625131e+01
-1.877002e+01
-2.150815e+01
-2.457711e+01
-2.785109e+01
-3.088359e+01
0.000000e+00
-4.494196e-01
-1.088074e+00
-2.047519e+00
-3.186983e+00
-4.511290e+00
-6.053748e+00
-7.723503e+00
-9.606276e+00
-1.163456e+01
-1.384754e+01
-1.623425e+01
-1.877851e+01
-2.151849e+01
-2.450744e+01
-2.754142e+01
-3.016729e+01
0.000000e+00
-4.563338e-01
-1.110486e+00
-2.031959e+00
-3.172591e+00
-4.501695e+00
-6.032142e+00
-7.721846e+00
-9.595987e+00
-1.164669e+01
-1.387413e+01
-1.626803e+01
-1.881978e+01
-2.151965e+01
-2.435682e+01
-2.717485e+01
-2.956277e+01
0.000000e+00
-4.481607e-01
-1.087753e+00
-2.049612e+00
-3.193977e+00
-4.528492e+00
-6.081369e+00
-7.760240e+00
-9.658079e+00
-1.171229e+01
-1.394452e+01
-1.632019e+01
-1.885068e+01
-2.150968e+01
-2.422189e+01
-2.685507e+01
-2.912438e+01
0.000000e+00
-3.887555e-01
-1.091712e+00
-2.078488e+00
-3.263210e+00
-4.610249e+00
-6.161090e+00
-7.869541e+00
-9.763037e+00
-1.182864e+01
-1.403091e+01
-1.638748e+01
-1.888987e+01
-2.150958e+01
-2.413950e+01
-2.664785e+01
-2.889062e+01
0.000000e+00
-4.144183e-01
-1.193644e+00
-2.182766e+00
-3.384726e+00
-4.738151e+00
-6.286062e+00
-8.010611e+00
-9.901593e+00
-1.196594e+01
-1.414594e+01
-1.648603e+01
-1.896701e+01
-2.155112e+01
-2.411901e+01
-2.656030e+01
-2.883014e+01
0.000000e+00
-6.178317e-01
-1.362589e+00
-2.369707e+00
-3.554161e+00
-4.912110e+00
-6.464331e+00
-8.178881e+00
-1.007434e+01
-1.212135e+01
-1.430110e+01
-1.663421e+01
-1.909063e+01
-2.163313e+01
-2.414363e+01
-2.654542e+01
-2.882900e+01


0.000000e+00
1.541819e-05
2.508098e-05
3.749397e-05
5.358495e-05
6.716517e-05
8.318825e-05
9.713132e-05
1.118704e-04
1.257453e-04
1.408896e-04
1.552390e-04
1.717914e-04
1.876173e-04
1.977096e-04
2.034560e-04
2.103894e-04
0.000000e+00
1.145704e-05
1.973572e-05
2.841657e-05
4.099142e-05
5.172430e-05
6.185350e-05
7.296493e-05
8.316875e-05
9.458313e-05
1.052346e-04
1.156322e-04
1.264886e-04
1.358476e-04
1.374607e-04
1.412151e-04
1.470377e-04
0.000000e+00
9.527801e-06
1.502534e-05
2.021446e-05
2.884480e-05
3.555219e-05
4.128407e-05
4.863242e-05
5.460332e-05
6.197680e-05
6.837608e-05
7.405325e-05
7.876431e-05
8.095004e-05
8.020186e-05
8.257758e-05
8.680885e-05
0.000000e+00
5.186973e-06
6.843862e-06
9.624578e-06
1.306368e-05
1.351966e-05
1.587639e-05
1.725431e-05
2.089681e-05
2.431860e-05
2.806823e-05
2.913247e-05
2.854870e-05
2.712342e-05
2.684124e-05
2.987348e-05
3.554439e-05
0.000000e+00
-1.759803e-07
-4.385377e-07
-8.629356e-07
-1.737208e-06
-2.900922e-06
-5.020990e-06
-7.269790e-06
-7.842733e-06
-7.895083e-06
-8.831751e-06
-1.196481e-05
-1.470742e-05
-1.614621e-05
-1.582100e-05
-1.366956e-05
-9.679760e-06
0.000000e+00
-5.452405e-06
-7.435941e-06
-1.076020e-05
-1.467021e-05
-1.609143e-05
-2.056853e-05
-2.432852e-05
-3.029854e-05
-3.345093e-05
-3.760127e-05
-4.224220e-05
-4.738547e-05
-4.918222e-05
-4.972305e-05
-5.018750e-05
-4.844978e-05
0.000000e+00
-9.526534e-06
-1.509195e-05
-2.038328e-05
-2.894522e-05
-3.534576e-05
-4.075300e-05
-4.874618e-05
-5.592541e-05
-6.365093e-05
-6.892044e-05
-7.392495e-05
-7.806899e-05
-8.166914e-05
-8.356834e-05
-8.548476e-05
-8.623045e-05
0.000000e+00
-1.138547e-05
-1.964719e-05
-2.831061e-05
-4.076448e-05
-5.166784e-05
-6.160701e-05
-7.279766e-05
-8.319073e-05
-9.458576e-05
-1.052164e-04
-1.136115e-04
-1.183977e-04
-1.234385e-04
-1.270585e-04
-1.283669e-04
-1.284621e-04
0.000000e+00
-1.542847e-05
-2.502117e-05
-3.733995e-05
-5.337335e-05
-6.699023e-05
-8.288134e-05
-9.585446e-05
-1.100101e-04
-1.232866e-04
-1.409475e-04
-1.567956e-04
-1.666256e-04
-1.718542e-04
-1.740573e-04
-1.742809e-04
-1.741021e-04
0.000000e+00
1.259595e-05
1.999679e-05
3.243351e-05
4.873604e-05
6.685553e-05
9.128634e-05
1.201076e-04
1.534077e-04
1.901368e-04
2.302966e-04
2.743030e-04
3.242223e-04
3.783567e-04
4.399003e-04
5.107601e-04
5.841695e-04
0.000000e+00
7.679734e-06
1.610640e-05
2.633188e-05
4.227514e-05
6.089498e-05
8.482580e-05
1.142392e-04
1.471623e-04
1.840201e-04
2.239576e-04
2.680932e-04
3.176512e-04
3.734094e-04
4.346439e-04
5.033796e-04
5.738178e-04
0.000000e+00
4.325310e-06
1.228889e-05
2.172249e-05
3.645257e-05
5.567277e-05
7.940213e-05
1.097325e-04
1.430024e-04
1.795308e-04
2.193711e-04
2.635528e-04
3.138672e-04
3.710126e-04
4.304943e-04
4.959017e-04
5.641369e-04
0.000000e+00
3.198476e-06
1.058767e-05
2.008200e-05
3.450628e-05
5.199780e-05
7.640127e-05
1.087360e-04
1.435473e-04
1.780913e-04
2.173348e-04
2.619071e-04
3.131071e-04
3.695972e-04
4.277568e-04
4.880691e-04
5.499808e-04
0.000000e+00
2.810021e-06
1.026481e-05
2.004104e-05
3.423840e-05
5.070498e-05
7.528418e-05
1.097813e-04
1.447492e-04
1.780119e-04
2.155453e-04
2.618392e-04
3.133208e-04
3.697417e-04
4.266140e-04
4.816882e-04
5.338533e-04
0.000000e+00
3.342373e-06
1.077909e-05
2.046015e-05
3.484846e-05
5.180098e-05
7.717095e-05
1.106702e-04
1.453660e-04
1.778446e-04
2.159319e-04
2.632910e-04
3.156605e-04
3.700765e-04
4.265205e-04
4.793669e-04
5.228182e-04
0.000000e+00
4.479530e-06
1.251852e-05
2.207032e-05
3.673305e-05
5.575780e-05
8.038591e-05
1.117398e-04
1.447128e-04
1.789520e-04
2.181914e-04
2.664978e-04
3.191532e-04
3.721875e-04
4.256159e-04
4.766145e-04
5.193348e-04
0.000000e+00
7.804717e-06
1.634420e-05
2.663534e-05
4.253612e-05
6.130998e-05
8.579856e-05
1.159130e-04
1.481834e-04
1.832488e-04
2.228118e-04
2.702749e-04
3.222008e-04
3.743930e-04
4.257684e-04
4.745906e-04
5.197929e-04
0.000000e+00
1.270955e-05
2.023477e-05
3.272663e-05
4.907905e-05
6.739771e-05
9.233126e-05
1.215694e-04
1.543814e-04
1.894092e-04
2.300800e-04
2.746404e-04
3.245081e-04
3.755478e-04
4.260908e-04
4.741070e-04
5.200562e-04


5.681644e+00
6.142456e+00
6.868696e+00
5.943808e+00
5.770754e+00
6.634222e+00
6.474252e+00
6.454302e+00
5.976305e+00
5.906569e+00
6.285733e+00
7.152141e+00
8.849314e+00
9.831203e+00
9.152097e+00
8.003085e+00
8.087035e+00
8.463163e+00
8.663109e+00
8.359045e+00
8.254213e+00
8.537085e+00
8.696457e+00
8.434958e+00
8.405312e+00
8.271853e+00
8.418832e+00
8.845867e+00
9.508014e+00
9.843841e+00
8.396116e+00
6.475117e+00
9.844166e+00
9.824312e+00
9.999965e+00
9.838380e+00
9.836713e+00
9.974637e+00
9.836343e+00
9.949423e+00
9.849685e+00
9.881517e+00
9.899305e+00
9.877039e+00
9.895312e+00
9.396565e+00
8.001474e+00
6.192760e+00
9.999983e+00
9.999983e+00
9.999983e+00
9.999981e+00
9.999979e+00
9.999974e+00
9.999969e+00
9.999969e+00
9.999972e+00
9.999971e+00
9.999960e+00
9.484102e+00
8.832262e+00
8.374405e+00
7.993586e+00
7.922795e+00
9.999983e+00
9.999982e+00
9.999982e+00
9.999980e+00
9.999976e+00
9.999968e+00
9.935250e+00
9.963443e+00
9.999939e+00
9.919811e+00
9.361603e+00
8.595085e+00
7.709288e+00
7.748079e+00
8.656312e+00
9.171584e+00
9.844660e+00
9.824278e+00
9.999964e+00
9.838277e+00
9.836498e+00
9.717724e+00
9.305359e+00
9.523862e+00
9.388424e+00
8.876521e+00
8.313472e+00
7.900293e+00
8.200869e+00
8.755905e+00
9.450072e+00
9.999939e+00
8.089898e+00
8.464428e+00
8.662586e+00
8.357635e+00
8.176052e+00
8.090455e+00
7.933946e+00
7.833333e+00
7.921895e+00
7.355532e+00
7.491783e+00
8.493269e+00
9.292534e+00
9.848420e+00
9.999964e+00
9.999979e+00
5.688769e+00
6.144858e+00
6.867841e+00
5.936990e+00
5.746127e+00
6.315472e+00
6.124542e+00
6.591923e+00
6.344407e+00
6.553656e+00
7.879629e+00
9.117992e+00
9.987107e+00
9.999972e+00
9.999981e+00
9.999984e+00


-8.193803e-01
-1.668218e-01
-3.975801e-01
-2.587469e-01
-9.237742e-02
-3.076630e-01
-1.231187e-01
-2.097663e-01
-1.619217e-01
-1.576362e-01
-2.154388e-01
-1.496524e-01
-4.612975e-01
-6.862558e-01
3.157040e-01
-8.469543e-01
6.106815e-01
4.816755e-01
2.951134e-01
2.251785e-01
2.911988e-01
1.679626e-01
1.749854e-01
1.734106e-01
1.093673e-01
1.484291e-01
1.278232e-01
2.413432e-01
3.024761e-01
5.092185e-01
6.953420e-01
-9.344237e-01
7.226216e-01
4.716778e-01
5.631283e-02
-2.271336e-02
-3.592426e-02
-1.892348e-01
-8.013760e-02
-1.382598e-01
-7.757814e-02
-1.906165e-02
3.115244e-02
1.853590e-01
2.782485e-01
1.479532e-01
-2.538227e-02
-1.678300e-01
7.278877e-01
5.564672e-01
1.927569e-01
6.131728e-02
-2.202366e-02
-1.072177e-01
-1.626029e-02
-6.227142e-02
1.309471e-02
1.668115e-02
5.853004e-02
1.174014e-01
5.885184e-02
-2.622896e-01
-3.841100e-01
-7.822580e-02
7.307884e-01
5.604176e-01
2.007706e-01
6.951016e-02
-1.800167e-02
-1.131780e-01
-3.626062e-02
-1.030493e-01
-5.259975e-02
-4.397842e-02
2.064269e-02
1.370566e-02
-3.779224e-02
-1.298080e-01
-1.028462e-01
3.104088e-01
7.294275e-01
4.819129e-01
7.438828e-02
-4.751876e-03
-2.373162e-02
-1.628115e-01
-7.286832e-02
-1.875520e-01
-1.820541e-01
-1.090344e-01
-7.752594e-02
-9.791045e-02
-1.116339e-01
4.546321e-02
3.339918e-01
7.245142e-01
6.147558e-01
4.875801e-01
3.025464e-01
2.301434e-01
2.873049e-01
1.614159e-01
1.521797e-01
1.037930e-01
-5.782931e-02
-3.986625e-02
-9.626683e-02
-5.627016e-02
5.736728e-02
3.652118e-01
7.128506e-01
9.478991e-01
-8.251497e-01
-1.721946e-01
-4.052577e-01
-2.618985e-01
-9.141435e-02
-3.017461e-01
-1.191443e-01
-1.574121e-01
-5.594610e-02
-2.197574e-02
-9.261559e-02
1.006644e-01
3.878844e-01
7.721591e-01
9.528996e-01
9.987355e-01
1 2 19 18
2 3 20 19
3 4 21 20
4 5 22 21
5 6 23 22
6 7 24 23
7 8 25 24
8 9 26 25
9 10 27 26
10 11 28 27
11 12 29 28
12 13 30 29
13 14 31 30
14 15 32 31
15 16 33 32
16 17 34 33
18 19 36 35
19 20 37 36
20 21 38 37
21 22 39 38
22 23 40 39
23 24 41 40
24 25 42 41
25 26 43 42
26 27 44 43
27 28 45 44
28 29 46 45
29 30 47 46
30 31 48 47
31 32 49 48
32 33 50 49
33 34 51 50
35 36 53 52
36 37 54 53
37 38 55 54
38 39 56 55
39 40 57 56
40 41 58 57
41 42 59 58
42 43 60 59
43 44 61 60
44 45 62 61
45 46 63 62
46 47 64 63
47 48 65 64
48 49 66 65
49 50 67 66
50 51 68 67
52 53 70 69
53 54 71 70
54 55 72 71
55 56 73 72
56 57 74 73
57 58 75 74
58 59 76 75
59 60 77 76
60 61 78 77
61 62 79 78
62 63 80 79
63 64 81 80
64 65 82 81
65 66 83 82
66 67 84 83
67 68 85 84
69 70 87 86
70 71 88 87
71 72 89 88
72 73 90 89
73 74 91 90
74 75 92 91
75 76 93 92
76 77 94 93
77 78 95 94
78 79 96 95
79 80 97 96
80 81 98 97
81 82 99 98
82 83 100 99
83 84 101 100
84 85 102 101
86 87 104 103
87 88 105 104
88 89 106 105
89 90 107 106
90 91 108 107
91 92 109 108
92 93 110 109
93 94 111 110
94 95 112 111
95 96 113 112
96 97 114 113
97 98 115 114
98 99 116 115
99 100 117 116
100 101 118 117
101 102 119 118
103 104 121 120
104 105 122 121
105 106 123 122
106 107 124 123
107 108 125 124
108 109 126 125
109 110 127 126
110 111 128 127
111 112 129 128
112 113 130 129
113 114 131 130
114 115 132 131
115 116 133 132
116 117 134 133
117 118 135 134
118 119 136 135
120 121 138 137
121 122 139 138
122 123 140 139
123 124 141 140
124 125 142 141
125 126 143 142
126 127 144 143
127 128 145 144
128 129 146 145
129 130 147 146
130 131 148 147
131 132 149 148
132 133 150 149
133 134 151 150
134 135 152 151
135 136 153 152
