TITLE = "Solution"
VARIABLES = x, y, u, v, psiu, psiv, t, stress
ZONE T="structure" N=153 E=128 F=FEBLOCK ET=QUADRILATERAL VARLOCATION=([7,8]=cellcentered)
0.000000e+00
1.250000e+01
2.500000e+01
3.750000e+01
5.000000e+01
6.250000e+01
7.500000e+01
8.750000e+01
1.000000e+02
1.125000e+02
1.250000e+02
1.375000e+02
1.500000e+02
1.625000e+02
1.750000e+02
1.875000e+02
2.000000e+02
0.000000e+00
1.250000e+01
2.500000e+01
3.750000e+01
5.000000e+01
6.250000e+01
7.500000e+01
8.750000e+01
1.000000e+02
1.125000e+02
1.250000e+02
1.375000e+02
1.500000e+02
1.625000e+02
1.750000e+02
1.875000e+02
2.000000e+02
0.000000e+00
1.250000e+01
2.500000e+01
3.750000e+01
5.000000e+01
6.250000e+01
7.500000e+01
8.750000e+01
1.000000e+02
1.125000e+02
1.250000e+02
1.375000e+02
1.500000e+02
1.625000e+02
1.750000e+02
1.875000e+02
2.000000e+02
0.000000e+00
1.250000e+01
2.500000e+01
3.750000e+01
5.000000e+01
6.250000e+01
7.500000e+01
8.750000e+01
1.000000e+02
1.125000e+02
1.250000e+02
1.375000e+02
1.500000e+02
1.625000e+02
1.750000e+02
1.875000e+02
2.000000e+02
0.000000e+00
1.250000e+01
2.500000e+01
3.750000e+01
5.000000e+01
6.250000e+01
7.500000e+01
8.750000e+01
1.000000e+02
1.125000e+02
1.250000e+02
1.375000e+02
1.500000e+02
1.625000e+02
1.750000e+02
1.875000e+02
2.000000e+02
0.000000e+00
1.250000e+01
2.500000e+01
3.750000e+01
5.000000e+01
6.250000e+01
7.500000e+01
8.750000e+01
1.000000e+02
1.125000e+02
1.250000e+02
1.375000e+02
1.500000e+02
1.625000e+02
1.750000e+02
1.875000e+02
2.000000e+02
0.000000e+00
1.250000e+01
2.500000e+01
3.750000e+01
5.000000e+01
6.250000e+01
7.500000e+01
8.750000e+01
1.000000e+02
1.125000e+02
1.250000e+02
1.375000e+02
1.500000e+02
1.625000e+02
1.750000e+02
1.875000e+02
2.000000e+02
0.000000e+00
1.250000e+01
2.500000e+01
3.750000e+01
5.000000e+01
6.250000e+01
7.500000e+01
8.750000e+01
1.000000e+02
1.125000e+02
1.250000e+02
1.375000e+02
1.500000e+02
1.625000e+02
1.750000e+02
1.875000e+02
2.000000e+02
0.000000e+00
1.250000e+01
2.500000e+01
3.750000e+01
5.000000e+01
6.250000e+01
7.500000e+01
8.750000e+01
1.000000e+02
1.125000e+02
1.250000e+02
1.375000e+02
1.500000e+02
1.625000e+02
1.750000e+02
1.875000e+02
2.000000e+02
0.000000e+00
0.000000e+00
0.000000e+00
0.000000e+00
0.000000e+00
0.000000e+00
0.000000e+00
0.000000e+00
0.000000e+00
0.000000e+00
0.000000e+00
0.000000e+00
0.000000e+00
0.000000e+00
0.000000e+00
0.000000e+00
0.000000e+00
1.250000e+01
1.250000e+01
1.250000e+01
1.250000e+01
1.250000e+01
1.250000e+01
1.250000e+01
1.250000e+01
1.250000e+01
1.250000e+01
1.250000e+01
1.250000e+01
1.250000e+01
1.250000e+01
1.250000e+01
1.250000e+01
1.250000e+01
2.500000e+01
2.500000e+01
2.500000e+01
2.500000e+01
2.500000e+01
2.500000e+01
2.500000e+01
2.500000e+01
2.500000e+01
2.500000e+01
2.500000e+01
2.500000e+01
2.500000e+01
2.500000e+01
2.500000e+01
2.500000e+01
2.500000e+01
3.750000e+01
3.750000e+01
3.750000e+01
3.750000e+01
3.750000e+01
3.750000e+01
3.750000e+01
3.750000e+01
3.750000e+01
3.750000e+01
3.750000e+01
3.750000e+01
3.750000e+01
3.750000e+01
3.750000e+01
3.750000e+01
3.750000e+01
5.000000e+01
5.000000e+01
5.000000e+01
5.000000e+01
5.000000e+01
5.000000e+01
5.000000e+01
5.000000e+01
5.000000e+01
5.000000e+01
5.000000e+01
5.000000e+01
5.000000e+01
5.000000e+01
5.000000e+01
5.000000e+01
5.000000e+01
6.250000e+01
6.250000e+01
6.250000e+01
6.250000e+01
6.250000e+01
6.250000e+01
6.250000e+01
6.250000e+01
6.250000e+01
6.250000e+01
6.250000e+01
6.250000e+01
6.250000e+01
6.250000e+01
6.250000e+01
6.250000e+01
6.250000e+01
7.500000e+01
7.500000e+01
7.500000e+01
7.500000e+01
7.500000e+01
7.500000e+01
7.500000e+01
7.500000e+01
7.500000e+01
7.500000e+01
7.500000e+01
7.500000e+01
7.500000e+01
7.500000e+01
7.500000e+01
7.500000e+01
7.500000e+01
8.750000e+01
8.750000e+01
8.750000e+01
8.750000e+01
8.750000e+01
8.750000e+01
8.750000e+01
8.750000e+01
8.750000e+01
8.750000e+01
8.750000e+01
8.750000e+01
8.750000e+01
8.750000e+01
8.750000e+01
8.750000e+01
8.750000e+01
1.000000e+02
1.000000e+02
1.000000e+02
1.000000e+02
1.000000e+02
1.000000e+02
1.000000e+02
1.000000e+02
1.000000e+02
1.000000e+02
1.000000e+02
1.000000e+02
1.000000e+02
1.000000e+02
1.000000e+02
1.000000e+02
1.000000e+02
0.000000e+00
-9.966295e-01
-1.679902e+00
-2.432751e+00
-3.119485e+00
-3.752578e+00
-4.460848e+00
-5.088819e+00
-5.765540e+00
-6.405529e+00
-7.057545e+00
-7.720811e+00
-8.373407e+00
-9.145199e+00
-1.007442e+01
-1.082846e+01
-1.127818e+01
0.000000e+00
-4.459798e-01
-9.062031e-01
-1.418751e+00
-1.930145e+00
-2.409937e+00
-2.923367e+00
-3.421588e+00
-3.916948e+00
-4.419545e+00
-4.912530e+00
-5.414566e+00
-5.899263e+00
-6.421213e+00
-6.895040e+00
-7.019840e+00
-7.198832e+00
0.000000e+00
-1.454892e-01
-3.475934e-01
-6.376976e-01
-9.749877e-01
-1.299640e+00
-1.652282e+00
-2.009672e+00
-2.352461e+00
-2.715207e+00
-3.053889e+00
-3.389343e+00
-3.684949e+00
-3.926974e+00
-4.036248e+00
-4.033787e+00
-4.183116e+00
0.000000e+00
-7.824000e-02
-1.606362e-01
-3.072230e-01
-4.515961e-01
-6.242347e-01
-8.102968e-01
-9.751306e-01
-1.162447e+00
-1.322564e+00
-1.485234e+00
-1.623545e+00
-1.716326e+00
-1.724765e+00
-1.655404e+00
-1.639899e+00
-1.758149e+00
0.000000e+00
-2.712337e-03
-6.036301e-03
-9.427947e-03
-1.247286e-02
-1.424433e-02
-1.348100e-02
-9.607784e-03
-1.431958e-03
1.489445e-02
3.929398e-02
8.069336e-02
1.584018e-01
2.703497e-01
3.877341e-01
4.273238e-01
3.284316e-01
0.000000e+00
7.359539e-02
1.508512e-01
2.907702e-01
4.292429e-01
5.981703e-01
7.846958e-01
9.584980e-01
1.163978e+00
1.347236e+00
1.551759e+00
1.771181e+00
1.996490e+00
2.194666e+00
2.329011e+00
2.365074e+00
2.301573e+00
0.000000e+00
1.439429e-01
3.434292e-01
6.292840e-01
9.614824e-01
1.281211e+00
1.631609e+00
1.995850e+00
2.361687e+00
2.766187e+00
3.134510e+00
3.501223e+00
3.837418e+00
4.102422e+00
4.271443e+00
4.328552e+00
4.306556e+00
0.000000e+00
4.470487e-01
9.072091e-01
1.419561e+00
1.930430e+00
2.408027e+00
2.917847e+00
3.413134e+00
3.900324e+00
4.396456e+00
4.875385e+00
5.351340e+00
5.779022e+00
6.119135e+00
6.328801e+00
6.421526e+00
6.438427e+00
0.000000e+00
9.984251e-01
1.683826e+00
2.441140e+00
3.133454e+00
3.771066e+00
4.481209e+00
5.101645e+00
5.744793e+00
6.328692e+00
6.911559e+00
7.507387e+00
8.032741e+00
8.430296e+00
8.633566e+00
8.688533e+00
8.689214e+00
0.000000e+00
-6.191719e-01
-1.363130e+00
-2.366176e+00
-3.542763e+00
-4.889400e+00
-6.425088e+00
-8.115702e+00
-9.980859e+00
-1.200826e+01
-1.419658e+01
-1.654874e+01
-1.906337e+01
-2.179353e+01
-2.475210e+01
-2.810868e+01
-3.312112e+01
0.000000e+00
-4.162911e-01
-1.194749e+00
-2.179862e+00
-3.373642e+00
-4.715340e+00
-6.247483e+00
-7.947402e+00
-9.804593e+00
-1.184099e+01
-1.402421e+01
-1.638185e+01
-1.889020e+01
-2.160159e+01
-2.461288e+01
-2.802408e+01
-3.207366e+01
0.000000e+00
-3.908780e-01
-1.092974e+00
-2.076509e+00
-3.254426e+00
-4.589122e+00
-6.127741e+00
-7.817737e+00
-9.686453e+00
-1.171933e+01
-1.391380e+01
-1.628227e+01
-1.880191e+01
-2.154103e+01
-2.460414e+01
-2.786968e+01
-3.089875e+01
0.000000e+00
-4.500043e-01
-1.089442e+00
-2.050233e+00
-3.191512e+00
-4.517992e+00
-6.065429e+00
-7.741431e+00
-9.631868e+00
-1.166159e+01
-1.387683e+01
-1.626461e+01
-1.881414e+01
-2.155091e+01
-2.453666e+01
-2.755777e+01
-3.017668e+01
0.000000e+00
-4.568822e-01
-1.111757e+00
-2.034510e+00
-3.176459e+00
-4.506963e+00
-6.041408e+00
-7.741393e+00
-9.624837e+00
-1.167808e+01
-1.389849e+01
-1.630163e+01
-1.886039e+01
-2.155096e+01
-2.438118e+01
-2.719520e+01
-2.957385e+01
0.000000e+00
-4.484935e-01
-1.088365e+00
-2.051306e+00
-3.197847e+00
-4.531990e+00
-6.091346e+00
-7.780662e+00
-9.690642e+00
-1.174477e+01
-1.396700e+01
-1.635496e+01
-1.889641e+01
-2.153819e+01
-2.423743e+01
-2.687543e+01
-2.913997e+01
0.000000e+00
-3.887024e-01
-1.091258e+00
-2.078154e+00
-3.264709e+00
-4.614427e+00
-6.174699e+00
-7.895332e+00
-9.795778e+00
-1.185883e+01
-1.405539e+01
-1.642257e+01
-1.893636e+01
-2.153709e+01
-2.415162e+01
-2.666666e+01
-2.890958e+01
0.000000e+00
-4.142131e-01
-1.192761e+00
-2.181285e+00
-3.384425e+00
-4.742968e+00
-6.301844e+00
-8.038930e+00
-9.933314e+00
-1.199469e+01
-1.417390e+01
-1.652291e+01
-1.900855e+01
-2.157789e+01
-2.413211e+01
-2.657758e+01
-2.885087e+01
0.000000e+00
-6.175405e-01
-1.361642e+00
-2.368433e+00
-3.554330e+00
-4.917738e+00
-6.480436e+00
-8.205593e+00
-1.010506e+01
-1.215065e+01
-1.433212e+01
-1.666974e+01
-1.912858e+01
-2.165656e+01
-2.415848e+01
-2.656170e+01
-2.884996e+01


0.000000e+00
1.533902e-05
2.484603e-05
3.693611e-05
5.253647e-05
6.553614e-05
8.118172e-05
9.525398e-05
1.105220e-04
1.249896e-04
1.407159e-04
1.553742e-04
1.720845e-04
1.878695e-04
1.977870e-04
2.034313e-04
2.102917e-04
0.000000e+00
1.149243e-05
1.982938e-05
2.863095e-05
4.137182e-05
5.230167e-05
6.274167e-05
7.412964e-05
8.429681e-05
9.532246e-05
1.055848e-04
1.157378e-04
1.265014e-04
1.357565e-04
1.372408e-04
1.409564e-04
1.467655e-04
0.000000e+00
9.739077e-06
1.555149e-05
2.131695e-05
3.075622e-05
3.814557e-05
4.442515e-05
5.211266e-05
5.788358e-05
6.446846e-05
6.969193e-05
7.450693e-05
7.876114e-05
8.068231e-05
7.982612e-05
8.216551e-05
8.642728e-05
0.000000e+00
5.426522e-06
7.454481e-06
1.101235e-05
1.564582e-05
1.773926e-05
2.176269e-05
2.390797e-05
2.678016e-05
2.788860e-05
2.963695e-05
2.948842e-05
2.831031e-05
2.665351e-05
2.631289e-05
2.937463e-05
3.508981e-05
0.000000e+00
-1.088024e-07
-2.744340e-07
-4.974965e-07
-8.266151e-07
-1.298959e-06
-1.987363e-06
-3.143664e-06
-4.869081e-06
-7.233447e-06
-9.342179e-06
-1.248850e-05
-1.542719e-05
-1.694092e-05
-1.644426e-05
-1.422935e-05
-1.024308e-05
0.000000e+00
-5.579338e-06
-7.830171e-06
-1.181030e-05
-1.694395e-05
-1.967343e-05
-2.476989e-05
-2.752935e-05
-3.331840e-05
-3.699450e-05
-3.988226e-05
-4.308156e-05
-4.799872e-05
-4.972752e-05
-5.016519e-05
-5.057967e-05
-4.884401e-05
0.000000e+00
-9.686648e-06
-1.556864e-05
-2.153689e-05
-3.117608e-05
-3.891938e-05
-4.512054e-05
-5.287390e-05
-5.906871e-05
-6.585326e-05
-7.016095e-05
-7.435120e-05
-7.849441e-05
-8.222340e-05
-8.390968e-05
-8.577905e-05
-8.650789e-05
0.000000e+00
-1.140753e-05
-1.973131e-05
-2.854742e-05
-4.124580e-05
-5.229205e-05
-6.254610e-05
-7.401356e-05
-8.400432e-05
-9.461048e-05
-1.049692e-04
-1.136723e-04
-1.185740e-04
-1.236999e-04
-1.273611e-04
-1.286719e-04
-1.287452e-04
0.000000e+00
-1.537707e-05
-2.482367e-05
-3.677651e-05
-5.213481e-05
-6.492284e-05
-8.047960e-05
-9.436762e-05
-1.095962e-04
-1.227225e-04
-1.403304e-04
-1.564319e-04
-1.668407e-04
-1.720047e-04
-1.742555e-04
-1.745791e-04
-1.744212e-04
0.000000e+00
1.263369e-05
1.991604e-05
3.200266e-05
4.742675e-05
6.381963e-05
8.546274e-05
1.106910e-04
1.405194e-04
1.750154e-04
2.144237e-04
2.585730e-04
3.089476e-04
3.634823e-04
4.253258e-04
4.963476e-04
5.698568e-04
0.000000e+00
7.719187e-06
1.602779e-05
2.591743e-05
4.102715e-05
5.793655e-05
7.900234e-05
1.046753e-04
1.341720e-04
1.689219e-04
2.081642e-04
2.524631e-04
3.024431e-04
3.586294e-04
4.201508e-04
4.890148e-04
5.595568e-04
0.000000e+00
4.275750e-06
1.206299e-05
2.111267e-05
3.518301e-05
5.300324e-05
7.391916e-05
9.970790e-05
1.294175e-04
1.644302e-04
2.040085e-04
2.482995e-04
2.989174e-04
3.563775e-04
4.160875e-04
4.815077e-04
5.498237e-04
0.000000e+00
2.953960e-06
1.000891e-05
1.901888e-05
3.307464e-05
5.081287e-05
7.210207e-05
9.742575e-05
1.277177e-04
1.631174e-04
2.028989e-04
2.472129e-04
2.985391e-04
3.551250e-04
4.134573e-04
4.736807e-04
5.355047e-04
0.000000e+00
2.457112e-06
9.460765e-06
1.860226e-05
3.262263e-05
5.037098e-05
7.162055e-05
9.641629e-05
1.270363e-04
1.637198e-04
2.021236e-04
2.473693e-04
2.989416e-04
3.554327e-04
4.122113e-04
4.673944e-04
5.193897e-04
0.000000e+00
3.073164e-06
1.015872e-05
1.923554e-05
3.326689e-05
5.093758e-05
7.220106e-05
9.641489e-05
1.278937e-04
1.645412e-04
2.026405e-04
2.483400e-04
3.014191e-04
3.558432e-04
4.119129e-04
4.650434e-04
5.083610e-04
0.000000e+00
4.419040e-06
1.230322e-05
2.146514e-05
3.539433e-05
5.311008e-05
7.356749e-05
9.891151e-05
1.295842e-04
1.657586e-04
2.042421e-04
2.512482e-04
3.047925e-04
3.579414e-04
4.109178e-04
4.621560e-04
5.048618e-04
0.000000e+00
7.839561e-06
1.630868e-05
2.630443e-05
4.132556e-05
5.798091e-05
7.867573e-05
1.042319e-04
1.342142e-04
1.692381e-04
2.083612e-04
2.551411e-04
3.076321e-04
3.600991e-04
4.111261e-04
4.600479e-04
5.053007e-04
0.000000e+00
1.274359e-05
2.019694e-05
3.238039e-05
4.773725e-05
6.388875e-05
8.524074e-05
1.104146e-04
1.404361e-04
1.748397e-04
2.154776e-04
2.597386e-04
3.100056e-04
3.611298e-04
4.115494e-04
4.595446e-04
5.055520e-04


5.684085e+00
6.143462e+00
6.869063e+00
5.957036e+00
5.849527e+00
6.804960e+00
6.707810e+00
6.755971e+00
6.161871e+00
5.970293e+00
6.258017e+00
7.145432e+00
8.861766e+00
9.834858e+00
9.150902e+00
8.005106e+00
8.088042e+00
8.463657e+00
8.663287e+00
8.358980e+00
8.292767e+00
8.595323e+00
8.811047e+00
8.547193e+00
8.501509e+00
8.280302e+00
8.414371e+00
8.835078e+00
9.518564e+00
9.843662e+00
8.391410e+00
6.491888e+00
9.844359e+00
9.824334e+00
1.000000e+01
9.838451e+00
9.836664e+00
9.984397e+00
9.836176e+00
9.968699e+00
9.848610e+00
9.888063e+00
9.892629e+00
9.879703e+00
9.899019e+00
9.365265e+00
7.938062e+00
6.158970e+00
1.000000e+01
1.000000e+01
1.000000e+01
1.000000e+01
1.000000e+01
1.000000e+01
1.000000e+01
1.000000e+01
1.000000e+01
1.000000e+01
9.999999e+00
9.546706e+00
8.815296e+00
8.408417e+00
7.925304e+00
7.838259e+00
1.000000e+01
1.000000e+01
1.000000e+01
1.000000e+01
1.000000e+01
1.000000e+01
1.000000e+01
9.999999e+00
9.999996e+00
9.915973e+00
9.547391e+00
8.573058e+00
7.501383e+00
7.546394e+00
8.680053e+00
9.128645e+00
9.845459e+00
9.824296e+00
1.000000e+01
9.838433e+00
9.836537e+00
9.974015e+00
9.836134e+00
9.960773e+00
9.516369e+00
8.901516e+00
8.455661e+00
7.883643e+00
7.597443e+00
8.381042e+00
9.410400e+00
9.999995e+00
8.094603e+00
8.466692e+00
8.663066e+00
8.358359e+00
8.250368e+00
8.531206e+00
8.737589e+00
8.404715e+00
8.143064e+00
7.475041e+00
7.693014e+00
8.384745e+00
8.939042e+00
9.509249e+00
9.999998e+00
1.000000e+01
5.700326e+00
6.149629e+00
6.869533e+00
5.941411e+00
5.761893e+00
6.635935e+00
6.553497e+00
6.718398e+00
6.441407e+00
6.851911e+00
8.029916e+00
9.184143e+00
9.865249e+00
9.999999e+00
1.000000e+01
1.000000e+01


-8.206833e-01
-1.672306e-01
-3.988243e-01
-2.594488e-01
-9.237553e-02
-3.070383e-01
-1.217102e-01
-2.100726e-01
-1.578852e-01
-1.627392e-01
-2.042297e-01
-1.489860e-01
-4.699865e-01
-6.750010e-01
3.205356e-01
-8.440263e-01
6.112319e-01
4.824471e-01
2.957477e-01
2.260072e-01
2.907073e-01
1.673108e-01
1.714358e-01
1.720411e-01
1.062355e-01
1.461775e-01
1.265851e-01
2.413165e-01
2.968866e-01
5.169580e-01
7.002135e-01
-9.558897e-01
7.225910e-01
4.712825e-01
5.518731e-02
-2.451635e-02
-3.947042e-02
-1.989283e-01
-9.188456e-02
-1.501491e-01
-7.759751e-02
-2.185866e-02
3.248965e-02
1.861418e-01
2.883866e-01
1.655747e-01
-4.378252e-03
-1.817259e-01
7.272572e-01
5.550899e-01
1.893521e-01
5.731796e-02
-2.474429e-02
-1.135213e-01
-2.818416e-02
-7.566210e-02
1.200489e-02
2.495505e-02
4.526879e-02
8.974636e-02
5.207129e-02
-2.741308e-01
-3.788753e-01
-6.466048e-02
7.299747e-01
5.587045e-01
1.953747e-01
5.946585e-02
-2.683055e-02
-1.274729e-01
-4.935937e-02
-1.096761e-01
-4.623305e-02
-4.213936e-02
-4.025915e-02
-3.468460e-02
-3.237880e-02
-1.478283e-01
-1.439092e-01
3.129237e-01
7.288617e-01
4.813423e-01
7.193983e-02
-1.299138e-02
-4.228534e-02
-2.290474e-01
-1.606998e-01
-2.562977e-01
-1.825298e-01
-6.967456e-02
-9.939377e-02
-1.163064e-01
-4.013689e-02
8.609726e-02
3.162114e-01
7.256807e-01
6.143748e-01
4.888329e-01
3.053629e-01
2.361393e-01
2.983447e-01
1.634382e-01
1.321594e-01
8.529604e-02
-6.066848e-02
-1.554887e-02
-9.801828e-02
-5.825654e-02
1.253491e-01
4.181359e-01
7.159073e-01
9.490912e-01
-8.259121e-01
-1.710126e-01
-4.077201e-01
-2.697297e-01
-9.719053e-02
-3.054448e-01
-1.060957e-01
-1.389938e-01
-5.983147e-02
-3.983072e-02
-8.862115e-02
1.049134e-01
4.223378e-01
7.792317e-01
9.523162e-01
9.987349e-01
1 2 19 18
2 3 20 19
3 4 21 20
4 5 22 21
5 6 23 22
6 7 24 23
7 8 25 24
8 9 26 25
9 10 27 26
10 11 28 27
11 12 29 28
12 13 30 29
13 14 31 30
14 15 32 31
15 16 33 32
16 17 34 33
18 19 36 35
19 20 37 36
20 21 38 37
21 22 39 38
22 23 40 39
23 24 41 40
24 25 42 41
25 26 43 42
26 27 44 43
27 28 45 44
28 29 46 45
29 30 47 46
30 31 48 47
31 32 49 48
32 33 50 49
33 34 51 50
35 36 53 52
36 37 54 53
37 38 55 54
38 39 56 55
39 40 57 56
40 41 58 57
41 42 59 58
42 43 60 59
43 44 61 60
44 45 62 61
45 46 63 62
46 47 64 63
47 48 65 64
48 49 66 65
49 50 67 66
50 51 68 67
52 53 70 69
53 54 71 70
54 55 72 71
55 56 73 72
56 57 74 73
57 58 75 74
58 59 76 75
59 60 77 76
60 61 78 77
61 62 79 78
62 63 80 79
63 64 81 80
64 65 82 81
65 66 83 82
66 67 84 83
67 68 85 84
69 70 87 86
70 71 88 87
71 72 89 88
72 73 90 89
73 74 91 90
74 75 92 91
75 76 93 92
76 77 94 93
77 78 95 94
78 79 96 95
79 80 97 96
80 81 98 97
81 82 99 98
82 83 100 99
83 84 101 100
84 85 102 101
86 87 104 103
87 88 105 104
88 89 106 105
89 90 107 106
90 91 108 107
91 92 109 108
92 93 110 109
93 94 111 110
94 95 112 111
95 96 113 112
96 97 114 113
97 98 115 114
98 99 116 115
99 100 117 116
100 101 118 117
101 102 119 118
103 104 121 120
104 105 122 121
105 106 123 122
106 107 124 123
107 108 125 124
108 109 126 125
109 110 127 126
110 111 128 127
111 112 129 128
112 113 130 129
113 114 131 130
114 115 132 131
115 116 133 132
116 117 134 133
117 118 135 134
118 119 136 135
120 121 138 137
121 122 139 138
122 123 140 139
123 124 141 140
124 125 142 141
125 126 143 142
126 127 144 143
127 128 145 144
128 129 146 145
129 130 147 146
130 131 148 147
131 132 149 148
132 133 150 149
133 134 151 150
134 135 152 151
135 136 153 152
