TITLE = "Solution"
VARIABLES = x, y, u, v, psiu, psiv, t, stress
ZONE T="structure" N=153 E=128 F=FEBLOCK ET=QUADRILATERAL VARLOCATION=([7,8]=cellcentered)
0.000000e+00
1.250000e+01
2.500000e+01
3.750000e+01
5.000000e+01
6.250000e+01
7.500000e+01
8.750000e+01
1.000000e+02
1.125000e+02
1.250000e+02
1.375000e+02
1.500000e+02
1.625000e+02
1.750000e+02
1.875000e+02
2.000000e+02
0.000000e+00
1.250000e+01
2.500000e+01
3.750000e+01
5.000000e+01
6.250000e+01
7.500000e+01
8.750000e+01
1.000000e+02
1.125000e+02
1.250000e+02
1.375000e+02
1.500000e+02
1.625000e+02
1.750000e+02
1.875000e+02
2.000000e+02
0.000000e+00
1.250000e+01
2.500000e+01
3.750000e+01
5.000000e+01
6.250000e+01
7.500000e+01
8.750000e+01
1.000000e+02
1.125000e+02
1.250000e+02
1.375000e+02
1.500000e+02
1.625000e+02
1.750000e+02
1.875000e+02
2.000000e+02
0.000000e+00
1.250000e+01
2.500000e+01
3.750000e+01
5.000000e+01
6.250000e+01
7.500000e+01
8.750000e+01
1.000000e+02
1.125000e+02
1.250000e+02
1.375000e+02
1.500000e+02
1.625000e+02
1.750000e+02
1.875000e+02
2.000000e+02
0.000000e+00
1.250000e+01
2.500000e+01
3.750000e+01
5.000000e+01
6.250000e+01
7.500000e+01
8.750000e+01
1.000000e+02
1.125000e+02
1.250000e+02
1.375000e+02
1.500000e+02
1.625000e+02
1.750000e+02
1.875000e+02
2.000000e+02
0.000000e+00
1.250000e+01
2.500000e+01
3.750000e+01
5.000000e+01
6.250000e+01
7.500000e+01
8.750000e+01
1.000000e+02
1.125000e+02
1.250000e+02
1.375000e+02
1.500000e+02
1.625000e+02
1.750000e+02
1.875000e+02
2.000000e+02
0.000000e+00
1.250000e+01
2.500000e+01
3.750000e+01
5.000000e+01
6.250000e+01
7.500000e+01
8.750000e+01
1.000000e+02
1.125000e+02
1.250000e+02
1.375000e+02
1.500000e+02
1.625000e+02
1.750000e+02
1.875000e+02
2.000000e+02
0.000000e+00
1.250000e+01
2.500000e+01
3.750000e+01
5.000000e+01
6.250000e+01
7.500000e+01
8.750000e+01
1.000000e+02
1.125000e+02
1.250000e+02
1.375000e+02
1.500000e+02
1.625000e+02
1.750000e+02
1.875000e+02
2.000000e+02
0.000000e+00
1.250000e+01
2.500000e+01
3.750000e+01
5.000000e+01
6.250000e+01
7.500000e+01
8.750000e+01
1.000000e+02
1.125000e+02
1.250000e+02
1.375000e+02
1.500000e+02
1.625000e+02
1.750000e+02
1.875000e+02
2.000000e+02
0.000000e+00
0.000000e+00
0.000000e+00
0.000000e+00
0.000000e+00
0.000000e+00
0.000000e+00
0.000000e+00
0.000000e+00
0.000000e+00
0.000000e+00
0.000000e+00
0.000000e+00
0.000000e+00
0.000000e+00
0.000000e+00
0.000000e+00
1.250000e+01
1.250000e+01
1.250000e+01
1.250000e+01
1.250000e+01
1.250000e+01
1.250000e+01
1.250000e+01
1.250000e+01
1.250000e+01
1.250000e+01
1.250000e+01
1.250000e+01
1.250000e+01
1.250000e+01
1.250000e+01
1.250000e+01
2.500000e+01
2.500000e+01
2.500000e+01
2.500000e+01
2.500000e+01
2.500000e+01
2.500000e+01
2.500000e+01
2.500000e+01
2.500000e+01
2.500000e+01
2.500000e+01
2.500000e+01
2.500000e+01
2.500000e+01
2.500000e+01
2.500000e+01
3.750000e+01
3.750000e+01
3.750000e+01
3.750000e+01
3.750000e+01
3.750000e+01
3.750000e+01
3.750000e+01
3.750000e+01
3.750000e+01
3.750000e+01
3.750000e+01
3.750000e+01
3.750000e+01
3.750000e+01
3.750000e+01
3.750000e+01
5.000000e+01
5.000000e+01
5.000000e+01
5.000000e+01
5.000000e+01
5.000000e+01
5.000000e+01
5.000000e+01
5.000000e+01
5.000000e+01
5.000000e+01
5.000000e+01
5.000000e+01
5.000000e+01
5.000000e+01
5.000000e+01
5.000000e+01
6.250000e+01
6.250000e+01
6.250000e+01
6.250000e+01
6.250000e+01
6.250000e+01
6.250000e+01
6.250000e+01
6.250000e+01
6.250000e+01
6.250000e+01
6.250000e+01
6.250000e+01
6.250000e+01
6.250000e+01
6.250000e+01
6.250000e+01
7.500000e+01
7.500000e+01
7.500000e+01
7.500000e+01
7.500000e+01
7.500000e+01
7.500000e+01
7.500000e+01
7.500000e+01
7.500000e+01
7.500000e+01
7.500000e+01
7.500000e+01
7.500000e+01
7.500000e+01
7.500000e+01
7.500000e+01
8.750000e+01
8.750000e+01
8.750000e+01
8.750000e+01
8.750000e+01
8.750000e+01
8.750000e+01
8.750000e+01
8.750000e+01
8.750000e+01
8.750000e+01
8.750000e+01
8.750000e+01
8.750000e+01
8.750000e+01
8.750000e+01
8.750000e+01
1.000000e+02
1.000000e+02
1.000000e+02
1.000000e+02
1.000000e+02
1.000000e+02
1.000000e+02
1.000000e+02
1.000000e+02
1.000000e+02
1.000000e+02
1.000000e+02
1.000000e+02
1.000000e+02
1.000000e+02
1.000000e+02
1.000000e+02
0.000000e+00
-9.966236e-01
-1.679856e+00
-2.432678e+00
-3.119412e+00
-3.752476e+00
-4.460674e+00
-5.088784e+00
-5.765026e+00
-6.405705e+00
-7.056564e+00
-7.721506e+00
-8.374218e+00
-9.145332e+00
-1.007505e+01
-1.083040e+01
-1.128048e+01
0.000000e+00
-4.459891e-01
-9.062032e-01
-1.418747e+00
-1.930196e+00
-2.409929e+00
-2.923514e+00
-3.421623e+00
-3.917167e+00
-4.419842e+00
-4.912720e+00
-5.415318e+00
-5.900199e+00
-6.421331e+00
-6.896275e+00
-7.021744e+00
-7.200718e+00
0.000000e+00
-1.455106e-01
-3.476326e-01
-6.377536e-01
-9.750955e-01
-1.299726e+00
-1.652491e+00
-2.009823e+00
-2.352867e+00
-2.715549e+00
-3.054552e+00
-3.389986e+00
-3.685896e+00
-3.927038e+00
-4.036659e+00
-4.034516e+00
-4.183322e+00
0.000000e+00
-7.827079e-02
-1.606891e-01
-3.072909e-01
-4.516567e-01
-6.242741e-01
-8.102469e-01
-9.751624e-01
-1.162377e+00
-1.322947e+00
-1.485262e+00
-1.624988e+00
-1.718948e+00
-1.727509e+00
-1.656231e+00
-1.638387e+00
-1.756146e+00
0.000000e+00
-2.742877e-03
-6.091738e-03
-9.496327e-03
-1.249407e-02
-1.419334e-02
-1.326893e-02
-9.098130e-03
-8.964886e-04
1.562711e-02
3.932387e-02
8.160899e-02
1.601676e-01
2.718714e-01
3.895541e-01
4.299436e-01
3.312279e-01
0.000000e+00
7.356811e-02
1.507923e-01
2.907070e-01
4.292325e-01
5.981381e-01
7.852032e-01
9.589462e-01
1.166004e+00
1.349280e+00
1.555514e+00
1.773751e+00
2.001057e+00
2.202914e+00
2.336950e+00
2.371400e+00
2.306734e+00
0.000000e+00
1.439211e-01
3.433676e-01
6.292813e-01
9.613051e-01
1.281290e+00
1.631461e+00
1.996488e+00
2.362832e+00
2.769482e+00
3.138280e+00
3.501796e+00
3.836207e+00
4.106952e+00
4.279168e+00
4.335387e+00
4.313022e+00
0.000000e+00
4.470704e-01
9.071666e-01
1.419661e+00
1.930270e+00
2.408173e+00
2.917575e+00
3.413057e+00
3.900404e+00
4.395750e+00
4.875955e+00
5.350944e+00
5.775386e+00
6.118749e+00
6.331640e+00
6.425808e+00
6.443032e+00
0.000000e+00
9.984929e-01
1.683839e+00
2.441255e+00
3.133575e+00
3.770945e+00
4.481647e+00
5.100416e+00
5.744573e+00
6.323646e+00
6.906892e+00
7.507228e+00
8.031308e+00
8.434321e+00
8.636603e+00
8.690819e+00
8.691501e+00
0.000000e+00
-6.191687e-01
-1.363091e+00
-2.366085e+00
-3.542567e+00
-4.889074e+00
-6.424548e+00
-8.114899e+00
-9.979629e+00
-1.200651e+01
-1.419383e+01
-1.654529e+01
-1.905891e+01
-2.178866e+01
-2.474889e+01
-2.810591e+01
-3.311986e+01
0.000000e+00
-4.162933e-01
-1.194719e+00
-2.179764e+00
-3.373461e+00
-4.714997e+00
-6.246967e+00
-7.946570e+00
-9.803396e+00
-1.183921e+01
-1.402153e+01
-1.637810e+01
-1.888581e+01
-2.159630e+01
-2.460922e+01
-2.802177e+01
-3.207071e+01
0.000000e+00
-3.908791e-01
-1.092946e+00
-2.076406e+00
-3.254264e+00
-4.588771e+00
-6.127221e+00
-7.816915e+00
-9.685188e+00
-1.171769e+01
-1.391107e+01
-1.627863e+01
-1.879727e+01
-2.153447e+01
-2.459980e+01
-2.786875e+01
-3.089863e+01
0.000000e+00
-4.500069e-01
-1.089424e+00
-2.050173e+00
-3.191375e+00
-4.517765e+00
-6.064873e+00
-7.740776e+00
-9.630457e+00
-1.166038e+01
-1.387412e+01
-1.626091e+01
-1.880813e+01
-2.154389e+01
-2.453080e+01
-2.755837e+01
-3.017973e+01
0.000000e+00
-4.568915e-01
-1.111757e+00
-2.034513e+00
-3.176439e+00
-4.506833e+00
-6.041177e+00
-7.740681e+00
-9.623815e+00
-1.167660e+01
-1.389760e+01
-1.629561e+01
-1.885203e+01
-2.154435e+01
-2.437615e+01
-2.719365e+01
-2.957583e+01
0.000000e+00
-4.485213e-01
-1.088379e+00
-2.051357e+00
-3.198067e+00
-4.531813e+00
-6.091945e+00
-7.779740e+00
-9.690690e+00
-1.174314e+01
-1.396678e+01
-1.634730e+01
-1.888529e+01
-2.153311e+01
-2.423564e+01
-2.687262e+01
-2.913890e+01
0.000000e+00
-3.887400e-01
-1.091267e+00
-2.078334e+00
-3.264850e+00
-4.614775e+00
-6.175220e+00
-7.895593e+00
-9.796285e+00
-1.185779e+01
-1.405308e+01
-1.641453e+01
-1.892388e+01
-2.153268e+01
-2.415148e+01
-2.666408e+01
-2.890682e+01
0.000000e+00
-4.142432e-01
-1.192802e+00
-2.181439e+00
-3.384632e+00
-4.743393e+00
-6.302408e+00
-8.039734e+00
-9.934010e+00
-1.199390e+01
-1.416946e+01
-1.651435e+01
-1.899732e+01
-2.157351e+01
-2.413213e+01
-2.657555e+01
-2.884713e+01
0.000000e+00
-6.175567e-01
-1.361707e+00
-2.368553e+00
-3.554586e+00
-4.918099e+00
-6.481043e+00
-8.206262e+00
-1.010568e+01
-1.214912e+01
-1.432745e+01
-1.666149e+01
-1.911825e+01
-2.165322e+01
-2.415804e+01
-2.656011e+01
-2.884606e+01


0.000000e+00
1.533851e-05
2.484419e-05
3.693132e-05
5.252497e-05
6.551449e-05
8.114633e-05
9.521134e-05
1.104859e-04
1.249870e-04
1.407206e-04
1.554072e-04
1.720613e-04
1.878615e-04
1.978013e-04
2.034605e-04
2.103649e-04
0.000000e+00
1.149224e-05
1.982999e-05
2.863265e-05
4.137485e-05
5.230752e-05
6.275151e-05
7.414378e-05
8.432128e-05
9.534709e-05
1.056019e-04
1.157175e-04
1.264500e-04
1.357559e-04
1.373260e-04
1.410521e-04
1.468735e-04
0.000000e+00
9.740462e-06
1.555651e-05
2.132896e-05
3.077920e-05
3.818528e-05
4.448123e-05
5.217294e-05
5.793911e-05
6.451491e-05
6.974773e-05
7.452864e-05
7.872801e-05
8.068250e-05
7.989971e-05
8.226903e-05
8.653194e-05
0.000000e+00
5.429227e-06
7.461607e-06
1.103042e-05
1.568188e-05
1.780684e-05
2.187772e-05
2.403511e-05
2.689136e-05
2.803886e-05
2.979600e-05
2.949933e-05
2.828233e-05
2.662679e-05
2.637825e-05
2.949575e-05
3.520172e-05
0.000000e+00
-1.070992e-07
-2.699916e-07
-4.885038e-07
-8.056951e-07
-1.252387e-06
-1.883619e-06
-2.935393e-06
-4.519309e-06
-6.778316e-06
-9.114249e-06
-1.245237e-05
-1.532245e-05
-1.672206e-05
-1.627570e-05
-1.404221e-05
-1.002579e-05
0.000000e+00
-5.579695e-06
-7.831983e-06
-1.181408e-05
-1.696096e-05
-1.969838e-05
-2.478790e-05
-2.753541e-05
-3.296491e-05
-3.632747e-05
-3.946242e-05
-4.303658e-05
-4.780675e-05
-4.944546e-05
-4.992761e-05
-5.036758e-05
-4.864688e-05
0.000000e+00
-9.688418e-06
-1.557050e-05
-2.154960e-05
-3.121198e-05
-3.898648e-05
-4.528546e-05
-5.306850e-05
-5.910698e-05
-6.556929e-05
-6.985138e-05
-7.418761e-05
-7.826235e-05
-8.183205e-05
-8.365954e-05
-8.557307e-05
-8.631043e-05
0.000000e+00
-1.140834e-05
-1.972888e-05
-2.855075e-05
-4.125544e-05
-5.230526e-05
-6.259939e-05
-7.407434e-05
-8.413312e-05
-9.473533e-05
-1.050007e-04
-1.135100e-04
-1.184127e-04
-1.234865e-04
-1.270974e-04
-1.284002e-04
-1.284907e-04
0.000000e+00
-1.537703e-05
-2.482025e-05
-3.677054e-05
-5.212207e-05
-6.487572e-05
-8.038022e-05
-9.419862e-05
-1.095177e-04
-1.230501e-04
-1.407225e-04
-1.566238e-04
-1.665974e-04
-1.717763e-04
-1.740026e-04
-1.742621e-04
-1.740882e-04
0.000000e+00
1.263473e-05
1.991718e-05
3.200168e-05
4.741891e-05
6.379584e-05
8.540513e-05
1.105763e-04
1.403246e-04
1.747451e-04
2.141118e-04
2.582990e-04
3.087378e-04
3.633738e-04
4.252104e-04
4.961823e-04
5.696853e-04
0.000000e+00
7.720232e-06
1.602884e-05
2.591655e-05
4.101986e-05
5.791385e-05
7.894672e-05
1.045601e-04
1.339727e-04
1.686423e-04
2.078522e-04
2.521937e-04
3.022406e-04
3.584917e-04
4.200001e-04
4.888095e-04
5.593300e-04
0.000000e+00
4.275885e-06
1.206216e-05
2.110855e-05
3.517137e-05
5.297807e-05
7.387208e-05
9.960589e-05
1.292219e-04
1.641102e-04
2.036651e-04
2.480487e-04
2.987322e-04
3.562726e-04
4.159154e-04
4.813129e-04
5.495842e-04
0.000000e+00
2.952098e-06
1.000292e-05
1.900552e-05
3.305050e-05
5.077748e-05
7.207502e-05
9.739282e-05
1.275540e-04
1.626570e-04
2.024290e-04
2.470532e-04
2.984335e-04
3.550966e-04
4.132774e-04
4.734682e-04
5.353122e-04
0.000000e+00
2.453689e-06
9.451288e-06
1.858098e-05
3.258467e-05
5.031624e-05
7.157332e-05
9.648470e-05
1.269164e-04
1.629523e-04
2.016304e-04
2.473700e-04
2.989682e-04
3.554060e-04
4.121007e-04
4.670924e-04
5.191390e-04
0.000000e+00
3.070499e-06
1.015064e-05
1.921461e-05
3.322952e-05
5.087119e-05
7.212029e-05
9.647076e-05
1.276220e-04
1.635556e-04
2.022491e-04
2.486619e-04
3.014136e-04
3.557548e-04
4.118896e-04
4.647258e-04
5.080652e-04
0.000000e+00
4.419175e-06
1.229878e-05
2.145580e-05
3.537609e-05
5.305609e-05
7.348211e-05
9.874301e-05
1.290760e-04
1.648267e-04
2.040095e-04
2.516689e-04
3.047738e-04
3.577678e-04
4.109105e-04
4.619125e-04
5.045792e-04
0.000000e+00
7.839756e-06
1.630710e-05
2.630273e-05
4.131891e-05
5.795055e-05
7.858681e-05
1.039538e-04
1.336315e-04
1.684939e-04
2.080982e-04
2.554131e-04
3.076405e-04
3.598844e-04
4.110582e-04
4.598666e-04
5.050289e-04
0.000000e+00
1.274283e-05
2.019543e-05
3.238093e-05
4.772982e-05
6.385812e-05
8.514144e-05
1.101219e-04
1.399140e-04
1.742477e-04
2.150826e-04
2.598524e-04
3.099180e-04
3.609841e-04
4.114172e-04
4.593735e-04
5.052904e-04


5.684541e+00
6.143642e+00
6.869103e+00
5.953618e+00
5.828769e+00
6.756891e+00
6.627226e+00
6.640920e+00
6.089825e+00
5.944965e+00
6.269199e+00
7.149208e+00
8.857539e+00
9.833549e+00
9.151753e+00
8.004053e+00
8.088226e+00
8.463744e+00
8.663285e+00
8.359021e+00
8.282620e+00
8.580057e+00
8.771489e+00
8.503851e+00
8.464125e+00
8.276790e+00
8.416259e+00
8.839820e+00
9.514748e+00
9.843818e+00
8.392856e+00
6.481766e+00
9.844390e+00
9.824333e+00
1.000000e+01
9.838451e+00
9.836675e+00
9.981845e+00
9.836247e+00
9.961257e+00
9.849073e+00
9.885456e+00
9.895269e+00
9.878749e+00
9.895409e+00
9.381370e+00
7.968049e+00
6.171788e+00
1.000000e+01
1.000000e+01
1.000000e+01
1.000000e+01
1.000000e+01
1.000000e+01
1.000000e+01
1.000000e+01
1.000000e+01
9.999999e+00
9.999998e+00
9.515563e+00
8.793070e+00
8.389278e+00
7.961346e+00
7.878049e+00
1.000000e+01
1.000000e+01
1.000000e+01
1.000000e+01
1.000000e+01
1.000000e+01
9.999999e+00
9.999999e+00
9.999997e+00
9.916676e+00
9.476413e+00
8.525361e+00
7.478884e+00
7.554047e+00
8.671320e+00
9.150748e+00
9.845644e+00
9.824291e+00
1.000000e+01
9.838491e+00
9.836395e+00
9.994691e+00
9.835726e+00
9.999398e+00
9.517880e+00
8.914425e+00
8.373411e+00
7.806558e+00
7.678022e+00
8.433743e+00
9.409814e+00
9.999992e+00
8.095715e+00
8.467213e+00
8.663283e+00
8.358153e+00
8.332490e+00
8.655381e+00
8.972420e+00
8.634806e+00
8.407461e+00
7.647513e+00
7.735315e+00
8.361776e+00
8.995621e+00
9.586395e+00
9.999997e+00
9.999999e+00
5.703075e+00
6.150778e+00
6.869969e+00
5.969512e+00
5.929993e+00
6.996748e+00
7.033848e+00
7.355348e+00
6.978257e+00
7.326441e+00
8.260584e+00
9.196059e+00
9.894196e+00
9.999999e+00
1.000000e+01
1.000000e+01


-8.206957e-01
-1.671311e-01
-3.987572e-01
-2.595534e-01
-9.220836e-02
-3.072051e-01
-1.217344e-01
-2.095090e-01
-1.592668e-01
-1.602524e-01
-2.084672e-01
-1.493619e-01
-4.667657e-01
-6.792452e-01
3.180763e-01
-8.469579e-01
6.111958e-01
4.824425e-01
2.957529e-01
2.258743e-01
2.909101e-01
1.670121e-01
1.719164e-01
1.717156e-01
1.066916e-01
1.468406e-01
1.269131e-01
2.417143e-01
3.004201e-01
5.137884e-01
6.984382e-01
-9.442897e-01
7.225632e-01
4.712839e-01
5.526607e-02
-2.435146e-02
-3.899002e-02
-1.979679e-01
-9.098432e-02
-1.481500e-01
-7.719491e-02
-1.823170e-02
3.330292e-02
1.860880e-01
2.873923e-01
1.581207e-01
-1.395247e-02
-1.727235e-01
7.272413e-01
5.551035e-01
1.893835e-01
5.750263e-02
-2.430116e-02
-1.125466e-01
-2.652057e-02
-7.298973e-02
1.420599e-02
2.725290e-02
5.552990e-02
1.037928e-01
6.177751e-02
-2.688037e-01
-3.887716e-01
-7.225127e-02
7.299603e-01
5.587320e-01
1.953382e-01
5.927364e-02
-2.631287e-02
-1.283702e-01
-4.670257e-02
-1.093702e-01
-4.035153e-02
-3.886802e-02
-1.803032e-02
-2.320527e-02
-3.203645e-02
-1.362319e-01
-1.332952e-01
3.078573e-01
7.288455e-01
4.814139e-01
7.173648e-02
-1.317002e-02
-4.240356e-02
-2.312531e-01
-1.600771e-01
-2.610413e-01
-1.807532e-01
-7.005687e-02
-8.232266e-02
-1.161795e-01
-7.488619e-02
7.196236e-02
3.212314e-01
7.245915e-01
6.143653e-01
4.889800e-01
3.050216e-01
2.367766e-01
2.974101e-01
1.640988e-01
1.301016e-01
8.286054e-02
-6.432681e-02
-1.913376e-02
-8.668262e-02
-4.867889e-02
9.517198e-02
3.983041e-01
7.140523e-01
9.484223e-01
-8.261227e-01
-1.707891e-01
-4.082385e-01
-2.692250e-01
-9.733842e-02
-3.057047e-01
-1.035074e-01
-1.413146e-01
-4.990802e-02
-4.315645e-02
-9.381541e-02
1.144557e-01
4.083329e-01
7.767244e-01
9.524451e-01
9.987226e-01
1 2 19 18
2 3 20 19
3 4 21 20
4 5 22 21
5 6 23 22
6 7 24 23
7 8 25 24
8 9 26 25
9 10 27 26
10 11 28 27
11 12 29 28
12 13 30 29
13 14 31 30
14 15 32 31
15 16 33 32
16 17 34 33
18 19 36 35
19 20 37 36
20 21 38 37
21 22 39 38
22 23 40 39
23 24 41 40
24 25 42 41
25 26 43 42
26 27 44 43
27 28 45 44
28 29 46 45
29 30 47 46
30 31 48 47
31 32 49 48
32 33 50 49
33 34 51 50
35 36 53 52
36 37 54 53
37 38 55 54
38 39 56 55
39 40 57 56
40 41 58 57
41 42 59 58
42 43 60 59
43 44 61 60
44 45 62 61
45 46 63 62
46 47 64 63
47 48 65 64
48 49 66 65
49 50 67 66
50 51 68 67
52 53 70 69
53 54 71 70
54 55 72 71
55 56 73 72
56 57 74 73
57 58 75 74
58 59 76 75
59 60 77 76
60 61 78 77
61 62 79 78
62 63 80 79
63 64 81 80
64 65 82 81
65 66 83 82
66 67 84 83
67 68 85 84
69 70 87 86
70 71 88 87
71 72 89 88
72 73 90 89
73 74 91 90
74 75 92 91
75 76 93 92
76 77 94 93
77 78 95 94
78 79 96 95
79 80 97 96
80 81 98 97
81 82 99 98
82 83 100 99
83 84 101 100
84 85 102 101
86 87 104 103
87 88 105 104
88 89 106 105
89 90 107 106
90 91 108 107
91 92 109 108
92 93 110 109
93 94 111 110
94 95 112 111
95 96 113 112
96 97 114 113
97 98 115 114
98 99 116 115
99 100 117 116
100 101 118 117
101 102 119 118
103 104 121 120
104 105 122 121
105 106 123 122
106 107 124 123
107 108 125 124
108 109 126 125
109 110 127 126
110 111 128 127
111 112 129 128
112 113 130 129
113 114 131 130
114 115 132 131
115 116 133 132
116 117 134 133
117 118 135 134
118 119 136 135
120 121 138 137
121 122 139 138
122 123 140 139
123 124 141 140
124 125 142 141
125 126 143 142
126 127 144 143
127 128 145 144
128 129 146 145
129 130 147 146
130 131 148 147
131 132 149 148
132 133 150 149
133 134 151 150
134 135 152 151
135 136 153 152
