TITLE = "Solution"
VARIABLES = x, y, u, v, psiu, psiv, t, stress
ZONE T="structure" N=561 E=512 F=FEBLOCK ET=QUADRILATERAL VARLOCATION=([7,8]=cellcentered)
0.000000e+00
6.250000e+00
1.250000e+01
1.875000e+01
2.500000e+01
3.125000e+01
3.750000e+01
4.375000e+01
5.000000e+01
5.625000e+01
6.250000e+01
6.875000e+01
7.500000e+01
8.125000e+01
8.750000e+01
9.375000e+01
1.000000e+02
1.062500e+02
1.125000e+02
1.187500e+02
1.250000e+02
1.312500e+02
1.375000e+02
1.437500e+02
1.500000e+02
1.562500e+02
1.625000e+02
1.687500e+02
1.750000e+02
1.812500e+02
1.875000e+02
1.937500e+02
2.000000e+02
0.000000e+00
6.250000e+00
1.250000e+01
1.875000e+01
2.500000e+01
3.125000e+01
3.750000e+01
4.375000e+01
5.000000e+01
5.625000e+01
6.250000e+01
6.875000e+01
7.500000e+01
8.125000e+01
8.750000e+01
9.375000e+01
1.000000e+02
1.062500e+02
1.125000e+02
1.187500e+02
1.250000e+02
1.312500e+02
1.375000e+02
1.437500e+02
1.500000e+02
1.562500e+02
1.625000e+02
1.687500e+02
1.750000e+02
1.812500e+02
1.875000e+02
1.937500e+02
2.000000e+02
0.000000e+00
6.250000e+00
1.250000e+01
1.875000e+01
2.500000e+01
3.125000e+01
3.750000e+01
4.375000e+01
5.000000e+01
5.625000e+01
6.250000e+01
6.875000e+01
7.500000e+01
8.125000e+01
8.750000e+01
9.375000e+01
1.000000e+02
1.062500e+02
1.125000e+02
1.187500e+02
1.250000e+02
1.312500e+02
1.375000e+02
1.437500e+02
1.500000e+02
1.562500e+02
1.625000e+02
1.687500e+02
1.750000e+02
1.812500e+02
1.875000e+02
1.937500e+02
2.000000e+02
0.000000e+00
6.250000e+00
1.250000e+01
1.875000e+01
2.500000e+01
3.125000e+01
3.750000e+01
4.375000e+01
5.000000e+01
5.625000e+01
6.250000e+01
6.875000e+01
7.500000e+01
8.125000e+01
8.750000e+01
9.375000e+01
1.000000e+02
1.062500e+02
1.125000e+02
1.187500e+02
1.250000e+02
1.312500e+02
1.375000e+02
1.437500e+02
1.500000e+02
1.562500e+02
1.625000e+02
1.687500e+02
1.750000e+02
1.812500e+02
1.875000e+02
1.937500e+02
2.000000e+02
0.000000e+00
6.250000e+00
1.250000e+01
1.875000e+01
2.500000e+01
3.125000e+01
3.750000e+01
4.375000e+01
5.000000e+01
5.625000e+01
6.250000e+01
6.875000e+01
7.500000e+01
8.125000e+01
8.750000e+01
9.375000e+01
1.000000e+02
1.062500e+02
1.125000e+02
1.187500e+02
1.250000e+02
1.312500e+02
1.375000e+02
1.437500e+02
1.500000e+02
1.562500e+02
1.625000e+02
1.687500e+02
1.750000e+02
1.812500e+02
1.875000e+02
1.937500e+02
2.000000e+02
0.000000e+00
6.250000e+00
1.250000e+01
1.875000e+01
2.500000e+01
3.125000e+01
3.750000e+01
4.375000e+01
5.000000e+01
5.625000e+01
6.250000e+01
6.875000e+01
7.500000e+01
8.125000e+01
8.750000e+01
9.375000e+01
1.000000e+02
1.062500e+02
1.125000e+02
1.187500e+02
1.250000e+02
1.312500e+02
1.375000e+02
1.437500e+02
1.500000e+02
1.562500e+02
1.625000e+02
1.687500e+02
1.750000e+02
1.812500e+02
1.875000e+02
1.937500e+02
2.000000e+02
0.000000e+00
6.250000e+00
1.250000e+01
1.875000e+01
2.500000e+01
3.125000e+01
3.750000e+01
4.375000e+01
5.000000e+01
5.625000e+01
6.250000e+01
6.875000e+01
7.500000e+01
8.125000e+01
8.750000e+01
9.375000e+01
1.000000e+02
1.062500e+02
1.125000e+02
1.187500e+02
1.250000e+02
1.312500e+02
1.375000e+02
1.437500e+02
1.500000e+02
1.562500e+02
1.625000e+02
1.687500e+02
1.750000e+02
1.812500e+02
1.875000e+02
1.937500e+02
2.000000e+02
0.000000e+00
6.250000e+00
1.250000e+01
1.875000e+01
2.500000e+01
3.125000e+01
3.750000e+01
4.375000e+01
5.000000e+01
5.625000e+01
6.250000e+01
6.875000e+01
7.500000e+01
8.125000e+01
8.750000e+01
9.375000e+01
1.000000e+02
1.062500e+02
1.125000e+02
1.187500e+02
1.250000e+02
1.312500e+02
1.375000e+02
1.437500e+02
1.500000e+02
1.562500e+02
1.625000e+02
1.687500e+02
1.750000e+02
1.812500e+02
1.875000e+02
1.937500e+02
2.000000e+02
0.000000e+00
6.250000e+00
1.250000e+01
1.875000e+01
2.500000e+01
3.125000e+01
3.750000e+01
4.375000e+01
5.000000e+01
5.625000e+01
6.250000e+01
6.875000e+01
7.500000e+01
8.125000e+01
8.750000e+01
9.375000e+01
1.000000e+02
1.062500e+02
1.125000e+02
1.187500e+02
1.250000e+02
1.312500e+02
1.375000e+02
1.437500e+02
1.500000e+02
1.562500e+02
1.625000e+02
1.687500e+02
1.750000e+02
1.812500e+02
1.875000e+02
1.937500e+02
2.000000e+02
0.000000e+00
6.250000e+00
1.250000e+01
1.875000e+01
2.500000e+01
3.125000e+01
3.750000e+01
4.375000e+01
5.000000e+01
5.625000e+01
6.250000e+01
6.875000e+01
7.500000e+01
8.125000e+01
8.750000e+01
9.375000e+01
1.000000e+02
1.062500e+02
1.125000e+02
1.187500e+02
1.250000e+02
1.312500e+02
1.375000e+02
1.437500e+02
1.500000e+02
1.562500e+02
1.625000e+02
1.687500e+02
1.750000e+02
1.812500e+02
1.875000e+02
1.937500e+02
2.000000e+02
0.000000e+00
6.250000e+00
1.250000e+01
1.875000e+01
2.500000e+01
3.125000e+01
3.750000e+01
4.375000e+01
5.000000e+01
5.625000e+01
6.250000e+01
6.875000e+01
7.500000e+01
8.125000e+01
8.750000e+01
9.375000e+01
1.000000e+02
1.062500e+02
1.125000e+02
1.187500e+02
1.250000e+02
1.312500e+02
1.375000e+02
1.437500e+02
1.500000e+02
1.562500e+02
1.625000e+02
1.687500e+02
1.750000e+02
1.812500e+02
1.875000e+02
1.937500e+02
2.000000e+02
0.000000e+00
6.250000e+00
1.250000e+01
1.875000e+01
2.500000e+01
3.125000e+01
3.750000e+01
4.375000e+01
5.000000e+01
5.625000e+01
6.250000e+01
6.875000e+01
7.500000e+01
8.125000e+01
8.750000e+01
9.375000e+01
1.000000e+02
1.062500e+02
1.125000e+02
1.187500e+02
1.250000e+02
1.312500e+02
1.375000e+02
1.437500e+02
1.500000e+02
1.562500e+02
1.625000e+02
1.687500e+02
1.750000e+02
1.812500e+02
1.875000e+02
1.937500e+02
2.000000e+02
0.000000e+00
6.250000e+00
1.250000e+01
1.875000e+01
2.500000e+01
3.125000e+01
3.750000e+01
4.375000e+01
5.000000e+01
5.625000e+01
6.250000e+01
6.875000e+01
7.500000e+01
8.125000e+01
8.750000e+01
9.375000e+01
1.000000e+02
1.062500e+02
1.125000e+02
1.187500e+02
1.250000e+02
1.312500e+02
1.375000e+02
1.437500e+02
1.500000e+02
1.562500e+02
1.625000e+02
1.687500e+02
1.750000e+02
1.812500e+02
1.875000e+02
1.937500e+02
2.000000e+02
0.000000e+00
6.250000e+00
1.250000e+01
1.875000e+01
2.500000e+01
3.125000e+01
3.750000e+01
4.375000e+01
5.000000e+01
5.625000e+01
6.250000e+01
6.875000e+01
7.500000e+01
8.125000e+01
8.750000e+01
9.375000e+01
1.000000e+02
1.062500e+02
1.125000e+02
1.187500e+02
1.250000e+02
1.312500e+02
1.375000e+02
1.437500e+02
1.500000e+02
1.562500e+02
1.625000e+02
1.687500e+02
1.750000e+02
1.812500e+02
1.875000e+02
1.937500e+02
2.000000e+02
0.000000e+00
6.250000e+00
1.250000e+01
1.875000e+01
2.500000e+01
3.125000e+01
3.750000e+01
4.375000e+01
5.000000e+01
5.625000e+01
6.250000e+01
6.875000e+01
7.500000e+01
8.125000e+01
8.750000e+01
9.375000e+01
1.000000e+02
1.062500e+02
1.125000e+02
1.187500e+02
1.250000e+02
1.312500e+02
1.375000e+02
1.437500e+02
1.500000e+02
1.562500e+02
1.625000e+02
1.687500e+02
1.750000e+02
1.812500e+02
1.875000e+02
1.937500e+02
2.000000e+02
0.000000e+00
6.250000e+00
1.250000e+01
1.875000e+01
2.500000e+01
3.125000e+01
3.750000e+01
4.375000e+01
5.000000e+01
5.625000e+01
6.250000e+01
6.875000e+01
7.500000e+01
8.125000e+01
8.750000e+01
9.375000e+01
1.000000e+02
1.062500e+02
1.125000e+02
1.187500e+02
1.250000e+02
1.312500e+02
1.375000e+02
1.437500e+02
1.500000e+02
1.562500e+02
1.625000e+02
1.687500e+02
1.750000e+02
1.812500e+02
1.875000e+02
1.937500e+02
2.000000e+02
0.000000e+00
6.250000e+00
1.250000e+01
1.875000e+01
2.500000e+01
3.125000e+01
3.750000e+01
4.375000e+01
5.000000e+01
5.625000e+01
6.250000e+01
6.875000e+01
7.500000e+01
8.125000e+01
8.750000e+01
9.375000e+01
1.000000e+02
1.062500e+02
1.125000e+02
1.187500e+02
1.250000e+02
1.312500e+02
1.375000e+02
1.437500e+02
1.500000e+02
1.562500e+02
1.625000e+02
1.687500e+02
1.750000e+02
1.812500e+02
1.875000e+02
1.937500e+02
2.000000e+02
0.000000e+00
0.000000e+00
0.000000e+00
0.000000e+00
0.000000e+00
0.000000e+00
0.000000e+00
0.000000e+00
0.000000e+00
0.000000e+00
0.000000e+00
0.000000e+00
0.000000e+00
0.000000e+00
0.000000e+00
0.000000e+00
0.000000e+00
0.000000e+00
0.000000e+00
0.000000e+00
0.000000e+00
0.000000e+00
0.000000e+00
0.000000e+00
0.000000e+00
0.000000e+00
0.000000e+00
0.000000e+00
0.000000e+00
0.000000e+00
0.000000e+00
0.000000e+00
0.000000e+00
6.250000e+00
6.250000e+00
6.250000e+00
6.250000e+00
6.250000e+00
6.250000e+00
6.250000e+00
6.250000e+00
6.250000e+00
6.250000e+00
6.250000e+00
6.250000e+00
6.250000e+00
6.250000e+00
6.250000e+00
6.250000e+00
6.250000e+00
6.250000e+00
6.250000e+00
6.250000e+00
6.250000e+00
6.250000e+00
6.250000e+00
6.250000e+00
6.250000e+00
6.250000e+00
6.250000e+00
6.250000e+00
6.250000e+00
6.250000e+00
6.250000e+00
6.250000e+00
6.250000e+00
1.250000e+01
1.250000e+01
1.250000e+01
1.250000e+01
1.250000e+01
1.250000e+01
1.250000e+01
1.250000e+01
1.250000e+01
1.250000e+01
1.250000e+01
1.250000e+01
1.250000e+01
1.250000e+01
1.250000e+01
1.250000e+01
1.250000e+01
1.250000e+01
1.250000e+01
1.250000e+01
1.250000e+01
1.250000e+01
1.250000e+01
1.250000e+01
1.250000e+01
1.250000e+01
1.250000e+01
1.250000e+01
1.250000e+01
1.250000e+01
1.250000e+01
1.250000e+01
1.250000e+01
1.875000e+01
1.875000e+01
1.875000e+01
1.875000e+01
1.875000e+01
1.875000e+01
1.875000e+01
1.875000e+01
1.875000e+01
1.875000e+01
1.875000e+01
1.875000e+01
1.875000e+01
1.875000e+01
1.875000e+01
1.875000e+01
1.875000e+01
1.875000e+01
1.875000e+01
1.875000e+01
1.875000e+01
1.875000e+01
1.875000e+01
1.875000e+01
1.875000e+01
1.875000e+01
1.875000e+01
1.875000e+01
1.875000e+01
1.875000e+01
1.875000e+01
1.875000e+01
1.875000e+01
2.500000e+01
2.500000e+01
2.500000e+01
2.500000e+01
2.500000e+01
2.500000e+01
2.500000e+01
2.500000e+01
2.500000e+01
2.500000e+01
2.500000e+01
2.500000e+01
2.500000e+01
2.500000e+01
2.500000e+01
2.500000e+01
2.500000e+01
2.500000e+01
2.500000e+01
2.500000e+01
2.500000e+01
2.500000e+01
2.500000e+01
2.500000e+01
2.500000e+01
2.500000e+01
2.500000e+01
2.500000e+01
2.500000e+01
2.500000e+01
2.500000e+01
2.500000e+01
2.500000e+01
3.125000e+01
3.125000e+01
3.125000e+01
3.125000e+01
3.125000e+01
3.125000e+01
3.125000e+01
3.125000e+01
3.125000e+01
3.125000e+01
3.125000e+01
3.125000e+01
3.125000e+01
3.125000e+01
3.125000e+01
3.125000e+01
3.125000e+01
3.125000e+01
3.125000e+01
3.125000e+01
3.125000e+01
3.125000e+01
3.125000e+01
3.125000e+01
3.125000e+01
3.125000e+01
3.125000e+01
3.125000e+01
3.125000e+01
3.125000e+01
3.125000e+01
3.125000e+01
3.125000e+01
3.750000e+01
3.750000e+01
3.750000e+01
3.750000e+01
3.750000e+01
3.750000e+01
3.750000e+01
3.750000e+01
3.750000e+01
3.750000e+01
3.750000e+01
3.750000e+01
3.750000e+01
3.750000e+01
3.750000e+01
3.750000e+01
3.750000e+01
3.750000e+01
3.750000e+01
3.750000e+01
3.750000e+01
3.750000e+01
3.750000e+01
3.750000e+01
3.750000e+01
3.750000e+01
3.750000e+01
3.750000e+01
3.750000e+01
3.750000e+01
3.750000e+01
3.750000e+01
3.750000e+01
4.375000e+01
4.375000e+01
4.375000e+01
4.375000e+01
4.375000e+01
4.375000e+01
4.375000e+01
4.375000e+01
4.375000e+01
4.375000e+01
4.375000e+01
4.375000e+01
4.375000e+01
4.375000e+01
4.375000e+01
4.375000e+01
4.375000e+01
4.375000e+01
4.375000e+01
4.375000e+01
4.375000e+01
4.375000e+01
4.375000e+01
4.375000e+01
4.375000e+01
4.375000e+01
4.375000e+01
4.375000e+01
4.375000e+01
4.375000e+01
4.375000e+01
4.375000e+01
4.375000e+01
5.000000e+01
5.000000e+01
5.000000e+01
5.000000e+01
5.000000e+01
5.000000e+01
5.000000e+01
5.000000e+01
5.000000e+01
5.000000e+01
5.000000e+01
5.000000e+01
5.000000e+01
5.000000e+01
5.000000e+01
5.000000e+01
5.000000e+01
5.000000e+01
5.000000e+01
5.000000e+01
5.000000e+01
5.000000e+01
5.000000e+01
5.000000e+01
5.000000e+01
5.000000e+01
5.000000e+01
5.000000e+01
5.000000e+01
5.000000e+01
5.000000e+01
5.000000e+01
5.000000e+01
5.625000e+01
5.625000e+01
5.625000e+01
5.625000e+01
5.625000e+01
5.625000e+01
5.625000e+01
5.625000e+01
5.625000e+01
5.625000e+01
5.625000e+01
5.625000e+01
5.625000e+01
5.625000e+01
5.625000e+01
5.625000e+01
5.625000e+01
5.625000e+01
5.625000e+01
5.625000e+01
5.625000e+01
5.625000e+01
5.625000e+01
5.625000e+01
5.625000e+01
5.625000e+01
5.625000e+01
5.625000e+01
5.625000e+01
5.625000e+01
5.625000e+01
5.625000e+01
5.625000e+01
6.250000e+01
6.250000e+01
6.250000e+01
6.250000e+01
6.250000e+01
6.250000e+01
6.250000e+01
6.250000e+01
6.250000e+01
6.250000e+01
6.250000e+01
6.250000e+01
6.250000e+01
6.250000e+01
6.250000e+01
6.250000e+01
6.250000e+01
6.250000e+01
6.250000e+01
6.250000e+01
6.250000e+01
6.250000e+01
6.250000e+01
6.250000e+01
6.250000e+01
6.250000e+01
6.250000e+01
6.250000e+01
6.250000e+01
6.250000e+01
6.250000e+01
6.250000e+01
6.250000e+01
6.875000e+01
6.875000e+01
6.875000e+01
6.875000e+01
6.875000e+01
6.875000e+01
6.875000e+01
6.875000e+01
6.875000e+01
6.875000e+01
6.875000e+01
6.875000e+01
6.875000e+01
6.875000e+01
6.875000e+01
6.875000e+01
6.875000e+01
6.875000e+01
6.875000e+01
6.875000e+01
6.875000e+01
6.875000e+01
6.875000e+01
6.875000e+01
6.875000e+01
6.875000e+01
6.875000e+01
6.875000e+01
6.875000e+01
6.875000e+01
6.875000e+01
6.875000e+01
6.875000e+01
7.500000e+01
7.500000e+01
7.500000e+01
7.500000e+01
7.500000e+01
7.500000e+01
7.500000e+01
7.500000e+01
7.500000e+01
7.500000e+01
7.500000e+01
7.500000e+01
7.500000e+01
7.500000e+01
7.500000e+01
7.500000e+01
7.500000e+01
7.500000e+01
7.500000e+01
7.500000e+01
7.500000e+01
7.500000e+01
7.500000e+01
7.500000e+01
7.500000e+01
7.500000e+01
7.500000e+01
7.500000e+01
7.500000e+01
7.500000e+01
7.500000e+01
7.500000e+01
7.500000e+01
8.125000e+01
8.125000e+01
8.125000e+01
8.125000e+01
8.125000e+01
8.125000e+01
8.125000e+01
8.125000e+01
8.125000e+01
8.125000e+01
8.125000e+01
8.125000e+01
8.125000e+01
8.125000e+01
8.125000e+01
8.125000e+01
8.125000e+01
8.125000e+01
8.125000e+01
8.125000e+01
8.125000e+01
8.125000e+01
8.125000e+01
8.125000e+01
8.125000e+01
8.125000e+01
8.125000e+01
8.125000e+01
8.125000e+01
8.125000e+01
8.125000e+01
8.125000e+01
8.125000e+01
8.750000e+01
8.750000e+01
8.750000e+01
8.750000e+01
8.750000e+01
8.750000e+01
8.750000e+01
8.750000e+01
8.750000e+01
8.750000e+01
8.750000e+01
8.750000e+01
8.750000e+01
8.750000e+01
8.750000e+01
8.750000e+01
8.750000e+01
8.750000e+01
8.750000e+01
8.750000e+01
8.750000e+01
8.750000e+01
8.750000e+01
8.750000e+01
8.750000e+01
8.750000e+01
8.750000e+01
8.750000e+01
8.750000e+01
8.750000e+01
8.750000e+01
8.750000e+01
8.750000e+01
9.375000e+01
9.375000e+01
9.375000e+01
9.375000e+01
9.375000e+01
9.375000e+01
9.375000e+01
9.375000e+01
9.375000e+01
9.375000e+01
9.375000e+01
9.375000e+01
9.375000e+01
9.375000e+01
9.375000e+01
9.375000e+01
9.375000e+01
9.375000e+01
9.375000e+01
9.375000e+01
9.375000e+01
9.375000e+01
9.375000e+01
9.375000e+01
9.375000e+01
9.375000e+01
9.375000e+01
9.375000e+01
9.375000e+01
9.375000e+01
9.375000e+01
9.375000e+01
9.375000e+01
1.000000e+02
1.000000e+02
1.000000e+02
1.000000e+02
1.000000e+02
1.000000e+02
1.000000e+02
1.000000e+02
1.000000e+02
1.000000e+02
1.000000e+02
1.000000e+02
1.000000e+02
1.000000e+02
1.000000e+02
1.000000e+02
1.000000e+02
1.000000e+02
1.000000e+02
1.000000e+02
1.000000e+02
1.000000e+02
1.000000e+02
1.000000e+02
1.000000e+02
1.000000e+02
1.000000e+02
1.000000e+02
1.000000e+02
1.000000e+02
1.000000e+02
1.000000e+02
1.000000e+02
0.000000e+00
-4.724111e-01
-7.827986e-01
-1.122840e+00
-1.424447e+00
-1.716308e+00
-2.028369e+00
-2.315579e+00
-2.615238e+00
-2.908791e+00
-3.205859e+00
-3.505016e+00
-3.804527e+00
-4.103927e+00
-4.404236e+00
-4.704951e+00
-5.007870e+00
-5.311280e+00
-5.613888e+00
-5.916501e+00
-6.218526e+00
-6.520466e+00
-6.822721e+00
-7.119930e+00
-7.413248e+00
-7.718206e+00
-8.017336e+00
-8.348563e+00
-8.667380e+00
-9.020585e+00
-9.509954e+00
-9.926367e+00
-1.013045e+01
0.000000e+00
-2.335630e-01
-4.702021e-01
-7.357526e-01
-1.001725e+00
-1.254435e+00
-1.524366e+00
-1.784606e+00
-2.047176e+00
-2.312109e+00
-2.572688e+00
-2.837734e+00
-3.098172e+00
-3.362068e+00
-3.623404e+00
-3.885694e+00
-4.148248e+00
-4.408691e+00
-4.671862e+00
-4.931624e+00
-5.194212e+00
-5.454320e+00
-5.715887e+00
-5.976181e+00
-6.237249e+00
-6.498464e+00
-6.757791e+00
-7.022090e+00
-7.276322e+00
-7.533122e+00
-7.787716e+00
-7.888910e+00
-7.994728e+00
0.000000e+00
-1.027479e-01
-2.375915e-01
-4.341481e-01
-6.529358e-01
-8.602061e-01
-1.085951e+00
-1.313568e+00
-1.541028e+00
-1.772621e+00
-1.996748e+00
-2.223687e+00
-2.445995e+00
-2.671163e+00
-2.894883e+00
-3.117550e+00
-3.339912e+00
-3.560024e+00
-3.783717e+00
-4.005635e+00
-4.230772e+00
-4.453968e+00
-4.678407e+00
-4.907901e+00
-5.137817e+00
-5.360889e+00
-5.573063e+00
-5.770434e+00
-5.949955e+00
-6.098912e+00
-6.186664e+00
-6.192318e+00
-6.285202e+00
0.000000e+00
-1.024738e-01
-1.858712e-01
-3.414267e-01
-4.644535e-01
-6.189042e-01
-7.959876e-01
-9.655930e-01
-1.159182e+00
-1.336763e+00
-1.521735e+00
-1.704372e+00
-1.886024e+00
-2.071974e+00
-2.255939e+00
-2.441532e+00
-2.626288e+00
-2.812880e+00
-3.002692e+00
-3.194046e+00
-3.388230e+00
-3.581817e+00
-3.776491e+00
-3.971873e+00
-4.157877e+00
-4.331778e+00
-4.481080e+00
-4.613344e+00
-4.714182e+00
-4.777700e+00
-4.792841e+00
-4.810223e+00
-4.890657e+00
0.000000e+00
-9.307546e-02
-1.846845e-01
-2.756822e-01
-3.892872e-01
-5.049907e-01
-6.372192e-01
-7.716323e-01
-9.167054e-01
-1.057690e+00
-1.203873e+00
-1.349328e+00
-1.492499e+00
-1.642408e+00
-1.784917e+00
-1.935567e+00
-2.080725e+00
-2.230245e+00
-2.379925e+00
-2.528323e+00
-2.679264e+00
-2.825285e+00
-2.970208e+00
-3.107580e+00
-3.236041e+00
-3.350096e+00
-3.447022e+00
-3.520990e+00
-3.569544e+00
-3.594023e+00
-3.597457e+00
-3.627188e+00
-3.698532e+00
0.000000e+00
-7.447130e-02
-1.459770e-01
-2.210129e-01
-3.025069e-01
-3.921072e-01
-4.869108e-01
-5.881860e-01
-6.919455e-01
-7.998266e-01
-9.072733e-01
-1.016077e+00
-1.124859e+00
-1.232816e+00
-1.342324e+00
-1.450210e+00
-1.559626e+00
-1.667572e+00
-1.775407e+00
-1.882013e+00
-1.985971e+00
-2.087047e+00
-2.181909e+00
-2.269616e+00
-2.347245e+00
-2.412921e+00
-2.464269e+00
-2.499110e+00
-2.521728e+00
-2.522157e+00
-2.517383e+00
-2.543784e+00
-2.609616e+00
0.000000e+00
-5.130369e-02
-1.020548e-01
-1.539301e-01
-2.094232e-01
-2.688099e-01
-3.322462e-01
-3.986715e-01
-4.679102e-01
-5.386078e-01
-6.103066e-01
-6.820819e-01
-7.536289e-01
-8.249865e-01
-8.957908e-01
-9.664532e-01
-1.036253e+00
-1.105217e+00
-1.172607e+00
-1.237879e+00
-1.300184e+00
-1.358104e+00
-1.410290e+00
-1.454845e+00
-1.490833e+00
-1.515985e+00
-1.530028e+00
-1.535613e+00
-1.519223e+00
-1.489157e+00
-1.477817e+00
-1.501048e+00
-1.565262e+00
0.000000e+00
-2.704646e-02
-5.394010e-02
-8.141219e-02
-1.101746e-01
-1.406758e-01
-1.727914e-01
-2.063777e-01
-2.410165e-01
-2.763800e-01
-3.119120e-01
-3.472505e-01
-3.821071e-01
-4.163113e-01
-4.498559e-01
-4.825498e-01
-5.142090e-01
-5.443790e-01
-5.727270e-01
-5.987254e-01
-6.217032e-01
-6.408501e-01
-6.548944e-01
-6.628805e-01
-6.632012e-01
-6.566646e-01
-6.408657e-01
-6.022889e-01
-5.525306e-01
-5.009141e-01
-4.737755e-01
-4.968567e-01
-5.638271e-01
0.000000e+00
-2.000530e-03
-4.049596e-03
-6.060852e-03
-7.919678e-03
-9.498751e-03
-1.073600e-02
-1.164201e-02
-1.227292e-02
-1.260740e-02
-1.253351e-02
-1.189034e-02
-1.052672e-02
-8.282308e-03
-4.915414e-03
-3.359372e-04
5.705508e-03
1.366157e-02
2.358296e-02
3.534450e-02
4.960293e-02
6.656868e-02
8.582792e-02
1.102512e-01
1.407287e-01
1.821803e-01
2.427731e-01
3.152428e-01
3.887239e-01
4.396725e-01
4.553748e-01
4.229293e-01
3.427642e-01
0.000000e+00
2.319717e-02
4.616497e-02
6.977993e-02
9.500593e-02
1.225550e-01
1.524662e-01
1.844735e-01
2.180174e-01
2.526570e-01
2.880341e-01
3.240285e-01
3.606081e-01
3.982603e-01
4.375327e-01
4.787669e-01
5.224909e-01
5.683390e-01
6.162629e-01
6.656799e-01
7.153807e-01
7.665818e-01
8.221783e-01
8.816544e-01
9.491692e-01
1.032404e+00
1.122374e+00
1.214106e+00
1.288619e+00
1.332460e+00
1.329272e+00
1.283096e+00
1.220198e+00
0.000000e+00
4.786258e-02
9.518808e-02
1.437369e-01
1.962255e-01
2.533930e-01
3.153819e-01
3.810670e-01
4.496797e-01
5.198666e-01
5.907931e-01
6.615501e-01
7.322758e-01
8.037406e-01
8.771568e-01
9.543900e-01
1.035690e+00
1.119665e+00
1.205294e+00
1.291990e+00
1.381847e+00
1.471247e+00
1.563397e+00
1.666445e+00
1.775139e+00
1.885929e+00
1.995458e+00
2.084180e+00
2.148093e+00
2.174540e+00
2.166918e+00
2.137022e+00
2.092902e+00
0.000000e+00
7.147977e-02
1.402713e-01
2.129940e-01
2.926258e-01
3.812387e-01
4.764430e-01
5.777130e-01
6.821381e-01
7.900164e-01
8.981662e-01
1.006846e+00
1.114836e+00
1.223446e+00
1.332938e+00
1.443095e+00
1.557012e+00
1.674402e+00
1.794228e+00
1.917365e+00
2.045951e+00
2.182421e+00
2.324546e+00
2.466838e+00
2.605083e+00
2.734343e+00
2.846617e+00
2.935512e+00
2.990942e+00
3.018873e+00
3.022364e+00
3.004340e+00
2.976807e+00
0.000000e+00
9.026410e-02
1.793054e-01
2.694057e-01
3.837283e-01
5.029004e-01
6.354784e-01
7.729687e-01
9.168880e-01
1.059852e+00
1.206830e+00
1.353105e+00
1.500337e+00
1.651570e+00
1.802293e+00
1.957414e+00
2.112372e+00
2.272447e+00
2.438328e+00
2.604914e+00
2.774065e+00
2.946190e+00
3.116304e+00
3.280943e+00
3.433933e+00
3.575117e+00
3.696109e+00
3.786854e+00
3.853334e+00
3.892483e+00
3.905394e+00
3.898867e+00
3.884358e+00
0.000000e+00
9.865154e-02
1.794973e-01
3.323248e-01
4.601470e-01
6.233754e-01
8.054763e-01
9.748247e-01
1.168587e+00
1.345495e+00
1.528066e+00
1.708015e+00
1.890796e+00
2.080534e+00
2.274646e+00
2.476506e+00
2.680638e+00
2.886103e+00
3.096344e+00
3.309645e+00
3.520011e+00
3.724880e+00
3.921054e+00
4.105717e+00
4.280429e+00
4.437798e+00
4.573031e+00
4.679940e+00
4.756487e+00
4.804254e+00
4.826447e+00
4.829254e+00
4.824515e+00
0.000000e+00
1.003937e-01
2.310089e-01
4.195071e-01
6.368285e-01
8.474570e-01
1.078758e+00
1.310050e+00
1.540054e+00
1.774655e+00
1.998129e+00
2.223884e+00
2.445568e+00
2.672235e+00
2.899990e+00
3.131560e+00
3.365905e+00
3.597185e+00
3.828586e+00
4.061074e+00
4.295386e+00
4.524258e+00
4.744649e+00
4.965905e+00
5.177057e+00
5.363643e+00
5.513204e+00
5.627875e+00
5.710346e+00
5.763215e+00
5.790905e+00
5.799956e+00
5.801066e+00
0.000000e+00
2.337952e-01
4.714837e-01
7.363551e-01
1.001647e+00
1.253869e+00
1.523030e+00
1.783732e+00
2.045614e+00
2.310310e+00
2.570208e+00
2.834437e+00
3.093759e+00
3.355818e+00
3.615579e+00
3.875219e+00
4.135286e+00
4.392654e+00
4.650521e+00
4.904359e+00
5.159785e+00
5.413064e+00
5.666330e+00
5.924922e+00
6.169116e+00
6.369994e+00
6.527476e+00
6.644266e+00
6.724448e+00
6.773644e+00
6.798782e+00
6.807887e+00
6.810124e+00
0.000000e+00
4.735715e-01
7.901813e-01
1.135602e+00
1.440121e+00
1.729662e+00
2.037762e+00
2.322423e+00
2.618935e+00
2.910003e+00
3.205732e+00
3.505386e+00
3.802920e+00
4.100291e+00
4.393967e+00
4.685029e+00
4.972228e+00
5.261264e+00
5.551830e+00
5.839702e+00
6.127503e+00
6.415340e+00
6.707323e+00
7.000097e+00
7.265820e+00
7.476637e+00
7.634775e+00
7.743630e+00
7.808481e+00
7.837595e+00
7.842689e+00
7.838072e+00
7.835519e+00
0.000000e+00
-2.792757e-01
-5.897853e-01
-9.869130e-01
-1.419404e+00
-1.889253e+00
-2.399749e+00
-2.940887e+00
-3.517510e+00
-4.125510e+00
-4.767395e+00
-5.445289e+00
-6.159721e+00
-6.912255e+00
-7.701605e+00
-8.529460e+00
-9.395683e+00
-1.030222e+01
-1.124878e+01
-1.223500e+01
-1.326134e+01
-1.432734e+01
-1.543481e+01
-1.658195e+01
-1.776655e+01
-1.899026e+01
-2.025737e+01
-2.157855e+01
-2.296025e+01
-2.442300e+01
-2.598381e+01
-2.779182e+01
-3.032900e+01
0.000000e+00
-1.802460e-01
-5.093419e-01
-8.991540e-01
-1.338497e+00
-1.804810e+00
-2.315186e+00
-2.858478e+00
-3.433310e+00
-4.042393e+00
-4.683230e+00
-5.361444e+00
-6.075614e+00
-6.828379e+00
-7.617723e+00
-8.445296e+00
-9.311619e+00
-1.021783e+01
-1.116481e+01
-1.215079e+01
-1.317733e+01
-1.424297e+01
-1.535055e+01
-1.649853e+01
-1.768281e+01
-1.890609e+01
-2.017164e+01
-2.149118e+01
-2.287447e+01
-2.432808e+01
-2.590820e+01
-2.770345e+01
-2.995425e+01
0.000000e+00
-1.593718e-01
-4.502028e-01
-8.426823e-01
-1.271950e+00
-1.735911e+00
-2.244290e+00
-2.785333e+00
-3.361612e+00
-3.969415e+00
-4.611448e+00
-5.289744e+00
-6.004081e+00
-6.756933e+00
-7.546889e+00
-8.374550e+00
-9.241483e+00
-1.014728e+01
-1.109424e+01
-1.208004e+01
-1.310636e+01
-1.417176e+01
-1.527764e+01
-1.642509e+01
-1.761036e+01
-1.883645e+01
-2.010389e+01
-2.142855e+01
-2.281561e+01
-2.428968e+01
-2.591275e+01
-2.759737e+01
-2.934563e+01
0.000000e+00
-2.048362e-01
-4.502431e-01
-8.393421e-01
-1.237360e+00
-1.690209e+00
-2.197105e+00
-2.724961e+00
-3.307875e+00
-3.909788e+00
-4.554897e+00
-5.233626e+00
-5.945979e+00
-6.701911e+00
-7.489141e+00
-8.320175e+00
-9.185420e+00
-1.009171e+01
-1.103830e+01
-1.202270e+01
-1.305013e+01
-1.411402e+01
-1.521915e+01
-1.636625e+01
-1.755405e+01
-1.878634e+01
-2.005992e+01
-2.139174e+01
-2.278752e+01
-2.428127e+01
-2.589689e+01
-2.744664e+01
-2.884582e+01
0.000000e+00
-2.208967e-01
-4.891378e-01
-8.344826e-01
-1.235150e+00
-1.670698e+00
-2.167901e+00
-2.690077e+00
-3.267877e+00
-3.869843e+00
-4.513852e+00
-5.194620e+00
-5.905149e+00
-6.664079e+00
-7.448942e+00
-8.282545e+00
-9.146660e+00
-1.005319e+01
-1.099974e+01
-1.198301e+01
-1.301110e+01
-1.407461e+01
-1.518122e+01
-1.632902e+01
-1.752053e+01
-1.875617e+01
-2.003797e+01
-2.137328e+01
-2.277163e+01
-2.426137e+01
-2.579645e+01
-2.724569e+01
-2.851294e+01
0.000000e+00
-2.277992e-01
-5.055936e-01
-8.404631e-01
-1.228507e+00
-1.663865e+00
-2.146260e+00
-2.670957e+00
-3.238141e+00
-3.843042e+00
-4.485175e+00
-5.164914e+00
-5.880141e+00
-6.634286e+00
-7.424954e+00
-8.254354e+00
-9.121875e+00
-1.002803e+01
-1.097449e+01
-1.196035e+01
-1.298727e+01
-1.405434e+01
-1.516252e+01
-1.631311e+01
-1.750673e+01
-1.874431e+01
-2.002870e+01
-2.136337e+01
-2.275087e+01
-2.420033e+01
-2.564156e+01
-2.700963e+01
-2.821496e+01
0.000000e+00
-2.314887e-01
-5.118123e-01
-8.436624e-01
-1.226411e+00
-1.657744e+00
-2.135518e+00
-2.657465e+00
-3.221527e+00
-3.825389e+00
-4.467647e+00
-5.147305e+00
-5.864152e+00
-6.618276e+00
-7.409963e+00
-8.239694e+00
-9.107913e+00
-1.001539e+01
-1.096270e+01
-1.195044e+01
-1.297897e+01
-1.404854e+01
-1.515958e+01
-1.631228e+01
-1.750723e+01
-1.874506e+01
-2.002554e+01
-2.135692e+01
-2.271189e+01
-2.411010e+01
-2.548692e+01
-2.678731e+01
-2.792920e+01
0.000000e+00
-2.328884e-01
-5.141347e-01
-8.450954e-01
-1.225789e+00
-1.654974e+00
-2.130825e+00
-2.651283e+00
-3.214287e+00
-3.817892e+00
-4.460494e+00
-5.140997e+00
-5.858766e+00
-6.613718e+00
-7.406072e+00
-8.236433e+00
-9.105577e+00
-1.001420e+01
-1.096295e+01
-1.195238e+01
-1.298290e+01
-1.405478e+01
-1.516802e+01
-1.632266e+01
-1.751652e+01
-1.875426e+01
-2.002699e+01
-2.133929e+01
-2.265961e+01
-2.400415e+01
-2.533554e+01
-2.657926e+01
-2.766547e+01
0.000000e+00
-2.331780e-01
-5.147284e-01
-8.457166e-01
-1.226266e+00
-1.655387e+00
-2.131333e+00
-2.652056e+00
-3.215530e+00
-3.819908e+00
-4.463595e+00
-5.145292e+00
-5.864196e+00
-6.620093e+00
-7.413182e+00
-8.244137e+00
-9.114226e+00
-1.002411e+01
-1.097406e+01
-1.196489e+01
-1.299714e+01
-1.407026e+01
-1.518480e+01
-1.634022e+01
-1.753303e+01
-1.876531e+01
-2.002380e+01
-2.130680e+01
-2.260329e+01
-2.389660e+01
-2.516798e+01
-2.633647e+01
-2.732756e+01
0.000000e+00
-2.327244e-01
-5.141901e-01
-8.458507e-01
-1.227856e+00
-1.658926e+00
-2.136968e+00
-2.659687e+00
-3.224995e+00
-3.831134e+00
-4.476572e+00
-5.159831e+00
-5.879944e+00
-6.636946e+00
-7.430992e+00
-8.262279e+00
-9.133611e+00
-1.004477e+01
-1.099577e+01
-1.198665e+01
-1.302062e+01
-1.409345e+01
-1.520634e+01
-1.636366e+01
-1.754923e+01
-1.876940e+01
-2.001083e+01
-2.127074e+01
-2.253801e+01
-2.379464e+01
-2.499967e+01
-2.610090e+01
-2.705987e+01
0.000000e+00
-2.312532e-01
-5.119904e-01
-8.451568e-01
-1.230583e+00
-1.665872e+00
-2.148163e+00
-2.674577e+00
-3.242999e+00
-3.851642e+00
-4.499266e+00
-5.184080e+00
-5.905057e+00
-6.663483e+00
-7.458475e+00
-8.290931e+00
-9.163804e+00
-1.007606e+01
-1.102834e+01
-1.201797e+01
-1.305137e+01
-1.412211e+01
-1.523269e+01
-1.638357e+01
-1.756049e+01
-1.876514e+01
-1.999548e+01
-2.123298e+01
-2.247463e+01
-2.369028e+01
-2.484982e+01
-2.591903e+01
-2.686758e+01
0.000000e+00
-2.276195e-01
-5.060673e-01
-8.427307e-01
-1.234732e+00
-1.676900e+00
-2.166095e+00
-2.697450e+00
-3.270601e+00
-3.882168e+00
-4.531782e+00
-5.217824e+00
-5.938857e+00
-6.698433e+00
-7.494513e+00
-8.329784e+00
-9.204130e+00
-1.011758e+01
-1.106968e+01
-1.205860e+01
-1.308689e+01
-1.415405e+01
-1.525878e+01
-1.639925e+01
-1.756700e+01
-1.876213e+01
-1.998056e+01
-2.120529e+01
-2.242005e+01
-2.360653e+01
-2.473663e+01
-2.578985e+01
-2.674236e+01
0.000000e+00
-2.206301e-01
-4.900335e-01
-8.379557e-01
-1.243319e+00
-1.690827e+00
-2.195102e+00
-2.727592e+00
-3.310554e+00
-3.922103e+00
-4.574546e+00
-5.260940e+00
-5.981318e+00
-6.743858e+00
-7.540192e+00
-8.379329e+00
-9.254552e+00
-1.016704e+01
-1.111768e+01
-1.210327e+01
-1.312628e+01
-1.418795e+01
-1.528454e+01
-1.641534e+01
-1.757590e+01
-1.876750e+01
-1.998021e+01
-2.119026e+01
-2.238521e+01
-2.354638e+01
-2.465787e+01
-2.570410e+01
-2.667136e+01
0.000000e+00
-2.035549e-01
-4.511215e-01
-8.436339e-01
-1.250611e+00
-1.716911e+00
-2.234658e+00
-2.770676e+00
-3.361173e+00
-3.972250e+00
-4.625186e+00
-5.311092e+00
-6.034110e+00
-6.798624e+00
-7.598569e+00
-8.438944e+00
-9.314427e+00
-1.022512e+01
-1.117220e+01
-1.215376e+01
-1.317168e+01
-1.422603e+01
-1.531378e+01
-1.643721e+01
-1.759930e+01
-1.879104e+01
-1.999646e+01
-2.119153e+01
-2.236750e+01
-2.351030e+01
-2.460827e+01
-2.565311e+01
-2.664062e+01
0.000000e+00
-1.565297e-01
-4.489880e-01
-8.466201e-01
-1.288173e+00
-1.766110e+00
-2.286409e+00
-2.835853e+00
-3.420179e+00
-4.035492e+00
-4.684211e+00
-5.371148e+00
-6.096049e+00
-6.861524e+00
-7.664688e+00
-8.504866e+00
-9.380247e+00
-1.028902e+01
-1.123362e+01
-1.221252e+01
-1.322615e+01
-1.427383e+01
-1.535447e+01
-1.647891e+01
-1.764394e+01
-1.883284e+01
-2.002386e+01
-2.120555e+01
-2.236610e+01
-2.349466e+01
-2.458267e+01
-2.562755e+01
-2.663540e+01
0.000000e+00
-1.768647e-01
-5.070801e-01
-9.034562e-01
-1.355655e+00
-1.836390e+00
-2.358385e+00
-2.910851e+00
-3.493348e+00
-4.109288e+00
-4.756526e+00
-5.443442e+00
-6.168607e+00
-6.934521e+00
-7.738074e+00
-8.578447e+00
-9.452863e+00
-1.035996e+01
-1.130333e+01
-1.228078e+01
-1.329272e+01
-1.433716e+01
-1.541842e+01
-1.654424e+01
-1.770585e+01
-1.888220e+01
-2.005994e+01
-2.122857e+01
-2.237670e+01
-2.349415e+01
-2.457438e+01
-2.561835e+01
-2.664008e+01
0.000000e+00
-2.767277e-01
-5.886721e-01
-9.920599e-01
-1.436721e+00
-1.920218e+00
-2.442538e+00
-2.993044e+00
-3.577265e+00
-4.192103e+00
-4.840704e+00
-5.527269e+00
-6.252377e+00
-7.017865e+00
-7.820746e+00
-8.660627e+00
-9.534063e+00
-1.044127e+01
-1.138370e+01
-1.236062e+01
-1.337216e+01
-1.441673e+01