TITLE = "Solution"
VARIABLES = x, y, u, v, psiu, psiv, t, stress
ZONE T="structure" N=153 E=128 F=FEBLOCK ET=QUADRILATERAL VARLOCATION=([7,8]=cellcentered)
0.000000e+00
1.250000e+01
2.500000e+01
3.750000e+01
5.000000e+01
6.250000e+01
7.500000e+01
8.750000e+01
1.000000e+02
1.125000e+02
1.250000e+02
1.375000e+02
1.500000e+02
1.625000e+02
1.750000e+02
1.875000e+02
2.000000e+02
0.000000e+00
1.250000e+01
2.500000e+01
3.750000e+01
5.000000e+01
6.250000e+01
7.500000e+01
8.750000e+01
1.000000e+02
1.125000e+02
1.250000e+02
1.375000e+02
1.500000e+02
1.625000e+02
1.750000e+02
1.875000e+02
2.000000e+02
0.000000e+00
1.250000e+01
2.500000e+01
3.750000e+01
5.000000e+01
6.250000e+01
7.500000e+01
8.750000e+01
1.000000e+02
1.125000e+02
1.250000e+02
1.375000e+02
1.500000e+02
1.625000e+02
1.750000e+02
1.875000e+02
2.000000e+02
0.000000e+00
1.250000e+01
2.500000e+01
3.750000e+01
5.000000e+01
6.250000e+01
7.500000e+01
8.750000e+01
1.000000e+02
1.125000e+02
1.250000e+02
1.375000e+02
1.500000e+02
1.625000e+02
1.750000e+02
1.875000e+02
2.000000e+02
0.000000e+00
1.250000e+01
2.500000e+01
3.750000e+01
5.000000e+01
6.250000e+01
7.500000e+01
8.750000e+01
1.000000e+02
1.125000e+02
1.250000e+02
1.375000e+02
1.500000e+02
1.625000e+02
1.750000e+02
1.875000e+02
2.000000e+02
0.000000e+00
1.250000e+01
2.500000e+01
3.750000e+01
5.000000e+01
6.250000e+01
7.500000e+01
8.750000e+01
1.000000e+02
1.125000e+02
1.250000e+02
1.375000e+02
1.500000e+02
1.625000e+02
1.750000e+02
1.875000e+02
2.000000e+02
0.000000e+00
1.250000e+01
2.500000e+01
3.750000e+01
5.000000e+01
6.250000e+01
7.500000e+01
8.750000e+01
1.000000e+02
1.125000e+02
1.250000e+02
1.375000e+02
1.500000e+02
1.625000e+02
1.750000e+02
1.875000e+02
2.000000e+02
0.000000e+00
1.250000e+01
2.500000e+01
3.750000e+01
5.000000e+01
6.250000e+01
7.500000e+01
8.750000e+01
1.000000e+02
1.125000e+02
1.250000e+02
1.375000e+02
1.500000e+02
1.625000e+02
1.750000e+02
1.875000e+02
2.000000e+02
0.000000e+00
1.250000e+01
2.500000e+01
3.750000e+01
5.000000e+01
6.250000e+01
7.500000e+01
8.750000e+01
1.000000e+02
1.125000e+02
1.250000e+02
1.375000e+02
1.500000e+02
1.625000e+02
1.750000e+02
1.875000e+02
2.000000e+02
0.000000e+00
0.000000e+00
0.000000e+00
0.000000e+00
0.000000e+00
0.000000e+00
0.000000e+00
0.000000e+00
0.000000e+00
0.000000e+00
0.000000e+00
0.000000e+00
0.000000e+00
0.000000e+00
0.000000e+00
0.000000e+00
0.000000e+00
1.250000e+01
1.250000e+01
1.250000e+01
1.250000e+01
1.250000e+01
1.250000e+01
1.250000e+01
1.250000e+01
1.250000e+01
1.250000e+01
1.250000e+01
1.250000e+01
1.250000e+01
1.250000e+01
1.250000e+01
1.250000e+01
1.250000e+01
2.500000e+01
2.500000e+01
2.500000e+01
2.500000e+01
2.500000e+01
2.500000e+01
2.500000e+01
2.500000e+01
2.500000e+01
2.500000e+01
2.500000e+01
2.500000e+01
2.500000e+01
2.500000e+01
2.500000e+01
2.500000e+01
2.500000e+01
3.750000e+01
3.750000e+01
3.750000e+01
3.750000e+01
3.750000e+01
3.750000e+01
3.750000e+01
3.750000e+01
3.750000e+01
3.750000e+01
3.750000e+01
3.750000e+01
3.750000e+01
3.750000e+01
3.750000e+01
3.750000e+01
3.750000e+01
5.000000e+01
5.000000e+01
5.000000e+01
5.000000e+01
5.000000e+01
5.000000e+01
5.000000e+01
5.000000e+01
5.000000e+01
5.000000e+01
5.000000e+01
5.000000e+01
5.000000e+01
5.000000e+01
5.000000e+01
5.000000e+01
5.000000e+01
6.250000e+01
6.250000e+01
6.250000e+01
6.250000e+01
6.250000e+01
6.250000e+01
6.250000e+01
6.250000e+01
6.250000e+01
6.250000e+01
6.250000e+01
6.250000e+01
6.250000e+01
6.250000e+01
6.250000e+01
6.250000e+01
6.250000e+01
7.500000e+01
7.500000e+01
7.500000e+01
7.500000e+01
7.500000e+01
7.500000e+01
7.500000e+01
7.500000e+01
7.500000e+01
7.500000e+01
7.500000e+01
7.500000e+01
7.500000e+01
7.500000e+01
7.500000e+01
7.500000e+01
7.500000e+01
8.750000e+01
8.750000e+01
8.750000e+01
8.750000e+01
8.750000e+01
8.750000e+01
8.750000e+01
8.750000e+01
8.750000e+01
8.750000e+01
8.750000e+01
8.750000e+01
8.750000e+01
8.750000e+01
8.750000e+01
8.750000e+01
8.750000e+01
1.000000e+02
1.000000e+02
1.000000e+02
1.000000e+02
1.000000e+02
1.000000e+02
1.000000e+02
1.000000e+02
1.000000e+02
1.000000e+02
1.000000e+02
1.000000e+02
1.000000e+02
1.000000e+02
1.000000e+02
1.000000e+02
1.000000e+02
0.000000e+00
-9.945370e-01
-1.679489e+00
-2.431152e+00
-3.115931e+00
-3.752043e+00
-4.457324e+00
-5.087730e+00
-5.763308e+00
-6.405437e+00
-7.056272e+00
-7.723293e+00
-8.376718e+00
-9.147516e+00
-1.007756e+01
-1.083366e+01
-1.128381e+01
0.000000e+00
-4.453385e-01
-9.071242e-01
-1.419054e+00
-1.930385e+00
-2.411472e+00
-2.925218e+00
-3.423264e+00
-3.919620e+00
-4.421568e+00
-4.914598e+00
-5.417122e+00
-5.902020e+00
-6.422102e+00
-6.897563e+00
-7.023611e+00
-7.202473e+00
0.000000e+00
-1.462412e-01
-3.494396e-01
-6.399026e-01
-9.778915e-01
-1.303229e+00
-1.656646e+00
-2.013077e+00
-2.357221e+00
-2.718696e+00
-3.057823e+00
-3.391900e+00
-3.687445e+00
-3.927332e+00
-4.036254e+00
-4.034151e+00
-4.182641e+00
0.000000e+00
-7.894295e-02
-1.622393e-01
-3.095837e-01
-4.546705e-01
-6.285011e-01
-8.132826e-01
-9.792794e-01
-1.166340e+00
-1.328416e+00
-1.489448e+00
-1.628394e+00
-1.721660e+00
-1.729731e+00
-1.656271e+00
-1.635596e+00
-1.752813e+00
0.000000e+00
-3.273270e-03
-7.133432e-03
-1.114347e-02
-1.543608e-02
-1.868929e-02
-1.938617e-02
-1.644293e-02
-7.525684e-03
9.319240e-03
3.377271e-02
7.848126e-02
1.608090e-01
2.756645e-01
3.953354e-01
4.359776e-01
3.377869e-01
0.000000e+00
7.323264e-02
1.506944e-01
2.907425e-01
4.291562e-01
5.964055e-01
7.750186e-01
9.450184e-01
1.150690e+00
1.345880e+00
1.562822e+00
1.783209e+00
2.009469e+00
2.216378e+00
2.352091e+00
2.385036e+00
2.319442e+00
0.000000e+00
1.439416e-01
3.442563e-01
6.309943e-01
9.659517e-01
1.291123e+00
1.643325e+00
1.999628e+00
2.360924e+00
2.765513e+00
3.144364e+00
3.511364e+00
3.844482e+00
4.119653e+00
4.296068e+00
4.350750e+00
4.328157e+00
0.000000e+00
4.460477e-01
9.078841e-01
1.419580e+00
1.930200e+00
2.409771e+00
2.920529e+00
3.415603e+00
3.903772e+00
4.396833e+00
4.875226e+00
5.350416e+00
5.779029e+00
6.126468e+00
6.343335e+00
6.439027e+00
6.456695e+00
0.000000e+00
9.967467e-01
1.684486e+00
2.439894e+00
3.126789e+00
3.763921e+00
4.468584e+00
5.096960e+00
5.746726e+00
6.331478e+00
6.905311e+00
7.506139e+00
8.036942e+00
8.448444e+00
8.649831e+00
8.702683e+00
8.703228e+00
0.000000e+00
-6.183113e-01
-1.361340e+00
-2.362108e+00
-3.536000e+00
-4.879739e+00
-6.410521e+00
-8.096574e+00
-9.956869e+00
-1.198006e+01
-1.416495e+01
-1.651532e+01
-1.902897e+01
-2.176015e+01
-2.472412e+01
-2.808380e+01
-3.309958e+01
0.000000e+00
-4.152064e-01
-1.192834e+00
-2.176134e+00
-3.366756e+00
-4.705345e+00
-6.233268e+00
-7.927668e+00
-9.780808e+00
-1.181236e+01
-1.399268e+01
-1.634773e+01
-1.885590e+01
-2.156757e+01
-2.458409e+01
-2.799996e+01
-3.205021e+01
0.000000e+00
-3.895238e-01
-1.091168e+00
-2.072734e+00
-3.247341e+00
-4.579704e+00
-6.113144e+00
-7.798128e+00
-9.661709e+00
-1.169063e+01
-1.388209e+01
-1.624841e+01
-1.876692e+01
-2.150535e+01
-2.457421e+01
-2.784792e+01
-3.088039e+01
0.000000e+00
-4.484736e-01
-1.087510e+00
-2.046613e+00
-3.184533e+00
-4.510516e+00
-6.050775e+00
-7.721927e+00
-9.603942e+00
-1.163233e+01
-1.384511e+01
-1.623132e+01
-1.877548e+01
-2.151557e+01
-2.450476e+01
-2.753811e+01
-3.016338e+01
0.000000e+00
-4.556051e-01
-1.109752e+00
-2.030830e+00
-3.170700e+00
-4.500061e+00
-6.029707e+00
-7.719630e+00
-9.594379e+00
-1.164464e+01
-1.387140e+01
-1.626521e+01
-1.881682e+01
-2.151668e+01
-2.435413e+01
-2.717174e+01
-2.955909e+01
0.000000e+00
-4.471921e-01
-1.087147e+00
-2.048649e+00
-3.191457e+00
-4.527628e+00
-6.078010e+00
-7.758792e+00
-9.656443e+00
-1.171066e+01
-1.394123e+01
-1.631737e+01
-1.884803e+01
-2.150662e+01
-2.421898e+01
-2.685217e+01
-2.912122e+01
0.000000e+00
-3.878126e-01
-1.091083e+00
-2.077349e+00
-3.260886e+00
-4.608640e+00
-6.158857e+00
-7.867988e+00
-9.762038e+00
-1.182645e+01
-1.402779e+01
-1.638452e+01
-1.888750e+01
-2.150659e+01
-2.413639e+01
-2.664504e+01
-2.888793e+01
0.000000e+00
-4.136236e-01
-1.192823e+00
-2.181547e+00
-3.382540e+00
-4.736146e+00
-6.284456e+00
-8.009082e+00
-9.900698e+00
-1.196339e+01
-1.414320e+01
-1.648308e+01
-1.896468e+01
-2.154820e+01
-2.411584e+01
-2.655742e+01
-2.882752e+01
0.000000e+00
-6.173123e-01
-1.361950e+00
-2.368210e+00
-3.552194e+00
-4.910516e+00
-6.462415e+00
-8.177638e+00
-1.007292e+01
-1.211911e+01
-1.429840e+01
-1.663144e+01
-1.908833e+01
-2.163014e+01
-2.414050e+01
-2.654250e+01
-2.882638e+01


0.000000e+00
1.541807e-05
2.510414e-05
3.749436e-05
5.358606e-05
6.720463e-05
8.310415e-05
9.717076e-05
1.117599e-04
1.257325e-04
1.408531e-04
1.551628e-04
1.718029e-04
1.875221e-04
1.974189e-04
2.031060e-04
2.100320e-04
0.000000e+00
1.146242e-05
1.974401e-05
2.839487e-05
4.100384e-05
5.170248e-05
6.182379e-05
7.295616e-05
8.314296e-05
9.454069e-05
1.052236e-04
1.155389e-04
1.264794e-04
1.357689e-04
1.372285e-04
1.409657e-04
1.467918e-04
0.000000e+00
9.536727e-06
1.502110e-05
2.018340e-05
2.885475e-05
3.551023e-05
4.126187e-05
4.862210e-05
5.460634e-05
6.194423e-05
6.838196e-05
7.398369e-05
7.871798e-05
8.085314e-05
8.006214e-05
8.244446e-05
8.668628e-05
0.000000e+00
5.181437e-06
6.845083e-06
9.608499e-06
1.305971e-05
1.355700e-05
1.588985e-05
1.741922e-05
2.092569e-05
2.442128e-05
2.810973e-05
2.908672e-05
2.848551e-05
2.702251e-05
2.681975e-05
2.988842e-05
3.556105e-05
0.000000e+00
-1.730389e-07
-4.307423e-07
-8.472117e-07
-1.703211e-06
-2.841771e-06
-4.918255e-06
-7.110167e-06
-7.671606e-06
-7.696468e-06
-8.701085e-06
-1.190767e-05
-1.466025e-05
-1.601345e-05
-1.568362e-05
-1.350798e-05
-9.519190e-06
0.000000e+00
-5.442397e-06
-7.428095e-06
-1.072356e-05
-1.463777e-05
-1.608467e-05
-2.048599e-05
-2.437827e-05
-3.016393e-05
-3.325084e-05
-3.732676e-05
-4.215419e-05
-4.719226e-05
-4.887335e-05
-4.942234e-05
-4.991504e-05
-4.820924e-05
0.000000e+00
-9.536604e-06
-1.508731e-05
-2.035103e-05
-2.896106e-05
-3.530527e-05
-4.075091e-05
-4.877428e-05
-5.594821e-05
-6.348470e-05
-6.874277e-05
-7.375974e-05
-7.793329e-05
-8.137253e-05
-8.329140e-05
-8.520997e-05
-8.596008e-05
0.000000e+00
-1.139288e-05
-1.965710e-05
-2.829173e-05
-4.078650e-05
-5.163899e-05
-6.158868e-05
-7.279730e-05
-8.318718e-05
-9.454901e-05
-1.052179e-04
-1.134426e-04
-1.182616e-04
-1.232451e-04
-1.268018e-04
-1.280827e-04
-1.281795e-04
0.000000e+00
-1.542868e-05
-2.504535e-05
-3.734186e-05
-5.337821e-05
-6.703136e-05
-8.279052e-05
-9.591388e-05
-1.098653e-04
-1.234366e-04
-1.410970e-04
-1.567781e-04
-1.663811e-04
-1.715557e-04
-1.737737e-04
-1.739812e-04
-1.737963e-04
0.000000e+00
1.260261e-05
2.000537e-05
3.244992e-05
4.877649e-05
6.690676e-05
9.133957e-05
1.202010e-04
1.534032e-04
1.901644e-04
2.302816e-04
2.742868e-04
3.243097e-04
3.783694e-04
4.398184e-04
5.105957e-04
5.838917e-04
0.000000e+00
7.678948e-06
1.611644e-05
2.634969e-05
4.230617e-05
6.095417e-05
8.488769e-05
1.143130e-04
1.471927e-04
1.840103e-04
2.239705e-04
2.680658e-04
3.177214e-04
3.734892e-04
4.346112e-04
5.032173e-04
5.735284e-04
0.000000e+00
4.326555e-06
1.230610e-05
2.172666e-05
3.649837e-05
5.571766e-05
7.949215e-05
1.098026e-04
1.430317e-04
1.795235e-04
2.193554e-04
2.635559e-04
3.139330e-04
3.711413e-04
4.304983e-04
4.957390e-04
5.638243e-04
0.000000e+00
3.201083e-06
1.060384e-05
2.008480e-05
3.451628e-05
5.207230e-05
7.649437e-05
1.088375e-04
1.435444e-04
1.780740e-04
2.172503e-04
2.619782e-04
3.132121e-04
3.697440e-04
4.277748e-04
4.878996e-04
5.496513e-04
0.000000e+00
2.813835e-06
1.027506e-05
2.004167e-05
3.423044e-05
5.077847e-05
7.538749e-05
1.098378e-04
1.448095e-04
1.778797e-04
2.154576e-04
2.619797e-04
3.135283e-04
3.698470e-04
4.266274e-04
4.815078e-04
5.335454e-04
0.000000e+00
3.341979e-06
1.079163e-05
2.045391e-05
3.484745e-05
5.187968e-05
7.721185e-05
1.107263e-04
1.453867e-04
1.776737e-04
2.158285e-04
2.635812e-04
3.159158e-04
3.701077e-04
4.265173e-04
4.791895e-04
5.225710e-04
0.000000e+00
4.477820e-06
1.253131e-05
2.206384e-05
3.677152e-05
5.578258e-05
8.043319e-05
1.117362e-04
1.446930e-04
1.787603e-04
2.181835e-04
2.668478e-04
3.194051e-04
3.721328e-04
4.255790e-04
4.764661e-04
5.191456e-04
0.000000e+00
7.801330e-06
1.634938e-05
2.664474e-05
4.255453e-05
6.134553e-05
8.582850e-05
1.159246e-04
1.481075e-04
1.831046e-04
2.228775e-04
2.705426e-04
3.224226e-04
3.743082e-04
4.256868e-04
4.744591e-04
5.196252e-04
0.000000e+00
1.271382e-05
2.023815e-05
3.273558e-05
4.910321e-05
6.742438e-05
9.235084e-05
1.216041e-04
1.542431e-04
1.893960e-04
2.300580e-04
2.748414e-04
3.246262e-04
3.755108e-04
4.259802e-04
4.739752e-04
5.198944e-04


5.616947e+00
6.100713e+00
6.833143e+00
5.871142e+00
5.464991e+00
6.065058e+00
6.076276e+00
6.227152e+00
5.878154e+00
5.880042e+00
6.261894e+00
7.134761e+00
8.832494e+00
9.812006e+00
9.132048e+00
7.983025e+00
8.052183e+00
8.433904e+00
8.638814e+00
8.337224e+00
8.092603e+00
8.299050e+00
8.486150e+00
8.346199e+00
8.343158e+00
8.251435e+00
8.397315e+00
8.825558e+00
9.493014e+00
9.824371e+00
8.377812e+00
6.458591e+00
9.829543e+00
9.813088e+00
9.986667e+00
9.824725e+00
9.822800e+00
9.921663e+00
9.818340e+00
9.919318e+00
9.832408e+00
9.866146e+00
9.882064e+00
9.861981e+00
9.880197e+00
9.380785e+00
7.978462e+00
6.171921e+00
9.993425e+00
9.993304e+00
9.993245e+00
9.992589e+00
9.991677e+00
9.989877e+00
9.987865e+00
9.987879e+00
9.989005e+00
9.988681e+00
9.983479e+00
9.467995e+00
8.817049e+00
8.358247e+00
7.966129e+00
7.883297e+00
9.993392e+00
9.993227e+00
9.993102e+00
9.992227e+00
9.990717e+00
9.987447e+00
9.922486e+00
9.958203e+00
9.981048e+00
9.901606e+00
9.342532e+00
8.560091e+00
7.674687e+00
7.717491e+00
8.623749e+00
9.136708e+00
9.829724e+00
9.812756e+00
9.985981e+00
9.822805e+00
9.817497e+00
9.666807e+00
9.334226e+00
9.514388e+00
9.376513e+00
8.832546e+00
8.288324e+00
7.861725e+00
8.142213e+00
8.713410e+00
9.424400e+00
9.977094e+00
8.053992e+00
8.434336e+00
8.637223e+00
8.332864e+00
8.010712e+00
7.869324e+00
7.698889e+00
7.685347e+00
7.747301e+00
7.288499e+00
7.453062e+00
8.458920e+00
9.251364e+00
9.816833e+00
9.986622e+00
9.991884e+00
5.621933e+00
6.102077e+00
6.831541e+00
5.862813e+00
5.436716e+00
5.720607e+00
5.587301e+00
6.042813e+00
6.012325e+00
6.398607e+00
7.821585e+00
9.093552e+00
9.963896e+00
9.989561e+00
9.992736e+00
9.993849e+00


-8.140519e-01
-1.735884e-01
-3.948789e-01
-2.553994e-01
-1.003831e-01
-3.014752e-01
-1.256888e-01
-2.097689e-01
-1.604000e-01
-1.606037e-01
-2.123564e-01
-1.508449e-01
-4.640777e-01
-6.816831e-01
3.167210e-01
-8.469238e-01
6.115397e-01
4.790355e-01
2.965677e-01
2.259925e-01
2.885739e-01
1.683953e-01
1.763581e-01
1.716628e-01
1.118756e-01
1.470637e-01
1.296947e-01
2.419914e-01
3.022073e-01
5.111309e-01
6.957672e-01
-9.364757e-01
7.238119e-01
4.713233e-01
5.850453e-02
-1.843978e-02
-3.842045e-02
-1.824148e-01
-8.000522e-02
-1.354295e-01
-7.433171e-02
-1.778133e-02
3.436551e-02
1.873674e-01
2.794511e-01
1.489512e-01
-2.418205e-02
-1.692303e-01
7.289722e-01
5.563285e-01
1.939964e-01
6.427076e-02
-2.352263e-02
-1.019873e-01
-1.715271e-02
-5.982413e-02
1.477298e-02
1.930398e-02
6.027143e-02
1.178088e-01
5.826984e-02
-2.635586e-01
-3.829732e-01
-7.695983e-02
7.318601e-01
5.602547e-01
2.018597e-01
7.210103e-02
-2.028193e-02
-1.083642e-01
-3.756966e-02
-1.002318e-01
-4.955966e-02
-3.940294e-02
2.068231e-02
1.443262e-02
-3.741083e-02
-1.314771e-01
-1.029781e-01
3.116989e-01
7.305578e-01
4.814979e-01
7.646499e-02
-8.584206e-04
-2.725094e-02
-1.599325e-01
-8.059949e-02
-1.926365e-01
-1.811499e-01
-1.064197e-01
-7.892153e-02
-9.848948e-02
-1.083310e-01
4.645547e-02
3.340129e-01
7.251491e-01
6.155485e-01
4.848476e-01
3.040631e-01
2.312565e-01
2.855568e-01
1.622889e-01
1.527719e-01
9.849609e-02
-5.517412e-02
-3.998521e-02
-9.737875e-02
-5.929461e-02
5.973195e-02
3.666753e-01
7.130205e-01
9.479445e-01
-8.195536e-01
-1.790760e-01
-4.024634e-01
-2.587913e-01
-1.002623e-01
-2.964078e-01
-1.207361e-01
-1.543891e-01
-5.629960e-02
-2.270583e-02
-9.269244e-02
9.726782e-02
3.892538e-01
7.722146e-01
9.528517e-01
9.987347e-01
1 2 19 18
2 3 20 19
3 4 21 20
4 5 22 21
5 6 23 22
6 7 24 23
7 8 25 24
8 9 26 25
9 10 27 26
10 11 28 27
11 12 29 28
12 13 30 29
13 14 31 30
14 15 32 31
15 16 33 32
16 17 34 33
18 19 36 35
19 20 37 36
20 21 38 37
21 22 39 38
22 23 40 39
23 24 41 40
24 25 42 41
25 26 43 42
26 27 44 43
27 28 45 44
28 29 46 45
29 30 47 46
30 31 48 47
31 32 49 48
32 33 50 49
33 34 51 50
35 36 53 52
36 37 54 53
37 38 55 54
38 39 56 55
39 40 57 56
40 41 58 57
41 42 59 58
42 43 60 59
43 44 61 60
44 45 62 61
45 46 63 62
46 47 64 63
47 48 65 64
48 49 66 65
49 50 67 66
50 51 68 67
52 53 70 69
53 54 71 70
54 55 72 71
55 56 73 72
56 57 74 73
57 58 75 74
58 59 76 75
59 60 77 76
60 61 78 77
61 62 79 78
62 63 80 79
63 64 81 80
64 65 82 81
65 66 83 82
66 67 84 83
67 68 85 84
69 70 87 86
70 71 88 87
71 72 89 88
72 73 90 89
73 74 91 90
74 75 92 91
75 76 93 92
76 77 94 93
77 78 95 94
78 79 96 95
79 80 97 96
80 81 98 97
81 82 99 98
82 83 100 99
83 84 101 100
84 85 102 101
86 87 104 103
87 88 105 104
88 89 106 105
89 90 107 106
90 91 108 107
91 92 109 108
92 93 110 109
93 94 111 110
94 95 112 111
95 96 113 112
96 97 114 113
97 98 115 114
98 99 116 115
99 100 117 116
100 101 118 117
101 102 119 118
103 104 121 120
104 105 122 121
105 106 123 122
106 107 124 123
107 108 125 124
108 109 126 125
109 110 127 126
110 111 128 127
111 112 129 128
112 113 130 129
113 114 131 130
114 115 132 131
115 116 133 132
116 117 134 133
117 118 135 134
118 119 136 135
120 121 138 137
121 122 139 138
122 123 140 139
123 124 141 140
124 125 142 141
125 126 143 142
126 127 144 143
127 128 145 144
128 129 146 145
129 130 147 146
130 131 148 147
131 132 149 148
132 133 150 149
133 134 151 150
134 135 152 151
135 136 153 152
