TITLE = "Solution"
VARIABLES = x, y, u, v, psiu, psiv, t, stress
ZONE T="structure" N=153 E=128 F=FEBLOCK ET=QUADRILATERAL VARLOCATION=([7,8]=cellcentered)
0.000000e+00
1.250000e+01
2.500000e+01
3.750000e+01
5.000000e+01
6.250000e+01
7.500000e+01
8.750000e+01
1.000000e+02
1.125000e+02
1.250000e+02
1.375000e+02
1.500000e+02
1.625000e+02
1.750000e+02
1.875000e+02
2.000000e+02
0.000000e+00
1.250000e+01
2.500000e+01
3.750000e+01
5.000000e+01
6.250000e+01
7.500000e+01
8.750000e+01
1.000000e+02
1.125000e+02
1.250000e+02
1.375000e+02
1.500000e+02
1.625000e+02
1.750000e+02
1.875000e+02
2.000000e+02
0.000000e+00
1.250000e+01
2.500000e+01
3.750000e+01
5.000000e+01
6.250000e+01
7.500000e+01
8.750000e+01
1.000000e+02
1.125000e+02
1.250000e+02
1.375000e+02
1.500000e+02
1.625000e+02
1.750000e+02
1.875000e+02
2.000000e+02
0.000000e+00
1.250000e+01
2.500000e+01
3.750000e+01
5.000000e+01
6.250000e+01
7.500000e+01
8.750000e+01
1.000000e+02
1.125000e+02
1.250000e+02
1.375000e+02
1.500000e+02
1.625000e+02
1.750000e+02
1.875000e+02
2.000000e+02
0.000000e+00
1.250000e+01
2.500000e+01
3.750000e+01
5.000000e+01
6.250000e+01
7.500000e+01
8.750000e+01
1.000000e+02
1.125000e+02
1.250000e+02
1.375000e+02
1.500000e+02
1.625000e+02
1.750000e+02
1.875000e+02
2.000000e+02
0.000000e+00
1.250000e+01
2.500000e+01
3.750000e+01
5.000000e+01
6.250000e+01
7.500000e+01
8.750000e+01
1.000000e+02
1.125000e+02
1.250000e+02
1.375000e+02
1.500000e+02
1.625000e+02
1.750000e+02
1.875000e+02
2.000000e+02
0.000000e+00
1.250000e+01
2.500000e+01
3.750000e+01
5.000000e+01
6.250000e+01
7.500000e+01
8.750000e+01
1.000000e+02
1.125000e+02
1.250000e+02
1.375000e+02
1.500000e+02
1.625000e+02
1.750000e+02
1.875000e+02
2.000000e+02
0.000000e+00
1.250000e+01
2.500000e+01
3.750000e+01
5.000000e+01
6.250000e+01
7.500000e+01
8.750000e+01
1.000000e+02
1.125000e+02
1.250000e+02
1.375000e+02
1.500000e+02
1.625000e+02
1.750000e+02
1.875000e+02
2.000000e+02
0.000000e+00
1.250000e+01
2.500000e+01
3.750000e+01
5.000000e+01
6.250000e+01
7.500000e+01
8.750000e+01
1.000000e+02
1.125000e+02
1.250000e+02
1.375000e+02
1.500000e+02
1.625000e+02
1.750000e+02
1.875000e+02
2.000000e+02
0.000000e+00
0.000000e+00
0.000000e+00
0.000000e+00
0.000000e+00
0.000000e+00
0.000000e+00
0.000000e+00
0.000000e+00
0.000000e+00
0.000000e+00
0.000000e+00
0.000000e+00
0.000000e+00
0.000000e+00
0.000000e+00
0.000000e+00
1.250000e+01
1.250000e+01
1.250000e+01
1.250000e+01
1.250000e+01
1.250000e+01
1.250000e+01
1.250000e+01
1.250000e+01
1.250000e+01
1.250000e+01
1.250000e+01
1.250000e+01
1.250000e+01
1.250000e+01
1.250000e+01
1.250000e+01
2.500000e+01
2.500000e+01
2.500000e+01
2.500000e+01
2.500000e+01
2.500000e+01
2.500000e+01
2.500000e+01
2.500000e+01
2.500000e+01
2.500000e+01
2.500000e+01
2.500000e+01
2.500000e+01
2.500000e+01
2.500000e+01
2.500000e+01
3.750000e+01
3.750000e+01
3.750000e+01
3.750000e+01
3.750000e+01
3.750000e+01
3.750000e+01
3.750000e+01
3.750000e+01
3.750000e+01
3.750000e+01
3.750000e+01
3.750000e+01
3.750000e+01
3.750000e+01
3.750000e+01
3.750000e+01
5.000000e+01
5.000000e+01
5.000000e+01
5.000000e+01
5.000000e+01
5.000000e+01
5.000000e+01
5.000000e+01
5.000000e+01
5.000000e+01
5.000000e+01
5.000000e+01
5.000000e+01
5.000000e+01
5.000000e+01
5.000000e+01
5.000000e+01
6.250000e+01
6.250000e+01
6.250000e+01
6.250000e+01
6.250000e+01
6.250000e+01
6.250000e+01
6.250000e+01
6.250000e+01
6.250000e+01
6.250000e+01
6.250000e+01
6.250000e+01
6.250000e+01
6.250000e+01
6.250000e+01
6.250000e+01
7.500000e+01
7.500000e+01
7.500000e+01
7.500000e+01
7.500000e+01
7.500000e+01
7.500000e+01
7.500000e+01
7.500000e+01
7.500000e+01
7.500000e+01
7.500000e+01
7.500000e+01
7.500000e+01
7.500000e+01
7.500000e+01
7.500000e+01
8.750000e+01
8.750000e+01
8.750000e+01
8.750000e+01
8.750000e+01
8.750000e+01
8.750000e+01
8.750000e+01
8.750000e+01
8.750000e+01
8.750000e+01
8.750000e+01
8.750000e+01
8.750000e+01
8.750000e+01
8.750000e+01
8.750000e+01
1.000000e+02
1.000000e+02
1.000000e+02
1.000000e+02
1.000000e+02
1.000000e+02
1.000000e+02
1.000000e+02
1.000000e+02
1.000000e+02
1.000000e+02
1.000000e+02
1.000000e+02
1.000000e+02
1.000000e+02
1.000000e+02
1.000000e+02
0.000000e+00
-8.126550e-01
-1.480536e+00
-2.125075e+00
-2.779554e+00
-3.424465e+00
-4.058101e+00
-4.680659e+00
-5.284787e+00
-5.859809e+00
-6.396974e+00
-6.893919e+00
-7.358847e+00
-7.814230e+00
-8.299238e+00
-8.860417e+00
-9.266229e+00
0.000000e+00
-4.569933e-01
-9.515094e-01
-1.435352e+00
-1.926239e+00
-2.409604e+00
-2.883726e+00
-3.349187e+00
-3.800737e+00
-4.229729e+00
-4.627399e+00
-4.986908e+00
-5.303221e+00
-5.567105e+00
-5.749560e+00
-5.789771e+00
-5.919468e+00
0.000000e+00
-2.649880e-01
-5.550240e-01
-8.725687e-01
-1.199694e+00
-1.523771e+00
-1.842247e+00
-2.153161e+00
-2.451540e+00
-2.730087e+00
-2.980055e+00
-3.191503e+00
-3.352078e+00
-3.444419e+00
-3.450846e+00
-3.419862e+00
-3.554288e+00
0.000000e+00
-1.208499e-01
-2.567603e-01
-4.105346e-01
-5.732138e-01
-7.362363e-01
-8.964400e-01
-1.050862e+00
-1.195453e+00
-1.324695e+00
-1.431482e+00
-1.507302e+00
-1.543229e+00
-1.534502e+00
-1.499051e+00
-1.506850e+00
-1.610527e+00
0.000000e+00
-4.454442e-04
-9.486053e-04
-1.429525e-03
-1.733241e-03
-1.549756e-03
-2.784337e-04
3.176835e-03
1.066656e-02
2.500634e-02
4.991821e-02
8.920322e-02
1.440734e-01
2.067031e-01
2.510383e-01
2.420213e-01
1.710895e-01
0.000000e+00
1.201043e-01
2.551516e-01
4.080561e-01
5.700820e-01
7.331614e-01
8.950788e-01
1.054592e+00
1.210541e+00
1.361849e+00
1.507463e+00
1.645654e+00
1.771767e+00
1.874578e+00
1.936098e+00
1.942277e+00
1.905621e+00
0.000000e+00
2.646270e-01
5.541999e-01
8.711811e-01
1.197678e+00
1.521229e+00
1.839635e+00
2.151477e+00
2.452514e+00
2.736486e+00
2.996315e+00
3.224824e+00
3.414459e+00
3.556577e+00
3.642601e+00
3.670853e+00
3.662354e+00
0.000000e+00
4.570982e-01
9.516762e-01
1.435521e+00
1.926238e+00
2.409119e+00
2.882250e+00
3.345492e+00
3.791657e+00
4.208407e+00
4.581563e+00
4.897889e+00
5.147272e+00
5.324396e+00
5.430642e+00
5.476046e+00
5.484424e+00
0.000000e+00
8.130045e-01
1.481494e+00
2.126856e+00
2.782298e+00
3.428219e+00
4.062693e+00
4.684692e+00
5.283172e+00
5.839807e+00
6.333103e+00
6.742065e+00
7.049884e+00
7.248387e+00
7.344585e+00
7.368136e+00
7.367561e+00
0.000000e+00
-4.982628e-01
-1.015537e+00
-1.700402e+00
-2.546960e+00
-3.556582e+00
-4.731178e+00
-6.068535e+00
-7.562129e+00
-9.202510e+00
-1.097843e+01
-1.287951e+01
-1.490144e+01
-1.705629e+01
-1.940821e+01
-2.216161e+01
-2.627432e+01
0.000000e+00
-3.118680e-01
-8.505571e-01
-1.530219e+00
-2.376744e+00
-3.389176e+00
-4.566822e+00
-5.908229e+00
-7.408494e+00
-9.058603e+00
-1.084666e+01
-1.276089e+01
-1.479546e+01
-1.696281e+01
-1.931979e+01
-2.205960e+01
-2.548729e+01
0.000000e+00
-2.477945e-01
-7.392089e-01
-1.412923e+00
-2.256948e+00
-3.270551e+00
-4.451071e+00
-5.796906e+00
-7.303902e+00
-8.963776e+00
-1.076499e+01
-1.269591e+01
-1.475111e+01
-1.694122e+01
-1.930443e+01
-2.188046e+01
-2.434516e+01
0.000000e+00
-2.324125e-01
-6.903895e-01
-1.347444e+00
-2.187310e+00
-3.200789e+00
-4.384088e+00
-5.734837e+00
-7.249044e+00
-8.919074e+00
-1.073387e+01
-1.268140e+01
-1.475302e+01
-1.694649e+01
-1.925266e+01
-2.158107e+01
-2.367175e+01
0.000000e+00
-2.310068e-01
-6.778739e-01
-1.327922e+00
-2.165181e+00
-3.179156e+00
-4.364794e+00
-5.719690e+00
-7.240107e+00
-8.918762e+00
-1.074424e+01
-1.270200e+01
-1.477571e+01
-1.694391e+01
-1.916021e+01
-2.132116e+01
-2.325329e+01
0.000000e+00
-2.322006e-01
-6.903117e-01
-1.347899e+00
-2.188886e+00
-3.204437e+00
-4.391378e+00
-5.748255e+00
-7.272051e+00
-8.955492e+00
-1.078589e+01
-1.274481e+01
-1.480715e+01
-1.693655e+01
-1.907585e+01
-2.113892e+01
-2.301351e+01
0.000000e+00
-2.474412e-01
-7.390587e-01
-1.413614e+00
-2.259469e+00
-3.276503e+00
-4.463107e+00
-5.819260e+00
-7.342502e+00
-9.025242e+00
-1.085334e+01
-1.280494e+01
-1.484867e+01
-1.694090e+01
-1.902433e+01
-2.103358e+01
-2.290662e+01
0.000000e+00
-3.115125e-01
-8.503945e-01
-1.530980e+00
-2.379567e+00
-3.395918e+00
-4.580545e+00
-5.933745e+00
-7.452450e+00
-9.128266e+00
-1.094614e+01
-1.288273e+01
-1.490434e+01
-1.696549e+01
-1.901121e+01
-2.098972e+01
-2.288167e+01
0.000000e+00
-4.980248e-01
-1.015499e+00
-1.701319e+00
-2.549975e+00
-3.563573e+00
-4.745162e+00
-6.093973e+00
-7.604699e+00
-9.267616e+00
-1.106721e+01
-1.298031e+01
-1.497408e+01
-1.700493e+01
-1.902206e+01
-2.098164e+01
-2.288218e+01


0.000000e+00
8.948614e-06
1.773783e-05
2.592768e-05
3.414713e-05
4.199703e-05
4.898556e-05
5.488764e-05
5.959296e-05
6.309663e-05
6.554514e-05
6.718983e-05
6.831517e-05
6.920384e-05
7.009765e-05
7.139039e-05
7.310897e-05
0.000000e+00
6.560398e-06
1.427284e-05
2.049786e-05
2.669753e-05
3.263963e-05
3.784857e-05
4.214685e-05
4.548718e-05
4.787986e-05
4.945334e-05
5.040436e-05
5.089856e-05
5.104381e-05
5.120205e-05
5.224733e-05
5.402796e-05
0.000000e+00
4.904674e-06
9.995832e-06
1.425199e-05
1.844059e-05
2.231278e-05
2.566901e-05
2.841650e-05
3.052403e-05
3.199812e-05
3.291580e-05
3.339600e-05
3.356050e-05
3.356783e-05
3.373263e-05
3.458926e-05
3.603407e-05
0.000000e+00
2.447486e-06
4.674397e-06
7.008543e-06
9.133171e-06
1.101623e-05
1.264850e-05
1.399984e-05
1.503687e-05
1.575654e-05
1.618913e-05
1.639758e-05
1.648093e-05
1.657469e-05
1.679703e-05
1.729493e-05
1.811340e-05
0.000000e+00
-5.414605e-09
-1.141880e-08
-1.793124e-08
-2.507932e-08
-3.426135e-08
-4.864009e-08
-7.313771e-08
-1.122980e-07
-1.668064e-07
-2.295041e-07
-2.799647e-07
-2.814082e-07
-1.994732e-07
-5.920602e-08
1.332592e-07
4.900714e-07
0.000000e+00
-2.457246e-06
-4.694499e-06
-7.040209e-06
-9.177834e-06
-1.107586e-05
-1.272902e-05
-1.411302e-05
-1.520053e-05
-1.599201e-05
-1.651429e-05
-1.681294e-05
-1.694202e-05
-1.696457e-05
-1.695964e-05
-1.693962e-05
-1.681279e-05
0.000000e+00
-4.910382e-06
-1.000909e-05
-1.427457e-05
-1.847610e-05
-2.236420e-05
-2.573420e-05
-2.848461e-05
-3.057858e-05
-3.203089e-05
-3.294066e-05
-3.345525e-05
-3.372051e-05
-3.385620e-05
-3.394148e-05
-3.398591e-05
-3.395541e-05
0.000000e+00
-6.562242e-06
-1.427888e-05
-2.050874e-05
-2.671903e-05
-3.267793e-05
-3.789884e-05
-4.218015e-05
-4.545235e-05
-4.773243e-05
-4.918522e-05
-5.005323e-05
-5.055520e-05
-5.084557e-05
-5.101475e-05
-5.109788e-05
-5.111087e-05
0.000000e+00
-8.952494e-06
-1.774138e-05
-2.592915e-05
-3.415017e-05
-4.200518e-05
-4.899195e-05
-5.486026e-05
-5.947420e-05
-6.282990e-05
-6.509893e-05
-6.654961e-05
-6.743895e-05
-6.795962e-05
-6.823413e-05
-6.833905e-05
-6.835663e-05
0.000000e+00
7.875473e-06
1.357408e-05
2.034011e-05
2.919046e-05
3.975556e-05
5.187240e-05
6.540814e-05
8.010568e-05
9.569938e-05
1.119858e-04
1.288092e-04
1.460860e-04
1.639881e-04
1.835291e-04
2.054708e-04
2.280257e-04
0.000000e+00
4.052370e-06
9.909462e-06
1.670192e-05
2.555562e-05
3.639197e-05
4.898824e-05
6.307505e-05
7.834527e-05
9.447356e-05
1.111949e-04
1.283319e-04
1.458103e-04
1.637226e-04
1.824775e-04
2.032227e-04
2.250954e-04
0.000000e+00
1.767160e-06
6.990714e-06
1.403492e-05
2.295861e-05
3.401522e-05
4.695687e-05
6.143915e-05
7.711254e-05
9.362333e-05
1.106686e-04
1.280525e-04
1.456865e-04
1.635050e-04
1.814207e-04
2.008277e-04
2.216488e-04
0.000000e+00
1.011748e-06
5.667117e-06
1.273813e-05
2.182429e-05
3.300005e-05
4.606564e-05
6.069733e-05
7.653498e-05
9.321439e-05
1.104179e-04
1.279240e-04
1.455950e-04
1.632785e-04
1.808242e-04
1.992640e-04
2.188203e-04
0.000000e+00
8.659876e-07
5.302751e-06
1.230968e-05
2.148997e-05
3.270870e-05
4.580639e-05
6.048064e-05
7.637056e-05
9.310532e-05
1.103586e-04
1.278888e-04
1.455291e-04
1.631344e-04
1.806352e-04
1.985702e-04
2.169978e-04
0.000000e+00
1.012774e-06
5.666967e-06
1.273464e-05
2.181671e-05
3.299222e-05
4.606702e-05
6.071989e-05
7.658638e-05
9.329226e-05
1.105057e-04
1.279824e-04
1.455581e-04
1.631198e-04
1.806465e-04
1.983217e-04
2.160382e-04
0.000000e+00
1.768659e-06
6.990675e-06
1.403015e-05
2.294776e-05
3.400496e-05
4.696359e-05
6.148416e-05
7.721042e-05
9.377218e-05
1.108448e-04
1.281965e-04
1.456761e-04
1.631875e-04
1.806940e-04
1.982150e-04
2.156176e-04
0.000000e+00
4.055232e-06
9.912303e-06
1.670156e-05
2.555199e-05
3.639154e-05
4.900493e-05
6.312739e-05
7.844807e-05
9.463056e-05
1.113913e-04
1.285166e-04
1.458499e-04
1.632803e-04
1.807374e-04
1.981679e-04
2.154839e-04
0.000000e+00
7.881066e-06
1.358038e-05
2.034593e-05
2.919791e-05
3.976876e-05
5.189617e-05
6.544688e-05
8.016627e-05
9.579262e-05
1.121130e-04
1.289339e-04
1.460764e-04
1.633958e-04
1.807868e-04
1.981642e-04
2.154646e-04


2.145117e+00
2.109885e+00
2.247932e+00
2.475151e+00
2.667984e+00
2.898401e+00
3.173203e+00
3.455366e+00
3.712281e+00
3.922117e+00
4.074741e+00
4.169657e+00
4.194785e+00
4.086368e+00
3.853581e+00
3.672959e+00
2.659483e+00
2.622638e+00
2.714257e+00
2.879894e+00
3.023078e+00
3.198604e+00
3.411277e+00
3.631384e+00
3.833407e+00
3.999427e+00
4.120164e+00
4.193715e+00
4.205522e+00
4.090179e+00
3.861903e+00
3.687034e+00
3.445669e+00
3.415144e+00
3.452158e+00
3.527000e+00
3.593270e+00
3.683184e+00
3.794929e+00
3.912975e+00
4.023849e+00
4.116526e+00
4.184102e+00
4.223916e+00
4.223064e+00
4.128859e+00
3.949725e+00
3.817335e+00
3.957248e+00
3.936547e+00
3.938692e+00
3.953149e+00
3.973779e+00
4.006610e+00
4.049216e+00
4.096629e+00
4.143651e+00
4.184558e+00
4.215134e+00
4.233681e+00
4.233135e+00
4.184389e+00
4.089574e+00
4.019478e+00
3.957208e+00
3.936453e+00
3.938445e+00
3.952570e+00
3.972622e+00
4.004614e+00
4.046101e+00
4.092028e+00
4.137199e+00
4.176295e+00
4.206096e+00
4.226774e+00
4.237256e+00
4.227215e+00
4.196465e+00
4.172525e+00
3.445348e+00
3.414631e+00
3.451190e+00
3.525161e+00
3.590226e+00
3.678921e+00
3.789581e+00
3.906155e+00
4.014427e+00
4.103651e+00
4.169112e+00
4.213238e+00
4.241210e+00
4.254527e+00
4.255794e+00
4.253748e+00
2.658566e+00
2.621419e+00
2.712361e+00
2.876972e+00
3.019349e+00
3.195470e+00
3.410634e+00
3.633869e+00
3.837305e+00
4.001890e+00
4.120288e+00
4.197330e+00
4.244064e+00
4.270443e+00
4.283580e+00
4.288651e+00
2.143725e+00
2.108139e+00
2.245484e+00
2.471752e+00
2.664464e+00
2.897373e+00
3.178054e+00
3.467696e+00
3.730157e+00
3.941281e+00
4.092202e+00
4.189195e+00
4.246499e+00
4.278167e+00
4.294171e+00
4.300804e+00


-4.209646e-01
-1.895445e-01
-1.159142e-01
-1.500831e-01
-1.177133e-01
-7.899694e-02
-4.204329e-02
1.800015e-02
1.112543e-01
2.299720e-01
3.557010e-01
4.677652e-01
5.534609e-01
6.133338e-01
6.763109e-01
-3.276017e-01
5.165040e-01
4.034405e-01
3.840055e-01
3.574134e-01
3.670860e-01
3.820163e-01
3.984456e-01
4.300983e-01
4.850446e-01
5.631523e-01
6.583086e-01
7.615621e-01
8.625515e-01
9.355111e-01
8.067586e-01
-9.861658e-01
8.331115e-01
7.495966e-01
6.849600e-01
6.560791e-01
6.492337e-01
6.479481e-01
6.505894e-01
6.617262e-01
6.855425e-01
7.231411e-01
7.700361e-01
8.127899e-01
8.232114e-01
7.451678e-01
4.783051e-01
4.579103e-03
9.423059e-01
8.765633e-01
8.205145e-01
7.897094e-01
7.760728e-01
7.677661e-01
7.600518e-01
7.524042e-01
7.460578e-01
7.411305e-01
7.333118e-01
7.113133e-01
6.589568e-01
5.752576e-01
5.180735e-01
5.122321e-01
9.427255e-01
8.771058e-01
8.210289e-01
7.897191e-01
7.746994e-01
7.634787e-01
7.502005e-01
7.328442e-01
7.112308e-01
6.853674e-01
6.546212e-01
6.194620e-01
5.890703e-01
5.939203e-01
6.690790e-01
7.941532e-01
8.340619e-01
7.508623e-01
6.862610e-01
6.565591e-01
6.471936e-01
6.402784e-01
6.318567e-01
6.234206e-01
6.160642e-01
6.098451e-01
6.057392e-01
6.100359e-01
6.386837e-01
7.102119e-01
8.209569e-01
9.353826e-01
5.171428e-01
4.043200e-01
3.849599e-01
3.582665e-01
3.670272e-01
3.793164e-01
3.904638e-01
4.134968e-01
4.556511e-01
5.154762e-01
5.865106e-01
6.636826e-01
7.481974e-01
8.423673e-01
9.321359e-01
9.887331e-01
-4.216389e-01
-1.908380e-01
-1.174920e-01
-1.516886e-01
-1.189781e-01
-7.940397e-02
-3.850410e-02
3.447049e-02
1.567883e-01
3.246007e-01
5.165255e-01
7.016184e-01
8.503575e-01
9.454612e-01
9.893228e-01
9.997797e-01
1 2 19 18
2 3 20 19
3 4 21 20
4 5 22 21
5 6 23 22
6 7 24 23
7 8 25 24
8 9 26 25
9 10 27 26
10 11 28 27
11 12 29 28
12 13 30 29
13 14 31 30
14 15 32 31
15 16 33 32
16 17 34 33
18 19 36 35
19 20 37 36
20 21 38 37
21 22 39 38
22 23 40 39
23 24 41 40
24 25 42 41
25 26 43 42
26 27 44 43
27 28 45 44
28 29 46 45
29 30 47 46
30 31 48 47
31 32 49 48
32 33 50 49
33 34 51 50
35 36 53 52
36 37 54 53
37 38 55 54
38 39 56 55
39 40 57 56
40 41 58 57
41 42 59 58
42 43 60 59
43 44 61 60
44 45 62 61
45 46 63 62
46 47 64 63
47 48 65 64
48 49 66 65
49 50 67 66
50 51 68 67
52 53 70 69
53 54 71 70
54 55 72 71
55 56 73 72
56 57 74 73
57 58 75 74
58 59 76 75
59 60 77 76
60 61 78 77
61 62 79 78
62 63 80 79
63 64 81 80
64 65 82 81
65 66 83 82
66 67 84 83
67 68 85 84
69 70 87 86
70 71 88 87
71 72 89 88
72 73 90 89
73 74 91 90
74 75 92 91
75 76 93 92
76 77 94 93
77 78 95 94
78 79 96 95
79 80 97 96
80 81 98 97
81 82 99 98
82 83 100 99
83 84 101 100
84 85 102 101
86 87 104 103
87 88 105 104
88 89 106 105
89 90 107 106
90 91 108 107
91 92 109 108
92 93 110 109
93 94 111 110
94 95 112 111
95 96 113 112
96 97 114 113
97 98 115 114
98 99 116 115
99 100 117 116
100 101 118 117
101 102 119 118
103 104 121 120
104 105 122 121
105 106 123 122
106 107 124 123
107 108 125 124
108 109 126 125
109 110 127 126
110 111 128 127
111 112 129 128
112 113 130 129
113 114 131 130
114 115 132 131
115 116 133 132
116 117 134 133
117 118 135 134
118 119 136 135
120 121 138 137
121 122 139 138
122 123 140 139
123 124 141 140
124 125 142 141
125 126 143 142
126 127 144 143
127 128 145 144
128 129 146 145
129 130 147 146
130 131 148 147
131 132 149 148
132 133 150 149
133 134 151 150
134 135 152 151
135 136 153 152
