TITLE = "Solution"
VARIABLES = x, y, u, v, psiu, psiv, t, stress
ZONE T="structure" N=153 E=128 F=FEBLOCK ET=QUADRILATERAL VARLOCATION=([7,8]=cellcentered)
0.000000e+00
1.250000e+01
2.500000e+01
3.750000e+01
5.000000e+01
6.250000e+01
7.500000e+01
8.750000e+01
1.000000e+02
1.125000e+02
1.250000e+02
1.375000e+02
1.500000e+02
1.625000e+02
1.750000e+02
1.875000e+02
2.000000e+02
0.000000e+00
1.250000e+01
2.500000e+01
3.750000e+01
5.000000e+01
6.250000e+01
7.500000e+01
8.750000e+01
1.000000e+02
1.125000e+02
1.250000e+02
1.375000e+02
1.500000e+02
1.625000e+02
1.750000e+02
1.875000e+02
2.000000e+02
0.000000e+00
1.250000e+01
2.500000e+01
3.750000e+01
5.000000e+01
6.250000e+01
7.500000e+01
8.750000e+01
1.000000e+02
1.125000e+02
1.250000e+02
1.375000e+02
1.500000e+02
1.625000e+02
1.750000e+02
1.875000e+02
2.000000e+02
0.000000e+00
1.250000e+01
2.500000e+01
3.750000e+01
5.000000e+01
6.250000e+01
7.500000e+01
8.750000e+01
1.000000e+02
1.125000e+02
1.250000e+02
1.375000e+02
1.500000e+02
1.625000e+02
1.750000e+02
1.875000e+02
2.000000e+02
0.000000e+00
1.250000e+01
2.500000e+01
3.750000e+01
5.000000e+01
6.250000e+01
7.500000e+01
8.750000e+01
1.000000e+02
1.125000e+02
1.250000e+02
1.375000e+02
1.500000e+02
1.625000e+02
1.750000e+02
1.875000e+02
2.000000e+02
0.000000e+00
1.250000e+01
2.500000e+01
3.750000e+01
5.000000e+01
6.250000e+01
7.500000e+01
8.750000e+01
1.000000e+02
1.125000e+02
1.250000e+02
1.375000e+02
1.500000e+02
1.625000e+02
1.750000e+02
1.875000e+02
2.000000e+02
0.000000e+00
1.250000e+01
2.500000e+01
3.750000e+01
5.000000e+01
6.250000e+01
7.500000e+01
8.750000e+01
1.000000e+02
1.125000e+02
1.250000e+02
1.375000e+02
1.500000e+02
1.625000e+02
1.750000e+02
1.875000e+02
2.000000e+02
0.000000e+00
1.250000e+01
2.500000e+01
3.750000e+01
5.000000e+01
6.250000e+01
7.500000e+01
8.750000e+01
1.000000e+02
1.125000e+02
1.250000e+02
1.375000e+02
1.500000e+02
1.625000e+02
1.750000e+02
1.875000e+02
2.000000e+02
0.000000e+00
1.250000e+01
2.500000e+01
3.750000e+01
5.000000e+01
6.250000e+01
7.500000e+01
8.750000e+01
1.000000e+02
1.125000e+02
1.250000e+02
1.375000e+02
1.500000e+02
1.625000e+02
1.750000e+02
1.875000e+02
2.000000e+02
0.000000e+00
0.000000e+00
0.000000e+00
0.000000e+00
0.000000e+00
0.000000e+00
0.000000e+00
0.000000e+00
0.000000e+00
0.000000e+00
0.000000e+00
0.000000e+00
0.000000e+00
0.000000e+00
0.000000e+00
0.000000e+00
0.000000e+00
1.250000e+01
1.250000e+01
1.250000e+01
1.250000e+01
1.250000e+01
1.250000e+01
1.250000e+01
1.250000e+01
1.250000e+01
1.250000e+01
1.250000e+01
1.250000e+01
1.250000e+01
1.250000e+01
1.250000e+01
1.250000e+01
1.250000e+01
2.500000e+01
2.500000e+01
2.500000e+01
2.500000e+01
2.500000e+01
2.500000e+01
2.500000e+01
2.500000e+01
2.500000e+01
2.500000e+01
2.500000e+01
2.500000e+01
2.500000e+01
2.500000e+01
2.500000e+01
2.500000e+01
2.500000e+01
3.750000e+01
3.750000e+01
3.750000e+01
3.750000e+01
3.750000e+01
3.750000e+01
3.750000e+01
3.750000e+01
3.750000e+01
3.750000e+01
3.750000e+01
3.750000e+01
3.750000e+01
3.750000e+01
3.750000e+01
3.750000e+01
3.750000e+01
5.000000e+01
5.000000e+01
5.000000e+01
5.000000e+01
5.000000e+01
5.000000e+01
5.000000e+01
5.000000e+01
5.000000e+01
5.000000e+01
5.000000e+01
5.000000e+01
5.000000e+01
5.000000e+01
5.000000e+01
5.000000e+01
5.000000e+01
6.250000e+01
6.250000e+01
6.250000e+01
6.250000e+01
6.250000e+01
6.250000e+01
6.250000e+01
6.250000e+01
6.250000e+01
6.250000e+01
6.250000e+01
6.250000e+01
6.250000e+01
6.250000e+01
6.250000e+01
6.250000e+01
6.250000e+01
7.500000e+01
7.500000e+01
7.500000e+01
7.500000e+01
7.500000e+01
7.500000e+01
7.500000e+01
7.500000e+01
7.500000e+01
7.500000e+01
7.500000e+01
7.500000e+01
7.500000e+01
7.500000e+01
7.500000e+01
7.500000e+01
7.500000e+01
8.750000e+01
8.750000e+01
8.750000e+01
8.750000e+01
8.750000e+01
8.750000e+01
8.750000e+01
8.750000e+01
8.750000e+01
8.750000e+01
8.750000e+01
8.750000e+01
8.750000e+01
8.750000e+01
8.750000e+01
8.750000e+01
8.750000e+01
1.000000e+02
1.000000e+02
1.000000e+02
1.000000e+02
1.000000e+02
1.000000e+02
1.000000e+02
1.000000e+02
1.000000e+02
1.000000e+02
1.000000e+02
1.000000e+02
1.000000e+02
1.000000e+02
1.000000e+02
1.000000e+02
1.000000e+02
0.000000e+00
-9.881864e-01
-1.679457e+00
-2.427979e+00
-3.108678e+00
-3.755523e+00
-4.451254e+00
-5.088102e+00
-5.760857e+00
-6.401301e+00
-7.058958e+00
-7.717025e+00
-8.376247e+00
-9.154640e+00
-1.007433e+01
-1.082651e+01
-1.127709e+01
0.000000e+00
-4.433826e-01
-9.100227e-01
-1.419412e+00
-1.930041e+00
-2.414863e+00
-2.926762e+00
-3.425063e+00
-3.921729e+00
-4.422188e+00
-4.918458e+00
-5.417153e+00
-5.902501e+00
-6.426508e+00
-6.892969e+00
-7.016143e+00
-7.194670e+00
0.000000e+00
-1.480994e-01
-3.538847e-01
-6.438297e-01
-9.817786e-01
-1.308101e+00
-1.662013e+00
-2.015896e+00
-2.361700e+00
-2.720481e+00
-3.060569e+00
-3.392917e+00
-3.686515e+00
-3.925076e+00
-4.030465e+00
-4.027037e+00
-4.176136e+00
0.000000e+00
-7.864582e-02
-1.625371e-01
-3.084771e-01
-4.526237e-01
-6.276831e-01
-8.085564e-01
-9.775258e-01
-1.161130e+00
-1.323678e+00
-1.485324e+00
-1.622663e+00
-1.714299e+00
-1.721038e+00
-1.649078e+00
-1.630825e+00
-1.749778e+00
0.000000e+00
-2.776758e-03
-6.079707e-03
-9.467773e-03
-1.240167e-02
-1.394513e-02
-1.298993e-02
-8.159522e-03
1.245177e-03
1.828150e-02
4.292657e-02
8.695658e-02
1.680735e-01
2.818275e-01
3.996387e-01
4.378142e-01
3.393810e-01
0.000000e+00
7.390166e-02
1.525751e-01
2.920824e-01
4.307925e-01
6.019260e-01
7.842206e-01
9.623290e-01
1.166117e+00
1.359051e+00
1.571679e+00
1.791537e+00
2.014759e+00
2.216942e+00
2.351277e+00
2.383974e+00
2.318877e+00
0.000000e+00
1.464142e-01
3.494674e-01
6.357402e-01
9.692002e-01
1.291477e+00
1.644077e+00
2.004292e+00
2.372237e+00
2.771546e+00
3.148123e+00
3.515085e+00
3.849219e+00
4.120864e+00
4.294439e+00
4.349451e+00
4.327506e+00
0.000000e+00
4.446166e-01
9.105721e-01
1.420098e+00
1.930124e+00
2.412376e+00
2.921628e+00
3.415274e+00
3.904990e+00
4.397415e+00
4.875900e+00
5.350936e+00
5.782794e+00
6.128341e+00
6.343644e+00
6.438408e+00
6.455732e+00
0.000000e+00
9.906148e-01
1.683116e+00
2.435946e+00
3.121937e+00
3.770980e+00
4.469471e+00
5.097385e+00
5.739830e+00
6.329052e+00
6.906706e+00
7.505942e+00
8.039605e+00
8.445955e+00
8.648108e+00
8.701821e+00
8.702499e+00
0.000000e+00
-6.157086e-01
-1.356503e+00
-2.351992e+00
-3.521832e+00
-4.863335e+00
-6.389141e+00
-8.072932e+00
-9.930139e+00
-1.195001e+01
-1.413314e+01
-1.647747e+01
-1.898941e+01
-2.171953e+01
-2.467980e+01
-2.804078e+01
-3.305696e+01
0.000000e+00
-4.118210e-01
-1.187501e+00
-2.166935e+00
-3.351767e+00
-4.688092e+00
-6.212773e+00
-7.902970e+00
-9.755208e+00
-1.178158e+01
-1.396103e+01
-1.631101e+01
-1.881446e+01
-2.152782e+01
-2.454138e+01
-2.795609e+01
-3.200948e+01
0.000000e+00
-3.851976e-01
-1.086366e+00
-2.063250e+00
-3.231188e+00
-4.563536e+00
-6.090840e+00
-7.774935e+00
-9.635859e+00
-1.166043e+01
-1.385124e+01
-1.621144e+01
-1.872654e+01
-2.146583e+01
-2.453239e+01
-2.780267e+01
-3.083373e+01
0.000000e+00
-4.431371e-01
-1.082127e+00
-2.036558e+00
-3.166662e+00
-4.495138e+00
-6.025265e+00
-7.700987e+00
-9.578291e+00
-1.160371e+01
-1.381433e+01
-1.619387e+01
-1.873609e+01
-2.147501e+01
-2.446488e+01
-2.749177e+01
-3.011019e+01
0.000000e+00
-4.511793e-01
-1.103307e+00
-2.020330e+00
-3.154433e+00
-4.480731e+00
-6.005382e+00
-7.697799e+00
-9.571873e+00
-1.161756e+01
-1.383785e+01
-1.622885e+01
-1.877797e+01
-2.147635e+01
-2.431413e+01
-2.712671e+01
-2.950749e+01
0.000000e+00
-4.420326e-01
-1.081386e+00
-2.038100e+00
-3.173995e+00
-4.509215e+00
-6.051822e+00
-7.740228e+00
-9.634889e+00
-1.168366e+01
-1.390492e+01
-1.628126e+01
-1.881163e+01
-2.146615e+01
-2.417738e+01
-2.680858e+01
-2.907343e+01
0.000000e+00
-3.836576e-01
-1.085370e+00
-2.066059e+00
-3.242945e+00
-4.589150e+00
-6.138024e+00
-7.849991e+00
-9.741587e+00
-1.179658e+01
-1.399227e+01
-1.634838e+01
-1.885311e+01
-2.146703e+01
-2.409327e+01
-2.660230e+01
-2.884413e+01
0.000000e+00
-4.103643e-01
-1.186440e+00
-2.169754e+00
-3.364145e+00
-4.716431e+00
-6.266494e+00
-7.991063e+00
-9.879478e+00
-1.193255e+01
-1.410939e+01
-1.644779e+01
-1.893079e+01
-2.150896e+01
-2.407260e+01
-2.651417e+01
-2.878425e+01
0.000000e+00
-6.145804e-01
-1.355869e+00
-2.355653e+00
-3.534782e+00
-4.892272e+00
-6.443470e+00
-8.159456e+00
-1.005023e+01
-1.208974e+01
-1.426535e+01
-1.659672e+01
-1.905435e+01
-2.159008e+01
-2.409752e+01
-2.649897e+01
-2.878311e+01


0.000000e+00
1.533716e-05
2.502653e-05
3.716022e-05
5.292549e-05
6.626727e-05
8.144356e-05
9.609296e-05
1.102782e-04
1.251846e-04
1.404522e-04
1.547777e-04
1.721243e-04
1.870352e-04
1.955844e-04
2.008738e-04
2.077112e-04
0.000000e+00
1.146090e-05
1.981154e-05
2.846424e-05
4.128727e-05
5.192616e-05
6.230608e-05
7.366627e-05
8.375147e-05
9.492065e-05
1.053657e-04
1.151204e-04
1.264889e-04
1.350901e-04
1.355008e-04
1.391510e-04
1.449905e-04
0.000000e+00
9.641589e-06
1.530132e-05
2.076172e-05
3.007751e-05
3.695666e-05
4.324401e-05
5.082098e-05
5.672641e-05
6.348746e-05
6.932077e-05
7.396261e-05
7.854109e-05
8.006645e-05
7.886702e-05
8.124693e-05
8.553232e-05
0.000000e+00
5.275437e-06
7.208923e-06
1.042241e-05
1.465489e-05
1.646323e-05
1.977904e-05
2.246228e-05
2.486531e-05
2.750797e-05
2.950076e-05
2.947160e-05
2.830159e-05
2.648435e-05
2.638933e-05
2.949135e-05
3.513357e-05
0.000000e+00
-1.109686e-07
-2.832926e-07
-5.395474e-07
-9.781270e-07
-1.563659e-06
-2.437258e-06
-3.519754e-06
-4.282312e-06
-5.551999e-06
-7.861284e-06
-1.167632e-05
-1.455489e-05
-1.581223e-05
-1.541746e-05
-1.316922e-05
-9.247328e-06
0.000000e+00
-5.430343e-06
-7.582912e-06
-1.121229e-05
-1.588125e-05
-1.834137e-05
-2.294170e-05
-2.654486e-05
-3.071194e-05
-3.358072e-05
-3.736406e-05
-4.227471e-05
-4.679625e-05
-4.813295e-05
-4.864403e-05
-4.915436e-05
-4.756327e-05
0.000000e+00
-9.584941e-06
-1.530941e-05
-2.093829e-05
-3.033668e-05
-3.749298e-05
-4.388135e-05
-5.198659e-05
-5.814360e-05
-6.397018e-05
-6.869629e-05
-7.340339e-05
-7.752540e-05
-8.066350e-05
-8.257227e-05
-8.444772e-05
-8.518719e-05
0.000000e+00
-1.137370e-05
-1.971018e-05
-2.837940e-05
-4.111452e-05
-5.192760e-05
-6.217570e-05
-7.368685e-05
-8.392589e-05
-9.470460e-05
-1.050015e-04
-1.126583e-04
-1.176534e-04
-1.225490e-04
-1.259330e-04
-1.271307e-04
-1.272293e-04
0.000000e+00
-1.536576e-05
-2.499236e-05
-3.702986e-05
-5.260992e-05
-6.575073e-05
-8.070154e-05
-9.454889e-05
-1.088972e-04
-1.238146e-04
-1.414664e-04
-1.563624e-04
-1.654446e-04
-1.704171e-04
-1.725998e-04
-1.727698e-04
-1.725746e-04
0.000000e+00
1.262301e-05
1.998707e-05
3.225101e-05
4.808812e-05
6.517494e-05
8.782728e-05
1.144136e-04
1.448095e-04
1.801073e-04
2.192193e-04
2.631989e-04
3.139316e-04
3.676218e-04
4.288348e-04
4.993966e-04
5.721585e-04
0.000000e+00
7.674367e-06
1.608712e-05
2.615899e-05
4.164049e-05
5.930462e-05
8.139970e-05
1.083763e-04
1.386770e-04
1.737937e-04
2.131561e-04
2.569691e-04
3.073205e-04
3.632887e-04
4.240057e-04
4.920718e-04
5.617641e-04
0.000000e+00
4.273882e-06
1.219570e-05
2.135416e-05
3.589754e-05
5.420310e-05
7.637330e-05
1.035895e-04
1.341537e-04
1.692711e-04
2.087072e-04
2.528797e-04
3.036822e-04
3.612926e-04
4.201865e-04
4.846274e-04
5.519332e-04
0.000000e+00
3.033616e-06
1.025193e-05
1.940281e-05
3.364117e-05
5.164866e-05
7.419073e-05
1.021075e-04
1.331828e-04
1.675051e-04
2.069218e-04
2.519411e-04
3.033463e-04
3.600182e-04
4.176038e-04
4.768504e-04
5.376892e-04
0.000000e+00
2.588423e-06
9.759577e-06
1.910180e-05
3.314403e-05
5.087330e-05
7.354790e-05
1.020275e-04
1.333109e-04
1.669405e-04
2.056516e-04
2.525571e-04
3.040317e-04
3.601099e-04
4.164563e-04
4.705158e-04
5.218237e-04
0.000000e+00
3.150967e-06
1.040397e-05
1.966240e-05
3.384827e-05
5.163169e-05
7.439184e-05
1.023525e-04
1.335550e-04
1.667900e-04
2.061766e-04
2.545531e-04
3.065415e-04
3.602792e-04
4.162963e-04
4.682024e-04
5.112107e-04
0.000000e+00
4.409339e-06
1.242123e-05
2.171595e-05
3.613414e-05
5.434655e-05
7.644170e-05
1.035945e-04
1.338178e-04
1.679251e-04
2.084927e-04
2.578056e-04
3.100048e-04
3.621260e-04
4.152789e-04
4.655854e-04
5.080171e-04
0.000000e+00
7.786393e-06
1.634545e-05
2.652769e-05
4.197654e-05
5.955912e-05
8.156309e-05
1.082287e-04
1.377818e-04
1.721800e-04
2.129527e-04
2.611788e-04
3.129564e-04
3.642100e-04
4.152676e-04
4.636585e-04
5.085330e-04
0.000000e+00
1.272190e-05
2.024797e-05
3.261193e-05
4.845424e-05
6.548800e-05
8.803208e-05
1.142496e-04
1.439984e-04
1.786401e-04
2.196308e-04
2.651500e-04
3.150155e-04
3.654588e-04
4.155041e-04
4.631813e-04
5.088106e-04


5.331068e+00
5.811822e+00
6.486944e+00
5.551329e+00
4.889328e+00
5.101870e+00
5.298253e+00
5.635098e+00
5.593752e+00
5.783386e+00
6.094994e+00
7.001211e+00
8.682253e+00
9.625716e+00
8.926907e+00
7.771345e+00
7.834718e+00
8.185262e+00
8.372541e+00
8.080061e+00
7.665491e+00
7.761886e+00
7.946414e+00
7.966670e+00
8.062202e+00
8.062380e+00
8.202326e+00
8.628046e+00
9.339333e+00
9.624984e+00
8.188883e+00
6.286245e+00
9.690407e+00
9.681095e+00
9.829814e+00
9.663831e+00
9.651769e+00
9.690126e+00
9.641963e+00
9.713888e+00
9.657975e+00
9.704450e+00
9.695936e+00
9.692088e+00
9.709394e+00
9.213759e+00
7.755725e+00
5.974896e+00
9.916910e+00
9.915605e+00
9.915182e+00
9.907996e+00
9.903359e+00
9.898953e+00
9.892975e+00
9.890841e+00
9.885769e+00
9.866941e+00
9.800153e+00
9.286752e+00
8.657278e+00
8.199701e+00
7.727163e+00
7.531074e+00
9.916650e+00
9.914966e+00
9.914062e+00
9.905363e+00
9.898168e+00
9.890332e+00
9.877192e+00
9.871798e+00
9.851822e+00
9.720397e+00
9.137166e+00
8.273043e+00
7.425389e+00
7.488359e+00
8.340143e+00
8.825358e+00
9.690720e+00
9.678311e+00
9.823098e+00
9.647957e+00
9.619925e+00
9.631978e+00
9.546548e+00
9.575628e+00
9.237139e+00
8.621146e+00
8.070281e+00
7.582584e+00
7.753333e+00
8.396763e+00
9.196848e+00
9.755824e+00
7.843453e+00
8.185728e+00
8.362122e+00
8.052336e+00
7.624261e+00
7.682924e+00
7.781458e+00
7.664382e+00
7.405783e+00
7.020582e+00
7.236306e+00
8.180988e+00
8.946314e+00
9.559554e+00
9.845969e+00
9.899213e+00
5.356687e+00
5.819581e+00
6.481692e+00
5.535714e+00
4.876246e+00
5.072883e+00
5.172609e+00
5.448122e+00
5.401939e+00
5.938201e+00
7.478653e+00
8.860575e+00
9.744440e+00
9.873534e+00
9.909150e+00
9.922249e+00


-7.939651e-01
-1.956133e-01
-3.826093e-01
-2.461419e-01
-1.278660e-01
-2.788372e-01
-1.384660e-01
-2.052670e-01
-1.544614e-01
-1.802771e-01
-1.868752e-01
-1.629304e-01
-4.886628e-01
-6.359861e-01
3.264151e-01
-8.470599e-01
6.131767e-01
4.694028e-01
3.022896e-01
2.288977e-01
2.807137e-01
1.722306e-01
1.795811e-01
1.694579e-01
1.215146e-01
1.426688e-01
1.446976e-01
2.492538e-01
3.023225e-01
5.304643e-01
6.999243e-01
-9.552498e-01
7.303278e-01
4.756898e-01
8.015686e-02
1.058237e-02
-3.008231e-02
-1.416544e-01
-6.801448e-02
-1.082301e-01
-4.556099e-02
-9.079844e-04
6.568457e-02
2.086285e-01
2.938701e-01
1.599392e-01
-1.299979e-02
-1.812245e-01
7.354029e-01
5.592972e-01
2.062467e-01
8.280457e-02
-1.663545e-02
-7.388277e-02
-1.602940e-02
-3.920601e-02
3.324607e-02
4.100797e-02
8.116325e-02
1.258339e-01
5.822510e-02
-2.712309e-01
-3.736144e-01
-6.692942e-02
7.379027e-01
5.629876e-01
2.120919e-01
8.475045e-02
-1.757807e-02
-8.880131e-02
-3.846150e-02
-7.579311e-02
-2.323040e-02
-1.322461e-02
2.419130e-02
1.703811e-02
-3.677360e-02
-1.432476e-01
-1.038348e-01
3.214278e-01
7.360402e-01
4.858304e-01
9.575946e-02
2.089078e-02
-2.892966e-02
-1.697256e-01
-1.286796e-01
-2.109234e-01
-1.691946e-01
-9.652556e-02
-8.876915e-02
-1.044101e-01
-9.077296e-02
5.377746e-02
3.341981e-01
7.307756e-01
6.159022e-01
4.764988e-01
3.098172e-01
2.371723e-01
2.869110e-01
1.641756e-01
1.440695e-01
8.135667e-02
-4.337995e-02
-3.711304e-02
-1.014343e-01
-7.176783e-02
7.504405e-02
3.784731e-01
7.144619e-01
9.482780e-01
-8.012557e-01
-1.964790e-01
-3.919621e-01
-2.556870e-01
-1.278031e-01
-2.809925e-01
-1.168005e-01
-1.429481e-01
-6.170980e-02
-2.898911e-02
-8.895435e-02
8.591345e-02
4.006575e-01
7.730192e-01
9.525000e-01
9.987251e-01
1 2 19 18
2 3 20 19
3 4 21 20
4 5 22 21
5 6 23 22
6 7 24 23
7 8 25 24
8 9 26 25
9 10 27 26
10 11 28 27
11 12 29 28
12 13 30 29
13 14 31 30
14 15 32 31
15 16 33 32
16 17 34 33
18 19 36 35
19 20 37 36
20 21 38 37
21 22 39 38
22 23 40 39
23 24 41 40
24 25 42 41
25 26 43 42
26 27 44 43
27 28 45 44
28 29 46 45
29 30 47 46
30 31 48 47
31 32 49 48
32 33 50 49
33 34 51 50
35 36 53 52
36 37 54 53
37 38 55 54
38 39 56 55
39 40 57 56
40 41 58 57
41 42 59 58
42 43 60 59
43 44 61 60
44 45 62 61
45 46 63 62
46 47 64 63
47 48 65 64
48 49 66 65
49 50 67 66
50 51 68 67
52 53 70 69
53 54 71 70
54 55 72 71
55 56 73 72
56 57 74 73
57 58 75 74
58 59 76 75
59 60 77 76
60 61 78 77
61 62 79 78
62 63 80 79
63 64 81 80
64 65 82 81
65 66 83 82
66 67 84 83
67 68 85 84
69 70 87 86
70 71 88 87
71 72 89 88
72 73 90 89
73 74 91 90
74 75 92 91
75 76 93 92
76 77 94 93
77 78 95 94
78 79 96 95
79 80 97 96
80 81 98 97
81 82 99 98
82 83 100 99
83 84 101 100
84 85 102 101
86 87 104 103
87 88 105 104
88 89 106 105
89 90 107 106
90 91 108 107
91 92 109 108
92 93 110 109
93 94 111 110
94 95 112 111
95 96 113 112
96 97 114 113
97 98 115 114
98 99 116 115
99 100 117 116
100 101 118 117
101 102 119 118
103 104 121 120
104 105 122 121
105 106 123 122
106 107 124 123
107 108 125 124
108 109 126 125
109 110 127 126
110 111 128 127
111 112 129 128
112 113 130 129
113 114 131 130
114 115 132 131
115 116 133 132
116 117 134 133
117 118 135 134
118 119 136 135
120 121 138 137
121 122 139 138
122 123 140 139
123 124 141 140
124 125 142 141
125 126 143 142
126 127 144 143
127 128 145 144
128 129 146 145
129 130 147 146
130 131 148 147
131 132 149 148
132 133 150 149
133 134 151 150
134 135 152 151
135 136 153 152
