TITLE = "Solution"
VARIABLES = x, y, u, v, psiu, psiv, t, stress
ZONE T="structure" N=153 E=128 F=FEBLOCK ET=QUADRILATERAL VARLOCATION=([7,8]=cellcentered)
0.000000e+00
1.250000e+01
2.500000e+01
3.750000e+01
5.000000e+01
6.250000e+01
7.500000e+01
8.750000e+01
1.000000e+02
1.125000e+02
1.250000e+02
1.375000e+02
1.500000e+02
1.625000e+02
1.750000e+02
1.875000e+02
2.000000e+02
0.000000e+00
1.250000e+01
2.500000e+01
3.750000e+01
5.000000e+01
6.250000e+01
7.500000e+01
8.750000e+01
1.000000e+02
1.125000e+02
1.250000e+02
1.375000e+02
1.500000e+02
1.625000e+02
1.750000e+02
1.875000e+02
2.000000e+02
0.000000e+00
1.250000e+01
2.500000e+01
3.750000e+01
5.000000e+01
6.250000e+01
7.500000e+01
8.750000e+01
1.000000e+02
1.125000e+02
1.250000e+02
1.375000e+02
1.500000e+02
1.625000e+02
1.750000e+02
1.875000e+02
2.000000e+02
0.000000e+00
1.250000e+01
2.500000e+01
3.750000e+01
5.000000e+01
6.250000e+01
7.500000e+01
8.750000e+01
1.000000e+02
1.125000e+02
1.250000e+02
1.375000e+02
1.500000e+02
1.625000e+02
1.750000e+02
1.875000e+02
2.000000e+02
0.000000e+00
1.250000e+01
2.500000e+01
3.750000e+01
5.000000e+01
6.250000e+01
7.500000e+01
8.750000e+01
1.000000e+02
1.125000e+02
1.250000e+02
1.375000e+02
1.500000e+02
1.625000e+02
1.750000e+02
1.875000e+02
2.000000e+02
0.000000e+00
1.250000e+01
2.500000e+01
3.750000e+01
5.000000e+01
6.250000e+01
7.500000e+01
8.750000e+01
1.000000e+02
1.125000e+02
1.250000e+02
1.375000e+02
1.500000e+02
1.625000e+02
1.750000e+02
1.875000e+02
2.000000e+02
0.000000e+00
1.250000e+01
2.500000e+01
3.750000e+01
5.000000e+01
6.250000e+01
7.500000e+01
8.750000e+01
1.000000e+02
1.125000e+02
1.250000e+02
1.375000e+02
1.500000e+02
1.625000e+02
1.750000e+02
1.875000e+02
2.000000e+02
0.000000e+00
1.250000e+01
2.500000e+01
3.750000e+01
5.000000e+01
6.250000e+01
7.500000e+01
8.750000e+01
1.000000e+02
1.125000e+02
1.250000e+02
1.375000e+02
1.500000e+02
1.625000e+02
1.750000e+02
1.875000e+02
2.000000e+02
0.000000e+00
1.250000e+01
2.500000e+01
3.750000e+01
5.000000e+01
6.250000e+01
7.500000e+01
8.750000e+01
1.000000e+02
1.125000e+02
1.250000e+02
1.375000e+02
1.500000e+02
1.625000e+02
1.750000e+02
1.875000e+02
2.000000e+02
0.000000e+00
0.000000e+00
0.000000e+00
0.000000e+00
0.000000e+00
0.000000e+00
0.000000e+00
0.000000e+00
0.000000e+00
0.000000e+00
0.000000e+00
0.000000e+00
0.000000e+00
0.000000e+00
0.000000e+00
0.000000e+00
0.000000e+00
1.250000e+01
1.250000e+01
1.250000e+01
1.250000e+01
1.250000e+01
1.250000e+01
1.250000e+01
1.250000e+01
1.250000e+01
1.250000e+01
1.250000e+01
1.250000e+01
1.250000e+01
1.250000e+01
1.250000e+01
1.250000e+01
1.250000e+01
2.500000e+01
2.500000e+01
2.500000e+01
2.500000e+01
2.500000e+01
2.500000e+01
2.500000e+01
2.500000e+01
2.500000e+01
2.500000e+01
2.500000e+01
2.500000e+01
2.500000e+01
2.500000e+01
2.500000e+01
2.500000e+01
2.500000e+01
3.750000e+01
3.750000e+01
3.750000e+01
3.750000e+01
3.750000e+01
3.750000e+01
3.750000e+01
3.750000e+01
3.750000e+01
3.750000e+01
3.750000e+01
3.750000e+01
3.750000e+01
3.750000e+01
3.750000e+01
3.750000e+01
3.750000e+01
5.000000e+01
5.000000e+01
5.000000e+01
5.000000e+01
5.000000e+01
5.000000e+01
5.000000e+01
5.000000e+01
5.000000e+01
5.000000e+01
5.000000e+01
5.000000e+01
5.000000e+01
5.000000e+01
5.000000e+01
5.000000e+01
5.000000e+01
6.250000e+01
6.250000e+01
6.250000e+01
6.250000e+01
6.250000e+01
6.250000e+01
6.250000e+01
6.250000e+01
6.250000e+01
6.250000e+01
6.250000e+01
6.250000e+01
6.250000e+01
6.250000e+01
6.250000e+01
6.250000e+01
6.250000e+01
7.500000e+01
7.500000e+01
7.500000e+01
7.500000e+01
7.500000e+01
7.500000e+01
7.500000e+01
7.500000e+01
7.500000e+01
7.500000e+01
7.500000e+01
7.500000e+01
7.500000e+01
7.500000e+01
7.500000e+01
7.500000e+01
7.500000e+01
8.750000e+01
8.750000e+01
8.750000e+01
8.750000e+01
8.750000e+01
8.750000e+01
8.750000e+01
8.750000e+01
8.750000e+01
8.750000e+01
8.750000e+01
8.750000e+01
8.750000e+01
8.750000e+01
8.750000e+01
8.750000e+01
8.750000e+01
1.000000e+02
1.000000e+02
1.000000e+02
1.000000e+02
1.000000e+02
1.000000e+02
1.000000e+02
1.000000e+02
1.000000e+02
1.000000e+02
1.000000e+02
1.000000e+02
1.000000e+02
1.000000e+02
1.000000e+02
1.000000e+02
1.000000e+02
0.000000e+00
-9.954680e-01
-1.679189e+00
-2.431217e+00
-3.116832e+00
-3.751055e+00
-4.457958e+00
-5.087448e+00
-5.763267e+00
-6.405615e+00
-7.055760e+00
-7.723578e+00
-8.376596e+00
-9.146759e+00
-1.007756e+01
-1.083399e+01
-1.128411e+01
0.000000e+00
-4.457578e-01
-9.066923e-01
-1.419031e+00
-1.930565e+00
-2.410952e+00
-2.924959e+00
-3.423094e+00
-3.919209e+00
-4.421488e+00
-4.914140e+00
-5.417005e+00
-5.901890e+00
-6.421602e+00
-6.897738e+00
-7.024014e+00
-7.202897e+00
0.000000e+00
-1.461275e-01
-3.490172e-01
-6.396367e-01
-9.776289e-01
-1.302752e+00
-1.655990e+00
-2.012884e+00
-2.356652e+00
-2.718593e+00
-3.057536e+00
-3.391770e+00
-3.687450e+00
-3.927372e+00
-4.036542e+00
-4.034541e+00
-4.182974e+00
0.000000e+00
-7.897371e-02
-1.621603e-01
-3.096343e-01
-4.548237e-01
-6.283012e-01
-8.137166e-01
-9.791596e-01
-1.166709e+00
-1.328731e+00
-1.489744e+00
-1.628797e+00
-1.722178e+00
-1.730346e+00
-1.656720e+00
-1.635792e+00
-1.752866e+00
0.000000e+00
-3.310277e-03
-7.208152e-03
-1.125440e-02
-1.562173e-02
-1.901006e-02
-1.983721e-02
-1.704464e-02
-8.219203e-03
8.626122e-03
3.301986e-02
7.790737e-02
1.604141e-01
2.753662e-01
3.951708e-01
4.359967e-01
3.378202e-01
0.000000e+00
7.318638e-02
1.504924e-01
2.906164e-01
4.290638e-01
5.958336e-01
7.745421e-01
9.433335e-01
1.149213e+00
1.344555e+00
1.562358e+00
1.782683e+00
2.009187e+00
2.216622e+00
2.352428e+00
2.385319e+00
2.319646e+00
0.000000e+00
1.437756e-01
3.437564e-01
6.306317e-01
9.656750e-01
1.290941e+00
1.643236e+00
1.999632e+00
2.359632e+00
2.764846e+00
3.144030e+00
3.511038e+00
3.843919e+00
4.119559e+00
4.296317e+00
4.350942e+00
4.328288e+00
0.000000e+00
4.464416e-01
9.074560e-01
1.419537e+00
1.930355e+00
2.409313e+00
2.920262e+00
3.415638e+00
3.903479e+00
4.396717e+00
4.875044e+00
5.350168e+00
5.778328e+00
6.126025e+00
6.343127e+00
6.438943e+00
6.456653e+00
0.000000e+00
9.976920e-01
1.684287e+00
2.440053e+00
3.127608e+00
3.762602e+00
4.468509e+00
5.096157e+00
5.747364e+00
6.331672e+00
6.905094e+00
7.505942e+00
8.036285e+00
8.448396e+00
8.649675e+00
8.702420e+00
8.702951e+00
0.000000e+00
-6.186205e-01
-1.361694e+00
-2.362922e+00
-3.537045e+00
-4.880694e+00
-6.411983e+00
-8.098130e+00
-9.958576e+00
-1.198200e+01
-1.416683e+01
-1.651759e+01
-1.903128e+01
-2.176245e+01
-2.472668e+01
-2.808622e+01
-3.310195e+01
0.000000e+00
-4.156820e-01
-1.193300e+00
-2.176784e+00
-3.367930e+00
-4.706471e+00
-6.234541e+00
-7.929425e+00
-9.782357e+00
-1.181439e+01
-1.399456e+01
-1.634990e+01
-1.885836e+01
-2.156980e+01
-2.458652e+01
-2.800245e+01
-3.205242e+01
0.000000e+00
-3.900944e-01
-1.091533e+00
-2.073385e+00
-3.248718e+00
-4.580630e+00
-6.114691e+00
-7.799688e+00
-9.663321e+00
-1.169259e+01
-1.388390e+01
-1.625060e+01
-1.876929e+01
-2.150755e+01
-2.457655e+01
-2.785056e+01
-3.088311e+01
0.000000e+00
-4.490810e-01
-1.087906e+00
-2.047269e+00
-3.186165e+00
-4.511189e+00
-6.052825e+00
-7.723172e+00
-9.605620e+00
-1.163405e+01
-1.384696e+01
-1.623355e+01
-1.877774e+01
-2.151787e+01
-2.450692e+01
-2.754085e+01
-3.016666e+01
0.000000e+00
-4.560753e-01
-1.110263e+00
-2.031623e+00
-3.171995e+00
-4.501275e+00
-6.031464e+00
-7.721269e+00
-9.595586e+00
-1.164617e+01
-1.387353e+01
-1.626733e+01
-1.881896e+01
-2.151900e+01
-2.435637e+01
-2.717430e+01
-2.956219e+01
0.000000e+00
-4.477970e-01
-1.087581e+00
-2.049364e+00
-3.193103e+00
-4.528427e+00
-6.080315e+00
-7.759995e+00
-9.657616e+00
-1.171192e+01
-1.394375e+01
-1.631950e+01
-1.884989e+01
-2.150901e+01
-2.422147e+01
-2.685459e+01
-2.912392e+01
0.000000e+00
-3.883820e-01
-1.091528e+00
-2.078169e+00
-3.262462e+00
-4.609882e+00
-6.160486e+00
-7.869160e+00
-9.762854e+00
-1.182809e+01
-1.403021e+01
-1.638671e+01
-1.888917e+01
-2.150891e+01
-2.413905e+01
-2.664743e+01
-2.889025e+01
0.000000e+00
-4.140980e-01
-1.193377e+00
-2.182419e+00
-3.384062e+00
-4.737626e+00
-6.285694e+00
-8.010187e+00
-9.901477e+00
-1.196529e+01
-1.414535e+01
-1.648521e+01
-1.896638e+01
-2.155048e+01
-2.411851e+01
-2.655987e+01
-2.882978e+01
0.000000e+00
-6.176352e-01
-1.362403e+00
-2.369243e+00
-3.553587e+00
-4.911752e+00
-6.463816e+00
-8.178599e+00
-1.007402e+01
-1.212084e+01
-1.430045e+01
-1.663348e+01
-1.909007e+01
-2.163252e+01
-2.414312e+01
-2.654499e+01
-2.882863e+01


0.000000e+00
1.541780e-05
2.508870e-05
3.749162e-05
5.358364e-05
6.718267e-05
8.316364e-05
9.715772e-05
1.118433e-04
1.257478e-04
1.408784e-04
1.552089e-04
1.717845e-04
1.875754e-04
1.976050e-04
2.033325e-04
2.102648e-04
0.000000e+00
1.145942e-05
1.973858e-05
2.840646e-05
4.099391e-05
5.171431e-05
6.183583e-05
7.295261e-05
8.314783e-05
9.455294e-05
1.052211e-04
1.155926e-04
1.264783e-04
1.358188e-04
1.373844e-04
1.411331e-04
1.469571e-04
0.000000e+00
9.532016e-06
1.502391e-05
2.020097e-05
2.884456e-05
3.552715e-05
4.125692e-05
4.860448e-05
5.457503e-05
6.193389e-05
6.835437e-05
7.401738e-05
7.874197e-05
8.091847e-05
8.016013e-05
8.253944e-05
8.677448e-05
0.000000e+00
5.185386e-06
6.844762e-06
9.617966e-06
1.305894e-05
1.352178e-05
1.585241e-05
1.726723e-05
2.084557e-05
2.429630e-05
2.805742e-05
2.910176e-05
2.852484e-05
2.708904e-05
2.684178e-05
2.988970e-05
3.556147e-05
0.000000e+00
-1.750144e-07
-4.358079e-07
-8.572670e-07
-1.724279e-06
-2.882436e-06
-4.988566e-06
-7.229865e-06
-7.818408e-06
-7.838874e-06
-8.778815e-06
-1.193292e-05
-1.468139e-05
-1.608167e-05
-1.575824e-05
-1.359812e-05
-9.607532e-06
0.000000e+00
-5.449492e-06
-7.434497e-06
-1.074600e-05
-1.465681e-05
-1.607638e-05
-2.049836e-05
-2.431039e-05
-3.020617e-05
-3.333224e-05
-3.744695e-05
-4.218811e-05
-4.729741e-05
-4.904820e-05
-4.959477e-05
-5.007295e-05
-4.834795e-05
0.000000e+00
-9.532502e-06
-1.509093e-05
-2.036929e-05
-2.895102e-05
-3.531862e-05
-4.072768e-05
-4.872015e-05
-5.589359e-05
-6.354626e-05
-6.882716e-05
-7.384813e-05
-7.801113e-05
-8.153867e-05
-8.344983e-05
-8.536857e-05
-8.611673e-05
0.000000e+00
-1.138941e-05
-1.965103e-05
-2.830120e-05
-4.077357e-05
-5.165147e-05
-6.159738e-05
-7.279270e-05
-8.317699e-05
-9.455981e-05
-1.052227e-04
-1.135457e-04
-1.183436e-04
-1.233582e-04
-1.269512e-04
-1.282483e-04
-1.283444e-04
0.000000e+00
-1.542831e-05
-2.502987e-05
-3.733757e-05
-5.337369e-05
-6.701047e-05
-8.285393e-05
-9.590208e-05
-1.099523e-04
-1.233520e-04
-1.410150e-04
-1.567987e-04
-1.665259e-04
-1.717323e-04
-1.739427e-04
-1.741584e-04
-1.739767e-04
0.000000e+00
1.259829e-05
1.999853e-05
3.243633e-05
4.874687e-05
6.686976e-05
9.130512e-05
1.201604e-04
1.534549e-04
1.902268e-04
2.303935e-04
2.744041e-04
3.243562e-04
3.784625e-04
4.399655e-04
5.107886e-04
5.841538e-04
0.000000e+00
7.679403e-06
1.610931e-05
2.633589e-05
4.228214e-05
6.091201e-05
8.484744e-05
1.142835e-04
1.472241e-04
1.840985e-04
2.240635e-04
2.681900e-04
3.177784e-04
3.735352e-04
4.347236e-04
5.034076e-04
5.737970e-04
0.000000e+00
4.325907e-06
1.229534e-05
2.172275e-05
3.646747e-05
5.568618e-05
7.943042e-05
1.097668e-04
1.430712e-04
1.796181e-04
2.194655e-04
2.636557e-04
3.139894e-04
3.711536e-04
4.305845e-04
4.959293e-04
5.641083e-04
0.000000e+00
3.199710e-06
1.059468e-05
2.008484e-05
3.451421e-05
5.203107e-05
7.641098e-05
1.087617e-04
1.436210e-04
1.782039e-04
2.173928e-04
2.620301e-04
3.132389e-04
3.697449e-04
4.278504e-04
4.880924e-04
5.499475e-04
0.000000e+00
2.811705e-06
1.026995e-05
2.004419e-05
3.424476e-05
5.074507e-05
7.528392e-05
1.097772e-04
1.448793e-04
1.780947e-04
2.155915e-04
2.619809e-04
3.134954e-04
3.698699e-04
4.267077e-04
4.817047e-04
5.338252e-04
0.000000e+00
3.342500e-06
1.078512e-05
2.045872e-05
3.485404e-05
5.183987e-05
7.715056e-05
1.106859e-04
1.454892e-04
1.779001e-04
2.159618e-04
2.634998e-04
3.158569e-04
3.701717e-04
4.266102e-04
4.793853e-04
5.228114e-04
0.000000e+00
4.479273e-06
1.252365e-05
2.206525e-05
3.674754e-05
5.576266e-05
8.039278e-05
1.117572e-04
1.447950e-04
1.789690e-04
2.182646e-04
2.667388e-04
3.193514e-04
3.722468e-04
4.256927e-04
4.766461e-04
5.193506e-04
0.000000e+00
7.803568e-06
1.634538e-05
2.663613e-05
4.253830e-05
6.131630e-05
8.580884e-05
1.159437e-04
1.482209e-04
1.832739e-04
2.229296e-04
2.704826e-04
3.223891e-04
3.744410e-04
4.258262e-04
4.746295e-04
5.198183e-04
0.000000e+00
1.271137e-05
2.023449e-05
3.272713e-05
4.908319e-05
6.740128e-05
9.234083e-05
1.216109e-04
1.543821e-04
1.894955e-04
2.301663e-04
2.748244e-04
3.246476e-04
3.756196e-04
4.261349e-04
4.741458e-04
5.200843e-04


5.657367e+00
6.128586e+00
6.858574e+00
5.914386e+00
5.630582e+00
6.371160e+00
6.290606e+00
6.349601e+00
5.931056e+00
5.895480e+00
6.279805e+00
7.147899e+00
8.844800e+00
9.826103e+00
9.146843e+00
7.997826e+00
8.074964e+00
8.454141e+00
8.656554e+00
8.353348e+00
8.182563e+00
8.430142e+00
8.602628e+00
8.397770e+00
8.379343e+00
8.266337e+00
8.413189e+00
8.840869e+00
9.503975e+00
9.838732e+00
8.391380e+00
6.470680e+00
9.839873e+00
9.821414e+00
9.996518e+00
9.834775e+00
9.833220e+00
9.953400e+00
9.831756e+00
9.939187e+00
9.845274e+00
9.877370e+00
9.894956e+00
9.873124e+00
9.891447e+00
9.392722e+00
7.996040e+00
6.187673e+00
9.998285e+00
9.998253e+00
9.998238e+00
9.998069e+00
9.997832e+00
9.997358e+00
9.996817e+00
9.996809e+00
9.997112e+00
9.997054e+00
9.995748e+00
9.479730e+00
8.830105e+00
8.370122e+00
7.986924e+00
7.913196e+00
9.998276e+00
9.998233e+00
9.998201e+00
9.997973e+00
9.997578e+00
9.996713e+00
9.931879e+00
9.962186e+00
9.994664e+00
9.915032e+00
9.355178e+00
8.590856e+00
7.709522e+00
7.746601e+00
8.647484e+00
9.162764e+00
9.840115e+00
9.821305e+00
9.996336e+00
9.834172e+00
9.831708e+00
9.695264e+00
9.313419e+00
9.513120e+00
9.383654e+00
8.862342e+00
8.307249e+00
7.897644e+00
8.203335e+00
8.754989e+00
9.444736e+00
9.993936e+00
8.076526e+00
8.454707e+00
8.655673e+00
8.351159e+00
8.096935e+00
7.978156e+00
7.806313e+00
7.747947e+00
7.837237e+00
7.328278e+00
7.475909e+00
8.490449e+00
9.291758e+00
9.847628e+00
9.996466e+00
9.997877e+00
5.661401e+00
6.129698e+00
6.857244e+00
5.904852e+00
5.591840e+00
6.014028e+00
5.848577e+00
6.319024e+00
6.181803e+00
6.480253e+00
7.854116e+00
9.110272e+00
9.983615e+00
9.997248e+00
9.998100e+00
9.998394e+00


-8.173271e-01
-1.694838e-01
-3.965612e-01
-2.574344e-01
-9.550301e-02
-3.052547e-01
-1.241393e-01
-2.097024e-01
-1.614676e-01
-1.585071e-01
-2.146370e-01
-1.500325e-01
-4.619261e-01
-6.851101e-01
3.159372e-01
-8.469558e-01
6.110368e-01
4.806541e-01
2.956873e-01
2.254840e-01
2.901988e-01
1.680829e-01
1.755704e-01
1.726594e-01
1.103521e-01
1.478815e-01
1.284644e-01
2.414667e-01
3.024489e-01
5.096781e-01
6.954165e-01
-9.348135e-01
7.230502e-01
4.714568e-01
5.697067e-02
-2.124860e-02
-3.714930e-02
-1.868271e-01
-8.031894e-02
-1.373280e-01
-7.670692e-02
-1.873140e-02
3.209001e-02
1.859257e-01
2.784218e-01
1.480989e-01
-2.522824e-02
-1.681383e-01
7.282711e-01
5.563494e-01
1.931132e-01
6.234946e-02
-2.285044e-02
-1.053814e-01
-1.681318e-02
-6.131869e-02
1.350192e-02
1.737066e-02
5.905884e-02
1.177296e-01
5.853996e-02
-2.625189e-01
-3.836551e-01
-7.800593e-02
7.311796e-01
5.602770e-01
2.010707e-01
7.048629e-02
-1.915755e-02
-1.113738e-01
-3.707096e-02
-1.019992e-01
-5.181619e-02
-4.247430e-02
2.145636e-02
1.471507e-02
-3.779523e-02
-1.301970e-01
-1.022993e-01
3.108083e-01
7.298662e-01
4.816219e-01
7.501144e-02
-3.318300e-03
-2.545824e-02
-1.613723e-01
-7.535217e-02
-1.888587e-01
-1.819927e-01
-1.090347e-01
-7.780661e-02
-9.768838e-02
-1.112614e-01
4.523579e-02
3.342555e-01
7.246784e-01
6.151364e-01
4.864223e-01
3.031962e-01
2.305451e-01
2.864291e-01
1.616121e-01
1.526384e-01
1.018648e-01
-5.672333e-02
-4.059740e-02
-9.680997e-02
-5.759021e-02
5.730593e-02
3.649447e-01
7.128636e-01
9.478996e-01
-8.228001e-01
-1.751971e-01
-4.040981e-01
-2.604957e-01
-9.510953e-02
-2.993025e-01
-1.199780e-01
-1.564752e-01
-5.602046e-02
-2.186949e-02
-9.252510e-02
9.904804e-02
3.878142e-01
7.720623e-01
9.528908e-01
9.987354e-01
1 2 19 18
2 3 20 19
3 4 21 20
4 5 22 21
5 6 23 22
6 7 24 23
7 8 25 24
8 9 26 25
9 10 27 26
10 11 28 27
11 12 29 28
12 13 30 29
13 14 31 30
14 15 32 31
15 16 33 32
16 17 34 33
18 19 36 35
19 20 37 36
20 21 38 37
21 22 39 38
22 23 40 39
23 24 41 40
24 25 42 41
25 26 43 42
26 27 44 43
27 28 45 44
28 29 46 45
29 30 47 46
30 31 48 47
31 32 49 48
32 33 50 49
33 34 51 50
35 36 53 52
36 37 54 53
37 38 55 54
38 39 56 55
39 40 57 56
40 41 58 57
41 42 59 58
42 43 60 59
43 44 61 60
44 45 62 61
45 46 63 62
46 47 64 63
47 48 65 64
48 49 66 65
49 50 67 66
50 51 68 67
52 53 70 69
53 54 71 70
54 55 72 71
55 56 73 72
56 57 74 73
57 58 75 74
58 59 76 75
59 60 77 76
60 61 78 77
61 62 79 78
62 63 80 79
63 64 81 80
64 65 82 81
65 66 83 82
66 67 84 83
67 68 85 84
69 70 87 86
70 71 88 87
71 72 89 88
72 73 90 89
73 74 91 90
74 75 92 91
75 76 93 92
76 77 94 93
77 78 95 94
78 79 96 95
79 80 97 96
80 81 98 97
81 82 99 98
82 83 100 99
83 84 101 100
84 85 102 101
86 87 104 103
87 88 105 104
88 89 106 105
89 90 107 106
90 91 108 107
91 92 109 108
92 93 110 109
93 94 111 110
94 95 112 111
95 96 113 112
96 97 114 113
97 98 115 114
98 99 116 115
99 100 117 116
100 101 118 117
101 102 119 118
103 104 121 120
104 105 122 121
105 106 123 122
106 107 124 123
107 108 125 124
108 109 126 125
109 110 127 126
110 111 128 127
111 112 129 128
112 113 130 129
113 114 131 130
114 115 132 131
115 116 133 132
116 117 134 133
117 118 135 134
118 119 136 135
120 121 138 137
121 122 139 138
122 123 140 139
123 124 141 140
124 125 142 141
125 126 143 142
126 127 144 143
127 128 145 144
128 129 146 145
129 130 147 146
130 131 148 147
131 132 149 148
132 133 150 149
133 134 151 150
134 135 152 151
135 136 153 152
