TITLE = "Solution"
VARIABLES = x, y, u, v, psiu, psiv, t, stress
ZONE T="structure" N=153 E=128 F=FEBLOCK ET=QUADRILATERAL VARLOCATION=([7,8]=cellcentered)
0.000000e+00
1.250000e+01
2.500000e+01
3.750000e+01
5.000000e+01
6.250000e+01
7.500000e+01
8.750000e+01
1.000000e+02
1.125000e+02
1.250000e+02
1.375000e+02
1.500000e+02
1.625000e+02
1.750000e+02
1.875000e+02
2.000000e+02
0.000000e+00
1.250000e+01
2.500000e+01
3.750000e+01
5.000000e+01
6.250000e+01
7.500000e+01
8.750000e+01
1.000000e+02
1.125000e+02
1.250000e+02
1.375000e+02
1.500000e+02
1.625000e+02
1.750000e+02
1.875000e+02
2.000000e+02
0.000000e+00
1.250000e+01
2.500000e+01
3.750000e+01
5.000000e+01
6.250000e+01
7.500000e+01
8.750000e+01
1.000000e+02
1.125000e+02
1.250000e+02
1.375000e+02
1.500000e+02
1.625000e+02
1.750000e+02
1.875000e+02
2.000000e+02
0.000000e+00
1.250000e+01
2.500000e+01
3.750000e+01
5.000000e+01
6.250000e+01
7.500000e+01
8.750000e+01
1.000000e+02
1.125000e+02
1.250000e+02
1.375000e+02
1.500000e+02
1.625000e+02
1.750000e+02
1.875000e+02
2.000000e+02
0.000000e+00
1.250000e+01
2.500000e+01
3.750000e+01
5.000000e+01
6.250000e+01
7.500000e+01
8.750000e+01
1.000000e+02
1.125000e+02
1.250000e+02
1.375000e+02
1.500000e+02
1.625000e+02
1.750000e+02
1.875000e+02
2.000000e+02
0.000000e+00
1.250000e+01
2.500000e+01
3.750000e+01
5.000000e+01
6.250000e+01
7.500000e+01
8.750000e+01
1.000000e+02
1.125000e+02
1.250000e+02
1.375000e+02
1.500000e+02
1.625000e+02
1.750000e+02
1.875000e+02
2.000000e+02
0.000000e+00
1.250000e+01
2.500000e+01
3.750000e+01
5.000000e+01
6.250000e+01
7.500000e+01
8.750000e+01
1.000000e+02
1.125000e+02
1.250000e+02
1.375000e+02
1.500000e+02
1.625000e+02
1.750000e+02
1.875000e+02
2.000000e+02
0.000000e+00
1.250000e+01
2.500000e+01
3.750000e+01
5.000000e+01
6.250000e+01
7.500000e+01
8.750000e+01
1.000000e+02
1.125000e+02
1.250000e+02
1.375000e+02
1.500000e+02
1.625000e+02
1.750000e+02
1.875000e+02
2.000000e+02
0.000000e+00
1.250000e+01
2.500000e+01
3.750000e+01
5.000000e+01
6.250000e+01
7.500000e+01
8.750000e+01
1.000000e+02
1.125000e+02
1.250000e+02
1.375000e+02
1.500000e+02
1.625000e+02
1.750000e+02
1.875000e+02
2.000000e+02
0.000000e+00
0.000000e+00
0.000000e+00
0.000000e+00
0.000000e+00
0.000000e+00
0.000000e+00
0.000000e+00
0.000000e+00
0.000000e+00
0.000000e+00
0.000000e+00
0.000000e+00
0.000000e+00
0.000000e+00
0.000000e+00
0.000000e+00
1.250000e+01
1.250000e+01
1.250000e+01
1.250000e+01
1.250000e+01
1.250000e+01
1.250000e+01
1.250000e+01
1.250000e+01
1.250000e+01
1.250000e+01
1.250000e+01
1.250000e+01
1.250000e+01
1.250000e+01
1.250000e+01
1.250000e+01
2.500000e+01
2.500000e+01
2.500000e+01
2.500000e+01
2.500000e+01
2.500000e+01
2.500000e+01
2.500000e+01
2.500000e+01
2.500000e+01
2.500000e+01
2.500000e+01
2.500000e+01
2.500000e+01
2.500000e+01
2.500000e+01
2.500000e+01
3.750000e+01
3.750000e+01
3.750000e+01
3.750000e+01
3.750000e+01
3.750000e+01
3.750000e+01
3.750000e+01
3.750000e+01
3.750000e+01
3.750000e+01
3.750000e+01
3.750000e+01
3.750000e+01
3.750000e+01
3.750000e+01
3.750000e+01
5.000000e+01
5.000000e+01
5.000000e+01
5.000000e+01
5.000000e+01
5.000000e+01
5.000000e+01
5.000000e+01
5.000000e+01
5.000000e+01
5.000000e+01
5.000000e+01
5.000000e+01
5.000000e+01
5.000000e+01
5.000000e+01
5.000000e+01
6.250000e+01
6.250000e+01
6.250000e+01
6.250000e+01
6.250000e+01
6.250000e+01
6.250000e+01
6.250000e+01
6.250000e+01
6.250000e+01
6.250000e+01
6.250000e+01
6.250000e+01
6.250000e+01
6.250000e+01
6.250000e+01
6.250000e+01
7.500000e+01
7.500000e+01
7.500000e+01
7.500000e+01
7.500000e+01
7.500000e+01
7.500000e+01
7.500000e+01
7.500000e+01
7.500000e+01
7.500000e+01
7.500000e+01
7.500000e+01
7.500000e+01
7.500000e+01
7.500000e+01
7.500000e+01
8.750000e+01
8.750000e+01
8.750000e+01
8.750000e+01
8.750000e+01
8.750000e+01
8.750000e+01
8.750000e+01
8.750000e+01
8.750000e+01
8.750000e+01
8.750000e+01
8.750000e+01
8.750000e+01
8.750000e+01
8.750000e+01
8.750000e+01
1.000000e+02
1.000000e+02
1.000000e+02
1.000000e+02
1.000000e+02
1.000000e+02
1.000000e+02
1.000000e+02
1.000000e+02
1.000000e+02
1.000000e+02
1.000000e+02
1.000000e+02
1.000000e+02
1.000000e+02
1.000000e+02
1.000000e+02
0.000000e+00
-9.932768e-01
-1.679774e+00
-2.430905e+00
-3.114632e+00
-3.753160e+00
-4.456381e+00
-5.087959e+00
-5.763294e+00
-6.404982e+00
-7.057010e+00
-7.722623e+00
-8.376789e+00
-9.148738e+00
-1.007733e+01
-1.083289e+01
-1.128313e+01
0.000000e+00
-4.448235e-01
-9.077056e-01
-1.419106e+00
-1.930183e+00
-2.412183e+00
-2.925556e+00
-3.423532e+00
-3.920137e+00
-4.421672e+00
-4.915251e+00
-5.417219e+00
-5.902114e+00
-6.422869e+00
-6.897127e+00
-7.022775e+00
-7.201601e+00
0.000000e+00
-1.464593e-01
-3.501055e-01
-6.403988e-01
-9.783819e-01
-1.304008e+00
-1.657606e+00
-2.013452e+00
-2.358011e+00
-2.718896e+00
-3.058202e+00
-3.392061e+00
-3.687306e+00
-3.927093e+00
-4.035601e+00
-4.033342e+00
-4.181916e+00
0.000000e+00
-7.889794e-02
-1.623398e-01
-3.094906e-01
-4.544357e-01
-6.286639e-01
-8.126055e-01
-9.792702e-01
-1.165687e+00
-1.327756e+00
-1.488863e+00
-1.627559e+00
-1.720650e+00
-1.728548e+00
-1.655351e+00
-1.635101e+00
-1.752572e+00
0.000000e+00
-3.205148e-03
-6.994625e-03
-1.094108e-02
-1.509373e-02
-1.811445e-02
-1.857923e-02
-1.535263e-02
-6.288766e-03
1.059941e-02
3.518180e-02
7.963984e-02
1.616354e-01
2.762031e-01
3.955635e-01
4.359203e-01
3.376899e-01
0.000000e+00
7.332750e-02
1.510184e-01
2.909774e-01
4.293737e-01
5.972396e-01
7.759623e-01
9.476689e-01
1.153268e+00
1.348152e+00
1.563789e+00
1.784086e+00
2.009956e+00
2.215987e+00
2.351428e+00
2.384394e+00
2.318909e+00
0.000000e+00
1.442540e-01
3.450561e-01
6.316706e-01
9.664733e-01
1.291389e+00
1.643326e+00
1.999658e+00
2.362681e+00
2.766601e+00
3.144893e+00
3.511761e+00
3.845161e+00
4.119674e+00
4.295522e+00
4.350284e+00
4.327774e+00
0.000000e+00
4.455984e-01
9.084412e-01
1.419668e+00
1.930053e+00
2.410372e+00
2.920848e+00
3.415545e+00
3.904079e+00
4.396937e+00
4.875455e+00
5.350752e+00
5.779831e+00
6.126883e+00
6.343386e+00
6.438894e+00
6.456497e+00
0.000000e+00
9.954975e-01
1.684565e+00
2.439465e+00
3.125663e+00
3.765520e+00
4.468873e+00
5.098025e+00
5.745922e+00
6.331096e+00
6.905613e+00
7.506398e+00
8.037600e+00
8.448109e+00
8.649672e+00
8.702716e+00
8.703290e+00
0.000000e+00
-6.178626e-01
-1.360721e+00
-2.360737e+00
-3.534166e+00
-4.877841e+00
-6.407830e+00
-8.093640e+00
-9.953651e+00
-1.197645e+01
-1.416137e+01
-1.651105e+01
-1.902461e+01
-2.175581e+01
-2.471930e+01
-2.807912e+01
-3.309509e+01
0.000000e+00
-4.145533e-01
-1.192077e+00
-2.174976e+00
-3.364749e+00
-4.703238e+00
-6.230805e+00
-7.924485e+00
-9.777790e+00
-1.180864e+01
-1.398910e+01
-1.634366e+01
-1.885127e+01
-2.156333e+01
-2.457951e+01
-2.799518e+01
-3.204582e+01
0.000000e+00
-3.887244e-01
-1.090533e+00
-2.071560e+00
-3.245068e+00
-4.577852e+00
-6.110317e+00
-7.795203e+00
-9.658634e+00
-1.168701e+01
-1.387865e+01
-1.624430e+01
-1.876246e+01
-2.150112e+01
-2.456977e+01
-2.784299e+01
-3.087518e+01
0.000000e+00
-4.475761e-01
-1.086807e+00
-2.045388e+00
-3.181926e+00
-4.508940e+00
-6.047281e+00
-7.719368e+00
-9.600851e+00
-1.162903e+01
-1.384171e+01
-1.622713e+01
-1.877130e+01
-2.151115e+01
-2.450058e+01
-2.753308e+01
-3.015733e+01
0.000000e+00
-4.548903e-01
-1.108869e+00
-2.029437e+00
-3.168506e+00
-4.497752e+00
-6.026513e+00
-7.716576e+00
-9.591907e+00
-1.164175e+01
-1.386755e+01
-1.626122e+01
-1.881283e+01
-2.151230e+01
-2.434969e+01
-2.716687e+01
-2.955326e+01
0.000000e+00
-4.463127e-01
-1.086374e+00
-2.047311e+00
-3.188846e+00
-4.525741e+00
-6.074142e+00
-7.756271e+00
-9.654107e+00
-1.170813e+01
-1.393689e+01
-1.631341e+01
-1.884447e+01
-2.150219e+01
-2.421413e+01
-2.684736e+01
-2.911591e+01
0.000000e+00
-3.870345e-01
-1.090310e+00
-2.075873e+00
-3.258259e+00
-4.606184e+00
-6.155857e+00
-7.865648e+00
-9.760190e+00
-1.182344e+01
-1.402360e+01
-1.638053e+01
-1.888420e+01
-2.150229e+01
-2.413130e+01
-2.664031e+01
-2.888324e+01
0.000000e+00
-4.129902e-01
-1.191916e+00
-2.179996e+00
-3.379917e+00
-4.733384e+00
-6.281967e+00
-8.006889e+00
-9.898889e+00
-1.196006e+01
-1.413939e+01
-1.647925e+01
-1.896132e+01
-2.154391e+01
-2.411078e+01
-2.655258e+01
-2.882291e+01
0.000000e+00
-6.168480e-01
-1.361155e+00
-2.366456e+00
-3.549745e+00
-4.908072e+00
-6.459754e+00
-8.175589e+00
-1.007069e+01
-1.211600e+01
-1.429477e+01
-1.662772e+01
-1.908487e+01
-2.162566e+01
-2.413553e+01
-2.653760e+01
-2.882176e+01


0.000000e+00
1.541561e-05
2.512116e-05
3.749294e-05
5.357297e-05
6.719388e-05
8.295179e-05
9.708691e-05
1.115431e-04
1.256350e-04
1.407678e-04
1.550771e-04
1.718356e-04
1.874432e-04
1.971301e-04
2.027542e-04
2.096704e-04
0.000000e+00
1.146279e-05
1.974787e-05
2.837866e-05
4.101620e-05
5.168757e-05
6.182234e-05
7.298670e-05
8.318003e-05
9.457830e-05
1.052529e-04
1.154693e-04
1.264793e-04
1.356709e-04
1.369624e-04
1.406843e-04
1.465140e-04
0.000000e+00
9.538879e-06
1.501583e-05
2.016718e-05
2.888991e-05
3.554384e-05
4.136737e-05
4.876927e-05
5.480001e-05
6.210986e-05
6.853367e-05
7.398502e-05
7.869515e-05
8.073204e-05
7.987641e-05
8.225983e-05
8.651036e-05
0.000000e+00
5.173611e-06
6.844217e-06
9.601288e-06
1.308313e-05
1.366968e-05
1.609302e-05
1.786691e-05
2.135289e-05
2.489947e-05
2.833272e-05
2.913916e-05
2.843562e-05
2.691330e-05
2.674511e-05
2.983234e-05
3.550332e-05
0.000000e+00
-1.705791e-07
-4.248598e-07
-8.367333e-07
-1.682500e-06
-2.777631e-06
-4.810746e-06
-6.857043e-06
-7.272504e-06
-7.371321e-06
-8.575129e-06
-1.190238e-05
-1.466429e-05
-1.598204e-05
-1.563468e-05
-1.343861e-05
-9.454157e-06
0.000000e+00
-5.430280e-06
-7.417911e-06
-1.070031e-05
-1.463069e-05
-1.617848e-05
-2.066590e-05
-2.469230e-05
-3.029240e-05
-3.332501e-05
-3.737670e-05
-4.220680e-05
-4.711965e-05
-4.871918e-05
-4.926164e-05
-4.975924e-05
-4.807427e-05
0.000000e+00
-9.536245e-06
-1.508014e-05
-2.033258e-05
-2.898936e-05
-3.534799e-05
-4.092266e-05
-4.905285e-05
-5.622981e-05
-6.358709e-05
-6.875435e-05
-7.369740e-05
-7.784711e-05
-8.121258e-05
-8.313303e-05
-8.504753e-05
-8.579669e-05
0.000000e+00
-1.139279e-05
-1.966163e-05
-2.827798e-05
-4.079762e-05
-5.163454e-05
-6.158409e-05
-7.282753e-05
-8.324719e-05
-9.457402e-05
-1.051917e-04
-1.132803e-04
-1.181285e-04
-1.230969e-04
-1.266214e-04
-1.278876e-04
-1.279855e-04
0.000000e+00
-1.542629e-05
-2.506237e-05
-3.734418e-05
-5.336898e-05
-6.701361e-05
-8.261560e-05
-9.577935e-05
-1.096864e-04
-1.234893e-04
-1.411444e-04
-1.566840e-04
-1.661830e-04
-1.713295e-04
-1.735472e-04
-1.737467e-04
-1.735589e-04
0.000000e+00
1.260608e-05
2.001410e-05
3.246897e-05
4.881326e-05
6.693946e-05
9.132191e-05
1.200765e-04
1.529789e-04
1.895387e-04
2.294546e-04
2.734125e-04
3.235421e-04
3.775476e-04
4.389510e-04
5.096879e-04
5.828985e-04
0.000000e+00
7.676633e-06
1.612475e-05
2.636873e-05
4.233734e-05
6.099659e-05
8.488338e-05
1.141784e-04
1.467866e-04
1.833415e-04
2.231740e-04
2.671854e-04
3.169455e-04
3.727489e-04
4.338013e-04
5.023141e-04
5.725243e-04
0.000000e+00
4.325427e-06
1.231657e-05
2.172676e-05
3.652737e-05
5.573858e-05
7.953532e-05
1.097205e-04
1.425799e-04
1.788047e-04
2.185376e-04
2.627326e-04
3.131777e-04
3.704622e-04
4.297345e-04
4.948396e-04
5.627965e-04
0.000000e+00
3.199618e-06
1.060654e-05
2.006387e-05
3.447891e-05
5.205820e-05
7.666194e-05
1.089182e-04
1.429723e-04
1.771579e-04
2.164218e-04
2.612463e-04
3.125253e-04
3.690914e-04
4.270340e-04
4.870044e-04
5.486087e-04
0.000000e+00
2.813210e-06
1.027015e-05
2.001212e-05
3.414689e-05
5.071577e-05
7.564391e-05
1.099779e-04
1.440988e-04
1.767544e-04
2.146813e-04
2.613536e-04
3.129111e-04
3.691887e-04
4.258827e-04
4.806111e-04
5.325296e-04
0.000000e+00
3.338399e-06
1.079138e-05
2.042968e-05
3.478974e-05
5.184282e-05
7.739264e-05
1.107533e-04
1.445737e-04
1.765715e-04
2.150956e-04
2.630364e-04
3.153140e-04
3.694166e-04
4.257572e-04
4.782884e-04
5.216048e-04
0.000000e+00
4.473914e-06
1.253845e-05
2.205988e-05
3.678775e-05
5.578413e-05
8.048025e-05
1.115363e-04
1.439828e-04
1.778234e-04
2.174970e-04
2.662983e-04
3.187824e-04
3.713875e-04
4.247962e-04
4.755816e-04
5.182180e-04
0.000000e+00
7.796756e-06
1.635423e-05
2.665820e-05
4.257790e-05
6.138125e-05
8.579775e-05
1.156781e-04
1.474774e-04
1.822875e-04
2.221659e-04
2.699179e-04
3.217717e-04
3.735367e-04
4.248755e-04
4.735884e-04
5.187057e-04
0.000000e+00
1.271478e-05
2.024352e-05
3.274804e-05
4.913266e-05
6.744660e-05
9.229126e-05
1.213646e-04
1.536297e-04
1.886451e-04
2.292542e-04
2.741420e-04
3.239375e-04
3.747513e-04
4.251563e-04
4.731048e-04
5.189775e-04


5.562199e+00
6.057083e+00
6.788140e+00
5.816353e+00
5.304578e+00
5.774880e+00
5.866926e+00
6.099815e+00
5.821928e+00
5.861530e+00
6.231790e+00
7.111989e+00
8.810674e+00
9.786511e+00
9.105008e+00
7.955634e+00
8.017911e+00
8.399971e+00
8.606217e+00
8.306961e+00
7.996935e+00
8.164442e+00
8.361818e+00
8.280715e+00
8.296899e+00
8.225092e+00
8.369278e+00
8.797643e+00
9.473008e+00
9.798083e+00
8.353084e+00
6.435650e+00
9.811506e+00
9.797363e+00
9.968105e+00
9.805865e+00
9.802636e+00
9.880440e+00
9.793282e+00
9.888049e+00
9.808824e+00
9.845618e+00
9.858041e+00
9.841083e+00
9.859210e+00
9.360312e+00
7.948922e+00
6.144520e+00
9.984245e+00
9.983957e+00
9.983813e+00
9.982227e+00
9.980072e+00
9.976195e+00
9.972191e+00
9.972531e+00
9.974664e+00
9.973226e+00
9.960421e+00
9.446276e+00
8.794111e+00
8.338276e+00
7.932947e+00
7.832713e+00
9.984166e+00
9.983777e+00
9.983479e+00
9.981382e+00
9.977878e+00
9.970944e+00
9.907495e+00
9.950924e+00
9.960103e+00
9.877739e+00
9.318776e+00
8.510674e+00
7.620503e+00
7.670634e+00
8.582793e+00
9.092005e+00
9.811656e+00
9.796620e+00
9.966497e+00
9.801486e+00
9.790411e+00
9.633245e+00
9.368133e+00
9.536894e+00
9.376705e+00
8.794658e+00
8.256822e+00
7.806120e+00
8.049137e+00
8.646493e+00
9.388649e+00
9.946428e+00
8.020665e+00
8.400386e+00
8.603337e+00
8.298495e+00
7.918307e+00
7.770360e+00
7.634329e+00
7.675399e+00
7.682907e+00
7.246780e+00
7.421924e+00
8.407485e+00
9.188071e+00
9.766790e+00
9.968438e+00
9.980617e+00
5.570146e+00
6.059390e+00
6.786144e+00
5.808772e+00
5.287092e+00
5.458573e+00
5.380889e+00
5.825984e+00
5.872489e+00
6.314473e+00
7.776036e+00
9.063279e+00
9.929957e+00
9.975204e+00
9.982642e+00
9.985273e+00


-8.097493e-01
-1.787996e-01
-3.925727e-01
-2.528520e-01
-1.066748e-01
-2.966005e-01
-1.277726e-01
-2.098737e-01
-1.587694e-01
-1.640141e-01
-2.084359e-01
-1.522694e-01
-4.679932e-01
-6.753664e-01
3.180454e-01
-8.472505e-01
6.121155e-01
4.769237e-01
2.977087e-01
2.266719e-01
2.864812e-01
1.689734e-01
1.772826e-01
1.705910e-01
1.138344e-01
1.460519e-01
1.316604e-01
2.430684e-01
3.018758e-01
5.136973e-01
6.964382e-01
-9.388445e-01
7.249245e-01
4.714515e-01
6.120420e-02
-1.408246e-02
-3.911476e-02
-1.757171e-01
-7.877054e-02
-1.322269e-01
-7.029456e-02
-1.600235e-02
3.847264e-02
1.899469e-01
2.814069e-01
1.503295e-01
-2.253644e-02
-1.705925e-01
7.300303e-01
5.565111e-01
1.955931e-01
6.720328e-02
-2.366516e-02
-9.695382e-02
-1.708836e-02
-5.755117e-02
1.699574e-02
2.237545e-02
6.278316e-02
1.179094e-01
5.804097e-02
-2.654932e-01
-3.828971e-01
-7.570045e-02
7.328719e-01
5.604371e-01
2.032919e-01
7.444346e-02
-2.109794e-02
-1.042280e-01
-3.784436e-02
-9.762700e-02
-4.590545e-02
-3.484350e-02
1.976089e-02
1.354222e-02
-3.679939e-02
-1.330596e-01
-1.045098e-01
3.126779e-01
7.315271e-01
4.816595e-01
7.900274e-02
2.838765e-03
-2.872916e-02
-1.586549e-01
-8.868064e-02
-1.992194e-01
-1.809631e-01
-1.030060e-01
-8.038836e-02
-9.998034e-02
-1.041703e-01
4.888900e-02
3.338160e-01
7.259896e-01
6.159367e-01
4.828712e-01
3.051359e-01
2.322839e-01
2.848348e-01
1.634930e-01
1.526112e-01
9.399409e-02
-5.362307e-02
-3.909446e-02
-9.796101e-02
-6.127298e-02
6.318458e-02
3.695357e-01
7.132506e-01
9.479950e-01
-8.154413e-01
-1.836800e-01
-4.003123e-01
-2.569269e-01
-1.067809e-01
-2.931833e-01
-1.214227e-01
-1.515243e-01
-5.639013e-02
-2.407439e-02
-9.287739e-02
9.552166e-02
3.914722e-01
7.724654e-01
9.527756e-01
9.987317e-01
1 2 19 18
2 3 20 19
3 4 21 20
4 5 22 21
5 6 23 22
6 7 24 23
7 8 25 24
8 9 26 25
9 10 27 26
10 11 28 27
11 12 29 28
12 13 30 29
13 14 31 30
14 15 32 31
15 16 33 32
16 17 34 33
18 19 36 35
19 20 37 36
20 21 38 37
21 22 39 38
22 23 40 39
23 24 41 40
24 25 42 41
25 26 43 42
26 27 44 43
27 28 45 44
28 29 46 45
29 30 47 46
30 31 48 47
31 32 49 48
32 33 50 49
33 34 51 50
35 36 53 52
36 37 54 53
37 38 55 54
38 39 56 55
39 40 57 56
40 41 58 57
41 42 59 58
42 43 60 59
43 44 61 60
44 45 62 61
45 46 63 62
46 47 64 63
47 48 65 64
48 49 66 65
49 50 67 66
50 51 68 67
52 53 70 69
53 54 71 70
54 55 72 71
55 56 73 72
56 57 74 73
57 58 75 74
58 59 76 75
59 60 77 76
60 61 78 77
61 62 79 78
62 63 80 79
63 64 81 80
64 65 82 81
65 66 83 82
66 67 84 83
67 68 85 84
69 70 87 86
70 71 88 87
71 72 89 88
72 73 90 89
73 74 91 90
74 75 92 91
75 76 93 92
76 77 94 93
77 78 95 94
78 79 96 95
79 80 97 96
80 81 98 97
81 82 99 98
82 83 100 99
83 84 101 100
84 85 102 101
86 87 104 103
87 88 105 104
88 89 106 105
89 90 107 106
90 91 108 107
91 92 109 108
92 93 110 109
93 94 111 110
94 95 112 111
95 96 113 112
96 97 114 113
97 98 115 114
98 99 116 115
99 100 117 116
100 101 118 117
101 102 119 118
103 104 121 120
104 105 122 121
105 106 123 122
106 107 124 123
107 108 125 124
108 109 126 125
109 110 127 126
110 111 128 127
111 112 129 128
112 113 130 129
113 114 131 130
114 115 132 131
115 116 133 132
116 117 134 133
117 118 135 134
118 119 136 135
120 121 138 137
121 122 139 138
122 123 140 139
123 124 141 140
124 125 142 141
125 126 143 142
126 127 144 143
127 128 145 144
128 129 146 145
129 130 147 146
130 131 148 147
131 132 149 148
132 133 150 149
133 134 151 150
134 135 152 151
135 136 153 152
