TITLE = "Solution"
VARIABLES = x, y, u, v, psiu, psiv, t, stress
ZONE T="structure" N=153 E=128 F=FEBLOCK ET=QUADRILATERAL VARLOCATION=([7,8]=cellcentered)
0.000000e+00
1.250000e+01
2.500000e+01
3.750000e+01
5.000000e+01
6.250000e+01
7.500000e+01
8.750000e+01
1.000000e+02
1.125000e+02
1.250000e+02
1.375000e+02
1.500000e+02
1.625000e+02
1.750000e+02
1.875000e+02
2.000000e+02
0.000000e+00
1.250000e+01
2.500000e+01
3.750000e+01
5.000000e+01
6.250000e+01
7.500000e+01
8.750000e+01
1.000000e+02
1.125000e+02
1.250000e+02
1.375000e+02
1.500000e+02
1.625000e+02
1.750000e+02
1.875000e+02
2.000000e+02
0.000000e+00
1.250000e+01
2.500000e+01
3.750000e+01
5.000000e+01
6.250000e+01
7.500000e+01
8.750000e+01
1.000000e+02
1.125000e+02
1.250000e+02
1.375000e+02
1.500000e+02
1.625000e+02
1.750000e+02
1.875000e+02
2.000000e+02
0.000000e+00
1.250000e+01
2.500000e+01
3.750000e+01
5.000000e+01
6.250000e+01
7.500000e+01
8.750000e+01
1.000000e+02
1.125000e+02
1.250000e+02
1.375000e+02
1.500000e+02
1.625000e+02
1.750000e+02
1.875000e+02
2.000000e+02
0.000000e+00
1.250000e+01
2.500000e+01
3.750000e+01
5.000000e+01
6.250000e+01
7.500000e+01
8.750000e+01
1.000000e+02
1.125000e+02
1.250000e+02
1.375000e+02
1.500000e+02
1.625000e+02
1.750000e+02
1.875000e+02
2.000000e+02
0.000000e+00
1.250000e+01
2.500000e+01
3.750000e+01
5.000000e+01
6.250000e+01
7.500000e+01
8.750000e+01
1.000000e+02
1.125000e+02
1.250000e+02
1.375000e+02
1.500000e+02
1.625000e+02
1.750000e+02
1.875000e+02
2.000000e+02
0.000000e+00
1.250000e+01
2.500000e+01
3.750000e+01
5.000000e+01
6.250000e+01
7.500000e+01
8.750000e+01
1.000000e+02
1.125000e+02
1.250000e+02
1.375000e+02
1.500000e+02
1.625000e+02
1.750000e+02
1.875000e+02
2.000000e+02
0.000000e+00
1.250000e+01
2.500000e+01
3.750000e+01
5.000000e+01
6.250000e+01
7.500000e+01
8.750000e+01
1.000000e+02
1.125000e+02
1.250000e+02
1.375000e+02
1.500000e+02
1.625000e+02
1.750000e+02
1.875000e+02
2.000000e+02
0.000000e+00
1.250000e+01
2.500000e+01
3.750000e+01
5.000000e+01
6.250000e+01
7.500000e+01
8.750000e+01
1.000000e+02
1.125000e+02
1.250000e+02
1.375000e+02
1.500000e+02
1.625000e+02
1.750000e+02
1.875000e+02
2.000000e+02
0.000000e+00
0.000000e+00
0.000000e+00
0.000000e+00
0.000000e+00
0.000000e+00
0.000000e+00
0.000000e+00
0.000000e+00
0.000000e+00
0.000000e+00
0.000000e+00
0.000000e+00
0.000000e+00
0.000000e+00
0.000000e+00
0.000000e+00
1.250000e+01
1.250000e+01
1.250000e+01
1.250000e+01
1.250000e+01
1.250000e+01
1.250000e+01
1.250000e+01
1.250000e+01
1.250000e+01
1.250000e+01
1.250000e+01
1.250000e+01
1.250000e+01
1.250000e+01
1.250000e+01
1.250000e+01
2.500000e+01
2.500000e+01
2.500000e+01
2.500000e+01
2.500000e+01
2.500000e+01
2.500000e+01
2.500000e+01
2.500000e+01
2.500000e+01
2.500000e+01
2.500000e+01
2.500000e+01
2.500000e+01
2.500000e+01
2.500000e+01
2.500000e+01
3.750000e+01
3.750000e+01
3.750000e+01
3.750000e+01
3.750000e+01
3.750000e+01
3.750000e+01
3.750000e+01
3.750000e+01
3.750000e+01
3.750000e+01
3.750000e+01
3.750000e+01
3.750000e+01
3.750000e+01
3.750000e+01
3.750000e+01
5.000000e+01
5.000000e+01
5.000000e+01
5.000000e+01
5.000000e+01
5.000000e+01
5.000000e+01
5.000000e+01
5.000000e+01
5.000000e+01
5.000000e+01
5.000000e+01
5.000000e+01
5.000000e+01
5.000000e+01
5.000000e+01
5.000000e+01
6.250000e+01
6.250000e+01
6.250000e+01
6.250000e+01
6.250000e+01
6.250000e+01
6.250000e+01
6.250000e+01
6.250000e+01
6.250000e+01
6.250000e+01
6.250000e+01
6.250000e+01
6.250000e+01
6.250000e+01
6.250000e+01
6.250000e+01
7.500000e+01
7.500000e+01
7.500000e+01
7.500000e+01
7.500000e+01
7.500000e+01
7.500000e+01
7.500000e+01
7.500000e+01
7.500000e+01
7.500000e+01
7.500000e+01
7.500000e+01
7.500000e+01
7.500000e+01
7.500000e+01
7.500000e+01
8.750000e+01
8.750000e+01
8.750000e+01
8.750000e+01
8.750000e+01
8.750000e+01
8.750000e+01
8.750000e+01
8.750000e+01
8.750000e+01
8.750000e+01
8.750000e+01
8.750000e+01
8.750000e+01
8.750000e+01
8.750000e+01
8.750000e+01
1.000000e+02
1.000000e+02
1.000000e+02
1.000000e+02
1.000000e+02
1.000000e+02
1.000000e+02
1.000000e+02
1.000000e+02
1.000000e+02
1.000000e+02
1.000000e+02
1.000000e+02
1.000000e+02
1.000000e+02
1.000000e+02
1.000000e+02
0.000000e+00
-8.248104e-01
-1.497926e+00
-2.150076e+00
-2.814100e+00
-3.466460e+00
-4.109500e+00
-4.746964e+00
-5.373106e+00
-5.977842e+00
-6.550942e+00
-7.086939e+00
-7.591160e+00
-8.084119e+00
-8.601650e+00
-9.186879e+00
-9.604203e+00
0.000000e+00
-4.586805e-01
-9.544704e-01
-1.442323e+00
-1.939934e+00
-2.428739e+00
-2.909652e+00
-3.385866e+00
-3.853322e+00
-4.303842e+00
-4.727577e+00
-5.115173e+00
-5.458886e+00
-5.746544e+00
-5.944111e+00
-5.987795e+00
-6.122953e+00
0.000000e+00
-2.613448e-01
-5.489608e-01
-8.677178e-01
-1.198461e+00
-1.526402e+00
-1.850358e+00
-2.169395e+00
-2.478978e+00
-2.771779e+00
-3.038024e+00
-3.265821e+00
-3.440500e+00
-3.542117e+00
-3.550813e+00
-3.519032e+00
-3.659705e+00
0.000000e+00
-1.175385e-01
-2.509012e-01
-4.044294e-01
-5.682318e-01
-7.334241e-01
-8.969725e-01
-1.055953e+00
-1.206273e+00
-1.342106e+00
-1.455531e+00
-1.536788e+00
-1.575545e+00
-1.566044e+00
-1.527447e+00
-1.535139e+00
-1.645142e+00
0.000000e+00
-5.066994e-04
-1.067649e-03
-1.591171e-03
-1.898820e-03
-1.646771e-03
-1.885419e-04
3.647077e-03
1.185304e-02
2.749694e-02
5.467109e-02
9.759350e-02
1.576984e-01
2.265677e-01
2.757729e-01
2.669989e-01
1.907459e-01
0.000000e+00
1.166866e-01
2.490822e-01
4.016551e-01
5.647749e-01
7.301072e-01
8.956489e-01
1.060336e+00
1.223201e+00
1.383223e+00
1.539088e+00
1.688466e+00
1.825781e+00
1.938342e+00
2.006105e+00
2.013410e+00
1.973733e+00
0.000000e+00
2.609233e-01
5.480033e-01
8.661204e-01
1.196168e+00
1.523537e+00
1.847451e+00
2.167668e+00
2.480527e+00
2.779759e+00
3.057195e+00
3.303735e+00
3.509777e+00
3.664868e+00
3.759005e+00
3.790035e+00
3.780854e+00
0.000000e+00
4.587876e-01
9.546082e-01
1.442413e+00
1.939782e+00
2.427953e+00
2.907668e+00
3.381594e+00
3.843841e+00
4.282114e+00
4.680178e+00
5.021258e+00
5.291949e+00
5.484897e+00
5.600825e+00
5.650393e+00
5.659553e+00
0.000000e+00
8.252170e-01
1.498965e+00
2.151949e+00
2.816923e+00
3.470163e+00
4.113836e+00
4.750729e+00
5.371493e+00
5.957618e+00
6.484364e+00
6.925495e+00
7.259482e+00
7.475439e+00
7.580135e+00
7.605683e+00
7.605010e+00
0.000000e+00
-5.065103e-01
-1.037806e+00
-1.741936e+00
-2.610154e+00
-3.643107e+00
-4.844461e+00
-6.213488e+00
-7.745428e+00
-9.432639e+00
-1.126493e+01
-1.323225e+01
-1.533031e+01
-1.757096e+01
-2.001939e+01
-2.288602e+01
-2.715770e+01
0.000000e+00
-3.180814e-01
-8.718045e-01
-1.569708e+00
-2.437858e+00
-3.473639e+00
-4.677057e+00
-6.048508e+00
-7.585200e+00
-9.280329e+00
-1.112360e+01
-1.310379e+01
-1.521502e+01
-1.746993e+01
-1.992634e+01
-2.278120e+01
-2.634295e+01
0.000000e+00
-2.552451e-01
-7.605449e-01
-1.451889e+00
-2.316926e+00
-3.353416e+00
-4.559035e+00
-5.933962e+00
-7.476323e+00
-9.180320e+00
-1.103632e+01
-1.303345e+01
-1.516636e+01
-1.744615e+01
-1.991080e+01
-2.259615e+01
-2.515947e+01
0.000000e+00
-2.429882e-01
-7.135390e-01
-1.387170e+00
-2.246985e+00
-3.282635e+00
-4.490630e+00
-5.870162e+00
-7.419528e+00
-9.133679e+00
-1.100357e+01
-1.301797e+01
-1.516821e+01
-1.745171e+01
-1.985653e+01
-2.228242e+01
-2.445191e+01
0.000000e+00
-2.430615e-01
-7.022200e-01
-1.368301e+00
-2.224959e+00
-3.260825e+00
-4.471121e+00
-5.854897e+00
-7.410733e+00
-9.133974e+00
-1.101519e+01
-1.304049e+01
-1.519289e+01
-1.744905e+01
-1.975753e+01
-2.200496e+01
-2.400353e+01
0.000000e+00
-2.427799e-01
-7.135101e-01
-1.387768e+00
-2.248863e+00
-3.286805e+00
-4.498710e+00
-5.884754e+00
-7.444364e+00
-9.172974e+00
-1.105980e+01
-1.308667e+01
-1.522698e+01
-1.744110e+01
-1.966618e+01
-2.180780e+01
-2.374358e+01
0.000000e+00
-2.548933e-01
-7.604688e-01
-1.452801e+00
-2.319918e+00
-3.360182e+00
-4.572309e+00
-5.958170e+00
-7.517852e+00
-9.246471e+00
-1.113164e+01
-1.315131e+01
-1.527189e+01
-1.744576e+01
-1.961005e+01
-2.169311e+01
-2.362731e+01
0.000000e+00
-3.177270e-01
-8.717199e-01
-1.570704e+00
-2.441182e+00
-3.481250e+00
-4.692119e+00
-6.076079e+00
-7.632438e+00
-9.355212e+00
-1.123074e+01
-1.323513e+01
-1.533224e+01
-1.747247e+01
-1.959567e+01
-2.164525e+01
-2.360024e+01
0.000000e+00
-5.062819e-01
-1.037847e+00
-1.743088e+00
-2.613654e+00
-3.650925e+00
-4.859757e+00
-6.241034e+00
-7.791370e+00
-9.502828e+00
-1.136057e+01
-1.334066e+01
-1.540800e+01
-1.751539e+01
-1.960745e+01
-2.163642e+01
-2.360084e+01


0.000000e+00
9.865248e-06
1.931265e-05
2.825417e-05
3.754334e-05
4.656443e-05
5.475331e-05
6.193939e-05
6.793297e-05
7.254993e-05
7.582902e-05
7.803463e-05
7.953448e-05
8.071506e-05
8.188754e-05
8.357192e-05
8.579384e-05
0.000000e+00
7.248803e-06
1.556329e-05
2.233090e-05
2.937742e-05
3.624610e-05
4.236956e-05
4.764328e-05
5.196172e-05
5.516580e-05
5.729605e-05
5.857477e-05
5.922453e-05
5.939101e-05
5.956547e-05
6.092829e-05
6.326092e-05
0.000000e+00
5.447900e-06
1.098536e-05
1.563398e-05
2.039408e-05
2.487056e-05
2.882654e-05
3.219532e-05
3.490267e-05
3.686445e-05
3.811035e-05
3.876624e-05
3.898525e-05
3.897957e-05
3.917660e-05
4.031859e-05
4.225760e-05
0.000000e+00
2.720139e-06
5.140347e-06
7.737322e-06
1.012981e-05
1.229028e-05
1.421286e-05
1.585513e-05
1.715959e-05
1.809994e-05
1.868673e-05
1.897877e-05
1.909763e-05
1.922558e-05
1.952625e-05
2.020437e-05
2.131297e-05
0.000000e+00
-5.991929e-09
-1.248843e-08
-1.924276e-08
-2.651143e-08
-3.542357e-08
-4.962431e-08
-7.630087e-08
-1.234560e-07
-1.933139e-07
-2.762239e-07
-3.438605e-07
-3.452040e-07
-2.310718e-07
-3.938494e-08
2.149334e-07
6.899850e-07
0.000000e+00
-2.730826e-06
-5.161823e-06
-7.771077e-06
-1.017642e-05
-1.235068e-05
-1.429220e-05
-1.596746e-05
-1.732879e-05
-1.835634e-05
-1.905657e-05
-1.946519e-05
-1.964298e-05
-1.967344e-05
-1.966839e-05
-1.964902e-05
-1.948677e-05
0.000000e+00
-5.453032e-06
-1.099832e-05
-1.565736e-05
-2.043004e-05
-2.492088e-05
-2.889144e-05
-3.226169e-05
-3.494138e-05
-3.685398e-05
-3.806664e-05
-3.875322e-05
-3.910503e-05
-3.928432e-05
-3.939892e-05
-3.946174e-05
-3.942445e-05
0.000000e+00
-7.248830e-06
-1.556670e-05
-2.233985e-05
-2.939477e-05
-3.627707e-05
-4.241726e-05
-4.767783e-05
-5.190267e-05
-5.492813e-05
-5.685794e-05
-5.799768e-05
-5.865031e-05
-5.902747e-05
-5.924885e-05
-5.935860e-05
-5.937617e-05
0.000000e+00
-9.867143e-06
-1.931159e-05
-2.824942e-05
-3.753477e-05
-4.655467e-05
-5.474273e-05
-6.189596e-05
-6.777014e-05
-7.216671e-05
-7.516937e-05
-7.708579e-05
-7.825408e-05
-7.893404e-05
-7.929041e-05
-7.942547e-05
-7.944773e-05
0.000000e+00
8.637130e-06
1.481818e-05
2.232551e-05
3.223623e-05
4.405180e-05
5.771350e-05
7.314774e-05
9.001407e-05
1.079608e-04
1.267629e-04
1.462591e-04
1.663575e-04
1.872866e-04
2.104110e-04
2.367287e-04
2.637937e-04
0.000000e+00
4.479080e-06
1.088169e-05
1.829362e-05
2.808586e-05
4.014700e-05
5.426693e-05
7.022538e-05
8.770597e-05
1.063084e-04
1.256888e-04
1.456165e-04
1.659953e-04
1.869538e-04
2.090317e-04
2.337808e-04
2.599835e-04
0.000000e+00
1.961449e-06
7.696233e-06
1.533650e-05
2.511647e-05
3.737978e-05
5.184595e-05
6.819698e-05
8.611054e-05
1.051738e-04
1.249760e-04
1.452385e-04
1.658374e-04
1.866749e-04
2.076108e-04
2.305663e-04
2.554067e-04
0.000000e+00
1.123392e-06
6.223459e-06
1.390824e-05
2.384932e-05
3.621769e-05
5.080804e-05
6.731684e-05
8.540190e-05
1.046490e-04
1.246398e-04
1.450607e-04
1.657123e-04
1.863758e-04
2.067996e-04
2.284366e-04
2.516209e-04
0.000000e+00
9.591587e-07
5.809522e-06
1.343055e-05
2.348133e-05
3.588488e-05
5.050719e-05
6.706646e-05
8.520906e-05
1.045145e-04
1.245609e-04
1.450094e-04
1.656184e-04
1.861757e-04
2.065622e-04
2.275232e-04
2.491884e-04
0.000000e+00
1.124166e-06
6.221911e-06
1.390228e-05
2.383760e-05
3.620293e-05
5.080226e-05
6.734024e-05
8.546900e-05
1.047556e-04
1.247597e-04
1.451377e-04
1.656560e-04
1.861515e-04
2.065891e-04
2.272183e-04
2.479153e-04
0.000000e+00
1.962397e-06
7.693883e-06
1.532777e-05
2.509888e-05
3.735785e-05
5.184044e-05
6.824355e-05
8.623626e-05
1.053747e-04
1.252136e-04
1.454292e-04
1.658151e-04
1.862409e-04
2.066557e-04
2.270871e-04
2.473619e-04
0.000000e+00
4.481082e-06
1.088213e-05
1.828892e-05
2.807421e-05
4.013397e-05
5.427175e-05
7.027797e-05
8.783023e-05
1.065080e-04
1.259416e-04
1.458550e-04
1.660443e-04
1.863621e-04
2.067130e-04
2.270265e-04
2.471882e-04
0.000000e+00
8.641091e-06
1.482192e-05
2.232654e-05
3.223390e-05
4.405260e-05
5.772872e-05
7.318374e-05
9.007382e-05
1.080560e-04
1.269029e-04
1.464053e-04
1.663398e-04
1.865116e-04
2.067769e-04
2.270215e-04
2.471637e-04


2.168081e+00
2.120413e+00
2.262474e+00
2.489479e+00
2.673650e+00
2.916333e+00
3.224015e+00
3.557626e+00
3.883592e+00
4.167914e+00
4.384088e+00
4.521767e+00
4.560034e+00
4.405693e+00
4.067556e+00
3.802249e+00
2.794981e+00
2.746565e+00
2.836881e+00
2.997764e+00
3.130567e+00
3.312214e+00
3.546893e+00
3.803765e+00
4.057477e+00
4.280739e+00
4.450800e+00
4.557019e+00
4.575184e+00
4.408960e+00
4.075082e+00
3.815998e+00
3.733131e+00
3.695735e+00
3.729091e+00
3.796406e+00
3.852819e+00
3.941972e+00
4.060448e+00
4.193367e+00
4.328701e+00
4.450593e+00
4.544139e+00
4.600931e+00
4.600118e+00
4.463508e+00
4.200194e+00
4.003553e+00
4.330722e+00
4.306869e+00
4.305605e+00
4.312946e+00
4.326914e+00
4.355713e+00
4.396146e+00
4.444755e+00
4.498021e+00
4.548706e+00
4.589138e+00
4.614846e+00
4.614280e+00
4.543764e+00
4.404617e+00
4.300492e+00
4.330737e+00
4.306805e+00
4.305353e+00
4.312300e+00
4.325521e+00
4.353133e+00
4.391989e+00
4.438597e+00
4.489329e+00
4.537353e+00
4.576415e+00
4.604880e+00
4.619949e+00
4.605509e+00
4.560233e+00
4.524422e+00
3.732925e+00
3.695275e+00
3.728077e+00
3.794371e+00
3.849137e+00
3.936386e+00
4.053341e+00
4.184778e+00
4.317144e+00
4.434159e+00
4.523911e+00
4.585797e+00
4.625467e+00
4.644247e+00
4.645358e+00
4.641703e+00
2.794150e+00
2.745312e+00
2.834847e+00
2.994545e+00
3.126124e+00
3.308102e+00
3.546435e+00
3.809236e+00
4.066795e+00
4.288507e+00
4.453990e+00
4.563157e+00
4.629357e+00
4.666441e+00
4.684569e+00
4.691368e+00
2.166695e+00
2.118536e+00
2.259780e+00
2.485779e+00
2.669587e+00
2.915120e+00
3.231409e+00
3.577798e+00
3.914271e+00
4.201229e+00
4.413440e+00
4.551363e+00
4.632610e+00
4.677114e+00
4.699364e+00
4.708497e+00


-4.517772e-01
-2.038258e-01
-1.392595e-01
-1.829448e-01
-1.436661e-01
-1.111224e-01
-9.215083e-02
-5.424331e-02
1.783611e-02
1.241572e-01
2.504795e-01
3.727544e-01
4.739991e-01
5.566468e-01
6.461031e-01
-4.116227e-01
5.164651e-01
4.001207e-01
3.723751e-01
3.380244e-01
3.491326e-01
3.592803e-01
3.652682e-01
3.846841e-01
4.286862e-01
5.019704e-01
6.015544e-01
7.172732e-01
8.353655e-01
9.238821e-01
7.889357e-01
-1.126238e+00
8.325532e-01
7.424587e-01
6.695087e-01
6.352991e-01
6.266847e-01
6.221312e-01
6.201037e-01
6.260989e-01
6.454965e-01
6.815283e-01
7.309849e-01
7.787166e-01
7.911546e-01
7.044928e-01
4.147863e-01
-9.786348e-02
9.357755e-01
8.626957e-01
7.975801e-01
7.611114e-01
7.453914e-01
7.364178e-01
7.278990e-01
7.184273e-01
7.089656e-01
7.001015e-01
6.879046e-01
6.599125e-01
5.973602e-01
5.012251e-01
4.417954e-01
4.403761e-01
9.362412e-01
8.632849e-01
7.981156e-01
7.610235e-01
7.436805e-01
7.313807e-01
7.165480e-01
6.959766e-01
6.688155e-01
6.352688e-01
5.955184e-01
5.509647e-01
5.129628e-01
5.185596e-01
6.091206e-01
7.579291e-01
8.336196e-01
7.438529e-01
6.709006e-01
6.356714e-01
6.241228e-01
6.131568e-01
5.984830e-01
5.819274e-01
5.650769e-01
5.495461e-01
5.381465e-01
5.389190e-01
5.705942e-01
6.549607e-01
7.869550e-01
9.233199e-01
5.171975e-01
4.011502e-01
3.734820e-01
3.389785e-01
3.490933e-01
3.562630e-01
3.557996e-01
3.644271e-01
3.929731e-01
4.450906e-01
5.170443e-01
6.025133e-01
7.006241e-01
8.121798e-01
9.191665e-01
9.866214e-01
-4.525702e-01
-2.051127e-01
-1.407844e-01
-1.844180e-01
-1.444302e-01
-1.108171e-01
-8.854790e-02
-3.835212e-02
6.552426e-02
2.301020e-01
4.373368e-01
6.483999e-01
8.225523e-01
9.351740e-01
9.873192e-01
9.997410e-01
1 2 19 18
2 3 20 19
3 4 21 20
4 5 22 21
5 6 23 22
6 7 24 23
7 8 25 24
8 9 26 25
9 10 27 26
10 11 28 27
11 12 29 28
12 13 30 29
13 14 31 30
14 15 32 31
15 16 33 32
16 17 34 33
18 19 36 35
19 20 37 36
20 21 38 37
21 22 39 38
22 23 40 39
23 24 41 40
24 25 42 41
25 26 43 42
26 27 44 43
27 28 45 44
28 29 46 45
29 30 47 46
30 31 48 47
31 32 49 48
32 33 50 49
33 34 51 50
35 36 53 52
36 37 54 53
37 38 55 54
38 39 56 55
39 40 57 56
40 41 58 57
41 42 59 58
42 43 60 59
43 44 61 60
44 45 62 61
45 46 63 62
46 47 64 63
47 48 65 64
48 49 66 65
49 50 67 66
50 51 68 67
52 53 70 69
53 54 71 70
54 55 72 71
55 56 73 72
56 57 74 73
57 58 75 74
58 59 76 75
59 60 77 76
60 61 78 77
61 62 79 78
62 63 80 79
63 64 81 80
64 65 82 81
65 66 83 82
66 67 84 83
67 68 85 84
69 70 87 86
70 71 88 87
71 72 89 88
72 73 90 89
73 74 91 90
74 75 92 91
75 76 93 92
76 77 94 93
77 78 95 94
78 79 96 95
79 80 97 96
80 81 98 97
81 82 99 98
82 83 100 99
83 84 101 100
84 85 102 101
86 87 104 103
87 88 105 104
88 89 106 105
89 90 107 106
90 91 108 107
91 92 109 108
92 93 110 109
93 94 111 110
94 95 112 111
95 96 113 112
96 97 114 113
97 98 115 114
98 99 116 115
99 100 117 116
100 101 118 117
101 102 119 118
103 104 121 120
104 105 122 121
105 106 123 122
106 107 124 123
107 108 125 124
108 109 126 125
109 110 127 126
110 111 128 127
111 112 129 128
112 113 130 129
113 114 131 130
114 115 132 131
115 116 133 132
116 117 134 133
117 118 135 134
118 119 136 135
120 121 138 137
121 122 139 138
122 123 140 139
123 124 141 140
124 125 142 141
125 126 143 142
126 127 144 143
127 128 145 144
128 129 146 145
129 130 147 146
130 131 148 147
131 132 149 148
132 133 150 149
133 134 151 150
134 135 152 151
135 136 153 152
