TITLE = "Solution"
VARIABLES = x, y, u, v, psiu, psiv, t, stress
ZONE T="structure" N=153 E=128 F=FEBLOCK ET=QUADRILATERAL VARLOCATION=([7,8]=cellcentered)
0.000000e+00
1.250000e+01
2.500000e+01
3.750000e+01
5.000000e+01
6.250000e+01
7.500000e+01
8.750000e+01
1.000000e+02
1.125000e+02
1.250000e+02
1.375000e+02
1.500000e+02
1.625000e+02
1.750000e+02
1.875000e+02
2.000000e+02
0.000000e+00
1.250000e+01
2.500000e+01
3.750000e+01
5.000000e+01
6.250000e+01
7.500000e+01
8.750000e+01
1.000000e+02
1.125000e+02
1.250000e+02
1.375000e+02
1.500000e+02
1.625000e+02
1.750000e+02
1.875000e+02
2.000000e+02
0.000000e+00
1.250000e+01
2.500000e+01
3.750000e+01
5.000000e+01
6.250000e+01
7.500000e+01
8.750000e+01
1.000000e+02
1.125000e+02
1.250000e+02
1.375000e+02
1.500000e+02
1.625000e+02
1.750000e+02
1.875000e+02
2.000000e+02
0.000000e+00
1.250000e+01
2.500000e+01
3.750000e+01
5.000000e+01
6.250000e+01
7.500000e+01
8.750000e+01
1.000000e+02
1.125000e+02
1.250000e+02
1.375000e+02
1.500000e+02
1.625000e+02
1.750000e+02
1.875000e+02
2.000000e+02
0.000000e+00
1.250000e+01
2.500000e+01
3.750000e+01
5.000000e+01
6.250000e+01
7.500000e+01
8.750000e+01
1.000000e+02
1.125000e+02
1.250000e+02
1.375000e+02
1.500000e+02
1.625000e+02
1.750000e+02
1.875000e+02
2.000000e+02
0.000000e+00
1.250000e+01
2.500000e+01
3.750000e+01
5.000000e+01
6.250000e+01
7.500000e+01
8.750000e+01
1.000000e+02
1.125000e+02
1.250000e+02
1.375000e+02
1.500000e+02
1.625000e+02
1.750000e+02
1.875000e+02
2.000000e+02
0.000000e+00
1.250000e+01
2.500000e+01
3.750000e+01
5.000000e+01
6.250000e+01
7.500000e+01
8.750000e+01
1.000000e+02
1.125000e+02
1.250000e+02
1.375000e+02
1.500000e+02
1.625000e+02
1.750000e+02
1.875000e+02
2.000000e+02
0.000000e+00
1.250000e+01
2.500000e+01
3.750000e+01
5.000000e+01
6.250000e+01
7.500000e+01
8.750000e+01
1.000000e+02
1.125000e+02
1.250000e+02
1.375000e+02
1.500000e+02
1.625000e+02
1.750000e+02
1.875000e+02
2.000000e+02
0.000000e+00
1.250000e+01
2.500000e+01
3.750000e+01
5.000000e+01
6.250000e+01
7.500000e+01
8.750000e+01
1.000000e+02
1.125000e+02
1.250000e+02
1.375000e+02
1.500000e+02
1.625000e+02
1.750000e+02
1.875000e+02
2.000000e+02
0.000000e+00
0.000000e+00
0.000000e+00
0.000000e+00
0.000000e+00
0.000000e+00
0.000000e+00
0.000000e+00
0.000000e+00
0.000000e+00
0.000000e+00
0.000000e+00
0.000000e+00
0.000000e+00
0.000000e+00
0.000000e+00
0.000000e+00
1.250000e+01
1.250000e+01
1.250000e+01
1.250000e+01
1.250000e+01
1.250000e+01
1.250000e+01
1.250000e+01
1.250000e+01
1.250000e+01
1.250000e+01
1.250000e+01
1.250000e+01
1.250000e+01
1.250000e+01
1.250000e+01
1.250000e+01
2.500000e+01
2.500000e+01
2.500000e+01
2.500000e+01
2.500000e+01
2.500000e+01
2.500000e+01
2.500000e+01
2.500000e+01
2.500000e+01
2.500000e+01
2.500000e+01
2.500000e+01
2.500000e+01
2.500000e+01
2.500000e+01
2.500000e+01
3.750000e+01
3.750000e+01
3.750000e+01
3.750000e+01
3.750000e+01
3.750000e+01
3.750000e+01
3.750000e+01
3.750000e+01
3.750000e+01
3.750000e+01
3.750000e+01
3.750000e+01
3.750000e+01
3.750000e+01
3.750000e+01
3.750000e+01
5.000000e+01
5.000000e+01
5.000000e+01
5.000000e+01
5.000000e+01
5.000000e+01
5.000000e+01
5.000000e+01
5.000000e+01
5.000000e+01
5.000000e+01
5.000000e+01
5.000000e+01
5.000000e+01
5.000000e+01
5.000000e+01
5.000000e+01
6.250000e+01
6.250000e+01
6.250000e+01
6.250000e+01
6.250000e+01
6.250000e+01
6.250000e+01
6.250000e+01
6.250000e+01
6.250000e+01
6.250000e+01
6.250000e+01
6.250000e+01
6.250000e+01
6.250000e+01
6.250000e+01
6.250000e+01
7.500000e+01
7.500000e+01
7.500000e+01
7.500000e+01
7.500000e+01
7.500000e+01
7.500000e+01
7.500000e+01
7.500000e+01
7.500000e+01
7.500000e+01
7.500000e+01
7.500000e+01
7.500000e+01
7.500000e+01
7.500000e+01
7.500000e+01
8.750000e+01
8.750000e+01
8.750000e+01
8.750000e+01
8.750000e+01
8.750000e+01
8.750000e+01
8.750000e+01
8.750000e+01
8.750000e+01
8.750000e+01
8.750000e+01
8.750000e+01
8.750000e+01
8.750000e+01
8.750000e+01
8.750000e+01
1.000000e+02
1.000000e+02
1.000000e+02
1.000000e+02
1.000000e+02
1.000000e+02
1.000000e+02
1.000000e+02
1.000000e+02
1.000000e+02
1.000000e+02
1.000000e+02
1.000000e+02
1.000000e+02
1.000000e+02
1.000000e+02
1.000000e+02
0.000000e+00
-9.936628e-01
-1.679703e+00
-2.431000e+00
-3.115038e+00
-3.752837e+00
-4.456668e+00
-5.087881e+00
-5.763294e+00
-6.405120e+00
-7.056771e+00
-7.722841e+00
-8.376764e+00
-9.148343e+00
-1.007742e+01
-1.083315e+01
-1.128335e+01
0.000000e+00
-4.449742e-01
-9.075267e-01
-1.419086e+00
-1.930236e+00
-2.411962e+00
-2.925447e+00
-3.423441e+00
-3.919985e+00
-4.421647e+00
-4.915058e+00
-5.417205e+00
-5.902098e+00
-6.422634e+00
-6.897278e+00
-7.023053e+00
-7.201890e+00
0.000000e+00
-1.463837e-01
-3.498881e-01
-6.402279e-01
-9.782128e-01
-1.303757e+00
-1.657310e+00
-2.013335e+00
-2.357775e+00
-2.718841e+00
-3.058102e+00
-3.392033e+00
-3.687379e+00
-3.927206e+00
-4.035839e+00
-4.033624e+00
-4.182175e+00
0.000000e+00
-7.890789e-02
-1.623020e-01
-3.095081e-01
-4.544966e-01
-6.286181e-01
-8.128292e-01
-9.792885e-01
-1.165888e+00
-1.327976e+00
-1.489081e+00
-1.627873e+00
-1.721012e+00
-1.728963e+00
-1.655686e+00
-1.635306e+00
-1.752696e+00
0.000000e+00
-3.225026e-03
-7.034676e-03
-1.099601e-02
-1.517661e-02
-1.826261e-02
-1.880088e-02
-1.567155e-02
-6.680957e-03
1.016501e-02
3.465839e-02
7.917307e-02
1.612808e-01
2.759758e-01
3.954577e-01
4.359026e-01
3.376898e-01
0.000000e+00
7.329619e-02
1.509128e-01
2.908964e-01
4.293086e-01
5.970551e-01
7.758398e-01
9.470006e-01
1.152449e+00
1.347303e+00
1.563379e+00
1.783765e+00
2.009746e+00
2.216041e+00
2.351596e+00
2.384574e+00
2.319066e+00
0.000000e+00
1.441516e-01
3.447944e-01
6.314243e-01
9.662524e-01
1.291199e+00
1.643337e+00
1.999829e+00
2.362307e+00
2.766246e+00
3.144664e+00
3.511638e+00
3.844997e+00
4.119669e+00
4.295683e+00
4.350422e+00
4.327891e+00
0.000000e+00
4.457358e-01
9.082708e-01
1.419632e+00
1.930093e+00
2.410168e+00
2.920731e+00
3.415543e+00
3.903994e+00
4.396941e+00
4.875380e+00
5.350623e+00
5.779665e+00
6.126817e+00
6.343415e+00
6.438969e+00
6.456591e+00
0.000000e+00
9.958859e-01
1.684556e+00
2.439631e+00
3.126089e+00
3.765122e+00
4.468782e+00
5.097501e+00
5.745971e+00
6.331185e+00
6.905541e+00
7.506299e+00
8.037502e+00
8.448288e+00
8.649794e+00
8.702775e+00
8.703338e+00
0.000000e+00
-6.180053e-01
-1.360932e+00
-2.361197e+00
-3.534792e+00
-4.878512e+00
-6.408758e+00
-8.094647e+00
-9.954738e+00
-1.197763e+01
-1.416252e+01
-1.651239e+01
-1.902596e+01
-2.175715e+01
-2.472079e+01
-2.808056e+01
-3.309645e+01
0.000000e+00
-4.147561e-01
-1.192328e+00
-2.175372e+00
-3.365427e+00
-4.703972e+00
-6.231668e+00
-7.925568e+00
-9.778816e+00
-1.180986e+01
-1.399025e+01
-1.634494e+01
-1.885271e+01
-2.156464e+01
-2.458092e+01
-2.799665e+01
-3.204718e+01
0.000000e+00
-3.889742e-01
-1.090748e+00
-2.071962e+00
-3.245824e+00
-4.578509e+00
-6.111294e+00
-7.796215e+00
-9.659681e+00
-1.168819e+01
-1.387974e+01
-1.624558e+01
-1.876384e+01
-2.150243e+01
-2.457114e+01
-2.784450e+01
-3.087679e+01
0.000000e+00
-4.478609e-01
-1.087046e+00
-2.045806e+00
-3.182774e+00
-4.509506e+00
-6.048470e+00
-7.720310e+00
-9.601919e+00
-1.163010e+01
-1.384276e+01
-1.622842e+01
-1.877257e+01
-2.151253e+01
-2.450188e+01
-2.753461e+01
-3.015918e+01
0.000000e+00
-4.551206e-01
-1.109165e+00
-2.029907e+00
-3.169228e+00
-4.498526e+00
-6.027608e+00
-7.717753e+00
-9.592802e+00
-1.164267e+01
-1.386869e+01
-1.626244e+01
-1.881403e+01
-2.151365e+01
-2.435109e+01
-2.716837e+01
-2.955506e+01
0.000000e+00
-4.465916e-01
-1.086632e+00
-2.047768e+00
-3.189716e+00
-4.526368e+00
-6.075482e+00
-7.757331e+00
-9.654974e+00
-1.170886e+01
-1.393812e+01
-1.631461e+01
-1.884556e+01
-2.150354e+01
-2.421566e+01
-2.684888e+01
-2.911759e+01
0.000000e+00
-3.872747e-01
-1.090559e+00
-2.076357e+00
-3.259142e+00
-4.607047e+00
-6.157015e+00
-7.866630e+00
-9.760846e+00
-1.182425e+01
-1.402479e+01
-1.638172e+01
-1.888524e+01
-2.150359e+01
-2.413289e+01
-2.664181e+01
-2.888474e+01
0.000000e+00
-4.131829e-01
-1.192200e+00
-2.180492e+00
-3.380791e+00
-4.734391e+00
-6.283006e+00
-8.007802e+00
-9.899483e+00
-1.196098e+01
-1.414046e+01
-1.648037e+01
-1.896238e+01
-2.154523e+01
-2.411236e+01
-2.655412e+01
-2.882440e+01
0.000000e+00
-6.169905e-01
-1.361404e+00
-2.367019e+00
-3.550572e+00
-4.908989e+00
-6.460822e+00
-8.176424e+00
-1.007142e+01
-1.211689e+01
-1.429579e+01
-1.662881e+01
-1.908598e+01
-2.162704e+01
-2.413708e+01
-2.653915e+01
-2.882326e+01


0.000000e+00
1.541665e-05
2.511655e-05
3.749460e-05
5.358013e-05
6.720362e-05
8.300914e-05
9.712756e-05
1.116232e-04
1.256756e-04
1.408007e-04
1.551062e-04
1.718263e-04
1.874694e-04
1.972238e-04
2.028684e-04
2.097874e-04
0.000000e+00
1.146296e-05
1.974686e-05
2.838351e-05
4.101232e-05
5.169119e-05
6.182060e-05
7.297378e-05
8.316239e-05
9.455976e-05
1.052410e-04
1.154908e-04
1.264813e-04
1.357052e-04
1.370495e-04
1.407762e-04
1.466046e-04
0.000000e+00
9.538373e-06
1.501691e-05
2.017005e-05
2.887475e-05
3.552382e-05
4.132027e-05
4.870620e-05
5.471923e-05
6.203856e-05
6.847236e-05
7.397788e-05
7.870223e-05
8.077352e-05
7.993851e-05
8.232137e-05
8.656892e-05
0.000000e+00
5.175982e-06
6.843907e-06
9.601127e-06
1.307026e-05
1.362309e-05
1.600650e-05
1.769468e-05
2.117736e-05
2.471241e-05
2.824132e-05
2.911535e-05
2.845221e-05
2.695188e-05
2.677244e-05
2.985279e-05
3.552427e-05
0.000000e+00
-1.712448e-07
-4.265078e-07
-8.397881e-07
-1.688991e-06
-2.800873e-06
-4.849015e-06
-6.951920e-06
-7.425234e-06
-7.496471e-06
-8.622511e-06
-1.190228e-05
-1.465982e-05
-1.598976e-05
-1.564833e-05
-1.345947e-05
-9.474193e-06
0.000000e+00
-5.433732e-06
-7.419993e-06
-1.070479e-05
-1.462738e-05
-1.613637e-05
-2.058764e-05
-2.457022e-05
-3.023438e-05
-3.329021e-05
-3.734865e-05
-4.218249e-05
-4.714072e-05
-4.876847e-05
-4.931324e-05
-4.980957e-05
-4.811776e-05
0.000000e+00
-9.536138e-06
-1.508141e-05
-2.033533e-05
-2.897401e-05
-3.532235e-05
-4.084904e-05
-4.894293e-05
-5.611871e-05
-6.353694e-05
-6.874246e-05
-7.371451e-05
-7.787589e-05
-8.126682e-05
-8.318556e-05
-8.510087e-05
-8.585032e-05
0.000000e+00
-1.139296e-05
-1.966040e-05
-2.828189e-05
-4.079317e-05
-5.163273e-05
-6.158242e-05
-7.281468e-05
-8.322209e-05
-9.455992e-05
-1.051994e-04
-1.133350e-04
-1.181740e-04
-1.231473e-04
-1.266824e-04
-1.279533e-04
-1.280506e-04
0.000000e+00
-1.542739e-05
-2.505796e-05
-3.734527e-05
-5.337593e-05
-6.702751e-05
-8.268375e-05
-9.583693e-05
-1.097506e-04
-1.234728e-04
-1.411291e-04
-1.567143e-04
-1.662503e-04
-1.714053e-04
-1.736238e-04
-1.738266e-04
-1.736398e-04
0.000000e+00
1.260521e-05
2.001162e-05
3.246376e-05
4.880411e-05
6.693518e-05
9.134192e-05
1.201463e-04
1.531643e-04
1.898112e-04
2.298052e-04
2.737811e-04
3.238751e-04
3.778932e-04
4.393080e-04
5.100575e-04
5.832950e-04
0.000000e+00
7.677469e-06
1.612242e-05
2.636343e-05
4.232964e-05
6.098894e-05
8.489848e-05
1.142509e-04
1.469679e-04
1.836280e-04
2.235149e-04
2.675552e-04
3.172800e-04
3.730679e-04
4.341401e-04
5.026827e-04
5.729251e-04
0.000000e+00
4.326061e-06
1.231401e-05
2.172796e-05
3.652180e-05
5.573811e-05
7.953371e-05
1.097718e-04
1.427796e-04
1.791117e-04
2.188854e-04
2.630818e-04
3.135026e-04
3.707593e-04
4.300581e-04
4.952068e-04
5.632055e-04
0.000000e+00
3.200748e-06
1.060744e-05
2.007380e-05
3.449654e-05
5.207387e-05
7.661049e-05
1.089072e-04
1.432172e-04
1.775436e-04
2.167730e-04
2.615619e-04
3.128234e-04
3.693767e-04
4.273493e-04
4.873704e-04
5.490223e-04
0.000000e+00
2.814253e-06
1.027394e-05
2.002583e-05
3.418164e-05
5.075067e-05
7.555833e-05
1.099419e-04
1.444007e-04
1.772209e-04
2.150126e-04
2.616300e-04
3.131835e-04
3.694736e-04
4.261983e-04
4.809786e-04
5.329356e-04
0.000000e+00
3.340102e-06
1.079314e-05
2.044102e-05
3.481544e-05
5.186812e-05
7.733471e-05
1.107641e-04
1.449158e-04
1.770298e-04
2.154092e-04
2.632836e-04
3.155818e-04
3.697121e-04
4.260772e-04
4.786579e-04
5.219959e-04
0.000000e+00
4.475185e-06
1.253680e-05
2.206274e-05
3.678687e-05
5.579293e-05
8.047804e-05
1.116362e-04
1.442858e-04
1.782151e-04
2.177951e-04
2.665482e-04
3.190588e-04
3.717022e-04
4.251236e-04
4.759453e-04
5.185967e-04
0.000000e+00
7.798043e-06
1.635277e-05
2.665450e-05
4.257308e-05
6.137780e-05
8.582785e-05
1.157979e-04
1.477468e-04
1.826309e-04
2.224765e-04
2.701953e-04
3.220586e-04
3.738613e-04
4.252128e-04
4.739469e-04
5.190819e-04
0.000000e+00
1.271443e-05
2.024188e-05
3.274467e-05
4.912586e-05
6.744813e-05
9.233176e-05
1.214822e-04
1.538893e-04
1.889666e-04
2.295979e-04
2.744463e-04
3.242373e-04
3.750722e-04
4.254981e-04
4.734631e-04
5.193527e-04


5.578755e+00
6.070756e+00
6.802610e+00
5.832695e+00
5.348370e+00
5.853522e+00
5.924955e+00
6.136806e+00
5.838473e+00
5.866979e+00
6.241128e+00
7.119066e+00
8.817582e+00
9.794690e+00
9.113720e+00
7.964508e+00
8.028566e+00
8.410776e+00
8.616792e+00
8.316827e+00
8.024015e+00
8.202025e+00
8.397301e+00
8.300684e+00
8.310999e+00
8.233465e+00
8.378187e+00
8.806565e+00
9.479439e+00
9.806558e+00
8.361037e+00
6.443175e+00
9.817304e+00
9.802495e+00
9.974160e+00
9.812023e+00
9.809262e+00
9.892812e+00
9.801304e+00
9.897821e+00
9.816350e+00
9.852228e+00
9.865821e+00
9.847879e+00
9.866057e+00
9.366681e+00
7.958034e+00
6.153148e+00
9.987243e+00
9.987008e+00
9.986891e+00
9.985607e+00
9.983825e+00
9.980457e+00
9.976894e+00
9.977147e+00
9.979141e+00
9.978199e+00
9.967922e+00
9.453358e+00
8.801489e+00
8.344537e+00
7.942881e+00
7.848412e+00
9.987179e+00
9.986862e+00
9.986619e+00
9.984912e+00
9.981983e+00
9.975863e+00
9.912642e+00
9.951194e+00
9.966162e+00
9.885159e+00
9.326399e+00
8.525283e+00
7.636452e+00
7.684810e+00
8.595643e+00
9.105972e+00
9.817486e+00
9.801885e+00
9.972849e+00
9.808440e+00
9.799041e+00
9.646512e+00
9.357056e+00
9.522115e+00
9.367511e+00
8.803704e+00
8.266099e+00
7.822154e+00
8.075823e+00
8.666563e+00
9.399918e+00
9.956296e+00
8.031144e+00
8.411257e+00
8.614334e+00
8.309677e+00
7.944669e+00
7.799975e+00
7.648923e+00
7.660558e+00
7.684764e+00
7.251562e+00
7.429185e+00
8.422991e+00
9.206568e+00
9.781842e+00
9.974323e+00
9.984289e+00
5.586064e+00
6.072886e+00
6.800777e+00
5.824767e+00
5.326228e+00
5.530393e+00
5.431086e+00
5.871477e+00
5.894430e+00
6.329895e+00
7.786387e+00
9.072934e+00
9.940512e+00
9.979869e+00
9.985933e+00
9.988072e+00


-8.110509e-01
-1.772466e-01
-3.932800e-01
-2.536010e-01
-1.047764e-01
-2.980468e-01
-1.271176e-01
-2.098746e-01
-1.592700e-01
-1.629448e-01
-2.097012e-01
-1.517982e-01
-4.667298e-01
-6.774322e-01
3.176344e-01
-8.470784e-01
6.119522e-01
4.775610e-01
2.973636e-01
2.264630e-01
2.870877e-01
1.687651e-01
1.770000e-01
1.708984e-01
1.132682e-01
1.463810e-01
1.310481e-01
2.427238e-01
3.019536e-01
5.128678e-01
6.962109e-01
-9.381827e-01
7.245764e-01
4.713807e-01
6.032488e-02
-1.546217e-02
-3.902135e-02
-1.778952e-01
-7.922987e-02
-1.331518e-01
-7.144819e-02
-1.651967e-02
3.715356e-02
1.891266e-01
2.807291e-01
1.498865e-01
-2.303014e-02
-1.702545e-01
7.296917e-01
5.564265e-01
1.950570e-01
6.630056e-02
-2.363433e-02
-9.851310e-02
-1.722261e-02
-5.805064e-02
1.646915e-02
2.147952e-02
6.184478e-02
1.177989e-01
5.796223e-02
-2.649430e-01
-3.827451e-01
-7.599520e-02
7.325470e-01
5.603500e-01
2.027783e-01
7.364096e-02
-2.083568e-02
-1.054863e-01
-3.774544e-02
-9.791393e-02
-4.673567e-02
-3.623119e-02
1.994286e-02
1.392828e-02
-3.698075e-02
-1.327165e-01
-1.039612e-01
3.124922e-01
7.312236e-01
4.815837e-01
7.815103e-02
1.535385e-03
-2.859225e-02
-1.599382e-01
-8.665706e-02
-1.963621e-01
-1.798536e-01
-1.037920e-01
-8.009748e-02
-9.947303e-02
-1.051466e-01
4.813186e-02
3.338898e-01
7.257460e-01
6.158269e-01
4.834913e-01
3.048596e-01
2.319930e-01
2.851326e-01
1.628262e-01
1.522949e-01
9.539738e-02
-5.367036e-02
-3.917063e-02
-9.789336e-02
-6.098543e-02
6.234330e-02
3.687156e-01
7.132091e-01
9.479892e-01
-8.167112e-01
-1.822859e-01
-4.009892e-01
-2.575982e-01
-1.047778e-01
-2.939876e-01
-1.208435e-01
-1.524555e-01
-5.672521e-02
-2.368479e-02
-9.273276e-02
9.563339e-02
3.908890e-01
7.724045e-01
9.528041e-01
9.987331e-01
1 2 19 18
2 3 20 19
3 4 21 20
4 5 22 21
5 6 23 22
6 7 24 23
7 8 25 24
8 9 26 25
9 10 27 26
10 11 28 27
11 12 29 28
12 13 30 29
13 14 31 30
14 15 32 31
15 16 33 32
16 17 34 33
18 19 36 35
19 20 37 36
20 21 38 37
21 22 39 38
22 23 40 39
23 24 41 40
24 25 42 41
25 26 43 42
26 27 44 43
27 28 45 44
28 29 46 45
29 30 47 46
30 31 48 47
31 32 49 48
32 33 50 49
33 34 51 50
35 36 53 52
36 37 54 53
37 38 55 54
38 39 56 55
39 40 57 56
40 41 58 57
41 42 59 58
42 43 60 59
43 44 61 60
44 45 62 61
45 46 63 62
46 47 64 63
47 48 65 64
48 49 66 65
49 50 67 66
50 51 68 67
52 53 70 69
53 54 71 70
54 55 72 71
55 56 73 72
56 57 74 73
57 58 75 74
58 59 76 75
59 60 77 76
60 61 78 77
61 62 79 78
62 63 80 79
63 64 81 80
64 65 82 81
65 66 83 82
66 67 84 83
67 68 85 84
69 70 87 86
70 71 88 87
71 72 89 88
72 73 90 89
73 74 91 90
74 75 92 91
75 76 93 92
76 77 94 93
77 78 95 94
78 79 96 95
79 80 97 96
80 81 98 97
81 82 99 98
82 83 100 99
83 84 101 100
84 85 102 101
86 87 104 103
87 88 105 104
88 89 106 105
89 90 107 106
90 91 108 107
91 92 109 108
92 93 110 109
93 94 111 110
94 95 112 111
95 96 113 112
96 97 114 113
97 98 115 114
98 99 116 115
99 100 117 116
100 101 118 117
101 102 119 118
103 104 121 120
104 105 122 121
105 106 123 122
106 107 124 123
107 108 125 124
108 109 126 125
109 110 127 126
110 111 128 127
111 112 129 128
112 113 130 129
113 114 131 130
114 115 132 131
115 116 133 132
116 117 134 133
117 118 135 134
118 119 136 135
120 121 138 137
121 122 139 138
122 123 140 139
123 124 141 140
124 125 142 141
125 126 143 142
126 127 144 143
127 128 145 144
128 129 146 145
129 130 147 146
130 131 148 147
131 132 149 148
132 133 150 149
133 134 151 150
134 135 152 151
135 136 153 152
