TITLE = "Solution"
VARIABLES = x, y, u, v, psiu, psiv, t, stress
ZONE T="structure" N=153 E=128 F=FEBLOCK ET=QUADRILATERAL VARLOCATION=([7,8]=cellcentered)
0.000000e+00
1.250000e+01
2.500000e+01
3.750000e+01
5.000000e+01
6.250000e+01
7.500000e+01
8.750000e+01
1.000000e+02
1.125000e+02
1.250000e+02
1.375000e+02
1.500000e+02
1.625000e+02
1.750000e+02
1.875000e+02
2.000000e+02
0.000000e+00
1.250000e+01
2.500000e+01
3.750000e+01
5.000000e+01
6.250000e+01
7.500000e+01
8.750000e+01
1.000000e+02
1.125000e+02
1.250000e+02
1.375000e+02
1.500000e+02
1.625000e+02
1.750000e+02
1.875000e+02
2.000000e+02
0.000000e+00
1.250000e+01
2.500000e+01
3.750000e+01
5.000000e+01
6.250000e+01
7.500000e+01
8.750000e+01
1.000000e+02
1.125000e+02
1.250000e+02
1.375000e+02
1.500000e+02
1.625000e+02
1.750000e+02
1.875000e+02
2.000000e+02
0.000000e+00
1.250000e+01
2.500000e+01
3.750000e+01
5.000000e+01
6.250000e+01
7.500000e+01
8.750000e+01
1.000000e+02
1.125000e+02
1.250000e+02
1.375000e+02
1.500000e+02
1.625000e+02
1.750000e+02
1.875000e+02
2.000000e+02
0.000000e+00
1.250000e+01
2.500000e+01
3.750000e+01
5.000000e+01
6.250000e+01
7.500000e+01
8.750000e+01
1.000000e+02
1.125000e+02
1.250000e+02
1.375000e+02
1.500000e+02
1.625000e+02
1.750000e+02
1.875000e+02
2.000000e+02
0.000000e+00
1.250000e+01
2.500000e+01
3.750000e+01
5.000000e+01
6.250000e+01
7.500000e+01
8.750000e+01
1.000000e+02
1.125000e+02
1.250000e+02
1.375000e+02
1.500000e+02
1.625000e+02
1.750000e+02
1.875000e+02
2.000000e+02
0.000000e+00
1.250000e+01
2.500000e+01
3.750000e+01
5.000000e+01
6.250000e+01
7.500000e+01
8.750000e+01
1.000000e+02
1.125000e+02
1.250000e+02
1.375000e+02
1.500000e+02
1.625000e+02
1.750000e+02
1.875000e+02
2.000000e+02
0.000000e+00
1.250000e+01
2.500000e+01
3.750000e+01
5.000000e+01
6.250000e+01
7.500000e+01
8.750000e+01
1.000000e+02
1.125000e+02
1.250000e+02
1.375000e+02
1.500000e+02
1.625000e+02
1.750000e+02
1.875000e+02
2.000000e+02
0.000000e+00
1.250000e+01
2.500000e+01
3.750000e+01
5.000000e+01
6.250000e+01
7.500000e+01
8.750000e+01
1.000000e+02
1.125000e+02
1.250000e+02
1.375000e+02
1.500000e+02
1.625000e+02
1.750000e+02
1.875000e+02
2.000000e+02
0.000000e+00
0.000000e+00
0.000000e+00
0.000000e+00
0.000000e+00
0.000000e+00
0.000000e+00
0.000000e+00
0.000000e+00
0.000000e+00
0.000000e+00
0.000000e+00
0.000000e+00
0.000000e+00
0.000000e+00
0.000000e+00
0.000000e+00
1.250000e+01
1.250000e+01
1.250000e+01
1.250000e+01
1.250000e+01
1.250000e+01
1.250000e+01
1.250000e+01
1.250000e+01
1.250000e+01
1.250000e+01
1.250000e+01
1.250000e+01
1.250000e+01
1.250000e+01
1.250000e+01
1.250000e+01
2.500000e+01
2.500000e+01
2.500000e+01
2.500000e+01
2.500000e+01
2.500000e+01
2.500000e+01
2.500000e+01
2.500000e+01
2.500000e+01
2.500000e+01
2.500000e+01
2.500000e+01
2.500000e+01
2.500000e+01
2.500000e+01
2.500000e+01
3.750000e+01
3.750000e+01
3.750000e+01
3.750000e+01
3.750000e+01
3.750000e+01
3.750000e+01
3.750000e+01
3.750000e+01
3.750000e+01
3.750000e+01
3.750000e+01
3.750000e+01
3.750000e+01
3.750000e+01
3.750000e+01
3.750000e+01
5.000000e+01
5.000000e+01
5.000000e+01
5.000000e+01
5.000000e+01
5.000000e+01
5.000000e+01
5.000000e+01
5.000000e+01
5.000000e+01
5.000000e+01
5.000000e+01
5.000000e+01
5.000000e+01
5.000000e+01
5.000000e+01
5.000000e+01
6.250000e+01
6.250000e+01
6.250000e+01
6.250000e+01
6.250000e+01
6.250000e+01
6.250000e+01
6.250000e+01
6.250000e+01
6.250000e+01
6.250000e+01
6.250000e+01
6.250000e+01
6.250000e+01
6.250000e+01
6.250000e+01
6.250000e+01
7.500000e+01
7.500000e+01
7.500000e+01
7.500000e+01
7.500000e+01
7.500000e+01
7.500000e+01
7.500000e+01
7.500000e+01
7.500000e+01
7.500000e+01
7.500000e+01
7.500000e+01
7.500000e+01
7.500000e+01
7.500000e+01
7.500000e+01
8.750000e+01
8.750000e+01
8.750000e+01
8.750000e+01
8.750000e+01
8.750000e+01
8.750000e+01
8.750000e+01
8.750000e+01
8.750000e+01
8.750000e+01
8.750000e+01
8.750000e+01
8.750000e+01
8.750000e+01
8.750000e+01
8.750000e+01
1.000000e+02
1.000000e+02
1.000000e+02
1.000000e+02
1.000000e+02
1.000000e+02
1.000000e+02
1.000000e+02
1.000000e+02
1.000000e+02
1.000000e+02
1.000000e+02
1.000000e+02
1.000000e+02
1.000000e+02
1.000000e+02
1.000000e+02
0.000000e+00
-1.144360e-01
-2.107129e-01
-2.993003e-01
-3.818000e-01
-4.580381e-01
-5.278509e-01
-5.911842e-01
-6.481302e-01
-6.989510e-01
-7.441505e-01
-7.846121e-01
-8.218556e-01
-8.585062e-01
-8.990921e-01
-9.489367e-01
-9.863396e-01
0.000000e+00
-6.833908e-02
-1.419612e-01
-2.099465e-01
-2.725821e-01
-3.301060e-01
-3.826374e-01
-4.302468e-01
-4.730198e-01
-5.110883e-01
-5.446454e-01
-5.739330e-01
-5.991381e-01
-6.200011e-01
-6.347169e-01
-6.379423e-01
-6.495064e-01
0.000000e+00
-4.273728e-02
-8.787855e-02
-1.329137e-01
-1.749528e-01
-2.135506e-01
-2.486758e-01
-2.803681e-01
-3.086354e-01
-3.334304e-01
-3.546198e-01
-3.719074e-01
-3.846771e-01
-3.918054e-01
-3.920033e-01
-3.891557e-01
-4.009501e-01
0.000000e+00
-2.062764e-02
-4.246478e-02
-6.443988e-02
-8.545208e-02
-1.048057e-01
-1.223478e-01
-1.380274e-01
-1.517547e-01
-1.633511e-01
-1.725202e-01
-1.788292e-01
-1.817616e-01
-1.810765e-01
-1.782618e-01
-1.790315e-01
-1.878137e-01
0.000000e+00
-1.900253e-05
-4.319868e-05
-6.731539e-05
-8.011475e-05
-5.653681e-05
5.315927e-05
3.382275e-04
9.451009e-04
2.091900e-03
4.063194e-03
7.144855e-03
1.141413e-02
1.623862e-02
1.957124e-02
1.865721e-02
1.284264e-02
0.000000e+00
2.059840e-02
4.239690e-02
6.433130e-02
8.531703e-02
1.046958e-01
1.223904e-01
1.384874e-01
1.531262e-01
1.664768e-01
1.787135e-01
1.899268e-01
1.999222e-01
2.079373e-01
2.126522e-01
2.130262e-01
2.100749e-01
0.000000e+00
4.273248e-02
8.786393e-02
1.328846e-01
1.749073e-01
2.134940e-01
2.486289e-01
2.803833e-01
3.088232e-01
3.339990e-01
3.559327e-01
3.745706e-01
3.896984e-01
4.008829e-01
4.075961e-01
4.097759e-01
4.090877e-01
0.000000e+00
6.836711e-02
1.420221e-01
2.100437e-01
2.727125e-01
3.302455e-01
3.827157e-01
4.301036e-01
4.723370e-01
5.092940e-01
5.407991e-01
5.666345e-01
5.865936e-01
6.006104e-01
6.089717e-01
6.125373e-01
6.131922e-01
0.000000e+00
1.144829e-01
2.108366e-01
2.995319e-01
3.821701e-01
4.585586e-01
5.284718e-01
5.917063e-01
6.480507e-01
6.972120e-01
7.387640e-01
7.721527e-01
7.968298e-01
8.126010e-01
8.202282e-01
8.221108e-01
8.220745e-01
0.000000e+00
-6.927127e-02
-1.359876e-01
-2.224366e-01
-3.285348e-01
-4.540838e-01
-5.977087e-01
-7.578020e-01
-9.326616e-01
-1.120608e+00
-1.320088e+00
-1.529869e+00
-1.749443e+00
-1.979984e+00
-2.227472e+00
-2.510643e+00
-2.917511e+00
0.000000e+00
-4.264467e-02
-1.122408e-01
-1.997617e-01
-3.075939e-01
-4.348562e-01
-5.802210e-01
-7.420416e-01
-9.185959e-01
-1.108174e+00
-1.309181e+00
-1.520325e+00
-1.741023e+00
-1.972415e+00
-2.219807e+00
-2.501260e+00
-2.846070e+00
0.000000e+00
-3.217921e-02
-9.577828e-02
-1.836222e-01
-2.924738e-01
-4.210460e-01
-5.677470e-01
-7.309140e-01
-9.088369e-01
-1.099830e+00
-1.302329e+00
-1.515087e+00
-1.737575e+00
-1.970747e+00
-2.218351e+00
-2.485038e+00
-2.743134e+00
0.000000e+00
-2.772978e-02
-8.759322e-02
-1.741487e-01
-2.833939e-01
-4.127575e-01
-5.603730e-01
-7.245147e-01
-9.035044e-01
-1.095702e+00
-1.299577e+00
-1.513859e+00
-1.737768e+00
-1.971198e+00
-2.213848e+00
-2.458896e+00
-2.684641e+00
0.000000e+00
-2.644800e-02
-8.511604e-02
-1.711267e-01
-2.804015e-01
-4.100871e-01
-5.581271e-01
-7.227972e-01
-9.024511e-01
-1.095476e+00
-1.300307e+00
-1.515472e+00
-1.739580e+00
-1.970978e+00
-2.206203e+00
-2.437210e+00
-2.650024e+00
0.000000e+00
-2.771332e-02
-8.758151e-02
-1.741696e-01
-2.834963e-01
-4.130272e-01
-5.609501e-01
-7.256076e-01
-9.053886e-01
-1.098672e+00
-1.303792e+00
-1.518967e+00
-1.742115e+00
-1.970398e+00
-2.199429e+00
-2.422514e+00
-2.630786e+00
0.000000e+00
-3.215236e-02
-9.575887e-02
-1.836570e-01
-2.926464e-01
-4.215024e-01
-5.687253e-01
-7.327697e-01
-9.120405e-01
-1.104889e+00
-1.309536e+00
-1.523928e+00
-1.745481e+00
-1.970772e+00
-2.195363e+00
-2.414167e+00
-2.622301e+00
0.000000e+00
-4.261950e-02
-1.122239e-01
-1.998079e-01
-3.078010e-01
-4.353928e-01
-5.813598e-01
-7.441864e-01
-9.222760e-01
-1.113949e+00
-1.317356e+00
-1.530293e+00
-1.749958e+00
-1.972741e+00
-2.194344e+00
-2.410716e+00
-2.620309e+00
0.000000e+00
-6.926087e-02
-1.359891e-01
-2.225081e-01
-3.287749e-01
-4.546573e-01
-5.988739e-01
-7.599281e-01
-9.362062e-01
-1.125999e+00
-1.327413e+00
-1.538195e+00
-1.755524e+00
-1.975870e+00
-2.195210e+00
-2.410084e+00
-2.620340e+00


0.000000e+00
3.184433e-09
6.584995e-09
9.594112e-09
1.213176e-08
1.419037e-08
1.580888e-08
1.704861e-08
1.797448e-08
1.864867e-08
1.912814e-08
1.946404e-08
1.970309e-08
1.988859e-08
2.006127e-08
2.027473e-08
2.053124e-08
0.000000e+00
2.167953e-09
5.106151e-09
7.496551e-09
9.410415e-09
1.092023e-08
1.208387e-08
1.295992e-08
1.360236e-08
1.405920e-08
1.437198e-08
1.457506e-08
1.469435e-08
1.475296e-08
1.481243e-08
1.498696e-08
1.525107e-08
0.000000e+00
1.613883e-09
3.545681e-09
5.157967e-09
6.451492e-09
7.448608e-09
8.198008e-09
8.748016e-09
9.139727e-09
9.407051e-09
9.577739e-09
9.674463e-09
9.717444e-09
9.734043e-09
9.776003e-09
9.912949e-09
1.012679e-08
0.000000e+00
8.632726e-10
1.767424e-09
2.573904e-09
3.232846e-09
3.735869e-09
4.106808e-09
4.372739e-09
4.556070e-09
4.674634e-09
4.743323e-09
4.776197e-09
4.789537e-09
4.804216e-09
4.841222e-09
4.924426e-09
5.055953e-09
0.000000e+00
-9.451018e-13
-2.215820e-12
-3.977485e-12
-6.508761e-12
-1.018613e-11
-1.549799e-11
-2.300674e-11
-3.319561e-11
-4.609127e-11
-6.055789e-11
-7.326138e-11
-7.818652e-11
-6.942748e-11
-4.665726e-11
-6.572211e-12
6.191888e-11
0.000000e+00
-8.648976e-10
-1.771178e-09
-2.580621e-09
-3.243698e-09
-3.752547e-09
-4.131673e-09
-4.408957e-09
-4.607618e-09
-4.745931e-09
-4.838040e-09
-4.894585e-09
-4.923683e-09
-4.933295e-09
-4.932777e-09
-4.922879e-09
-4.893630e-09
0.000000e+00
-1.614725e-09
-3.547990e-09
-5.162234e-09
-6.458275e-09
-7.458507e-09
-8.211624e-09
-8.765963e-09
-9.162752e-09
-9.436453e-09
-9.616152e-09
-9.726797e-09
-9.789878e-09
-9.823662e-09
-9.841821e-09
-9.848038e-09
-9.839807e-09
0.000000e+00
-2.168256e-09
-5.107626e-09
-7.499163e-09
-9.414054e-09
-1.092451e-08
-1.208788e-08
-1.296196e-08
-1.360003e-08
-1.404981e-08
-1.435373e-08
-1.454924e-08
-1.466853e-08
-1.473780e-08
-1.477595e-08
-1.479333e-08
-1.479576e-08
0.000000e+00
-3.185835e-09
-6.587300e-09
-9.596704e-09
-1.213388e-08
-1.419068e-08
-1.580522e-08
-1.703788e-08
-1.795251e-08
-1.861034e-08
-1.906724e-08
-1.937230e-08
-1.956668e-08
-1.968281e-08
-1.974411e-08
-1.976757e-08
-1.977163e-08
0.000000e+00
2.893588e-09
5.197379e-09
7.613239e-09
1.051285e-08
1.392563e-08
1.778203e-08
2.199162e-08
2.646778e-08
3.113916e-08
3.595104e-08
4.086599e-08
4.586879e-08
5.099191e-08
5.637246e-08
6.208138e-08
6.786337e-08
0.000000e+00
1.555189e-09
3.807407e-09
6.387957e-09
9.509228e-09
1.313501e-08
1.717819e-08
2.154221e-08
2.614264e-08
3.091129e-08
3.579701e-08
4.076575e-08
4.580345e-08
5.092545e-08
5.619737e-08
6.174799e-08
6.743669e-08
0.000000e+00
7.666882e-10
2.717005e-09
5.431331e-09
8.733884e-09
1.253498e-08
1.672667e-08
2.121136e-08
2.590784e-08
3.075170e-08
3.569508e-08
4.070632e-08
4.576873e-08
5.087331e-08
5.602613e-08
6.139392e-08
6.693066e-08
0.000000e+00
4.368306e-10
2.203082e-09
4.930180e-09
8.327015e-09
1.222448e-08
1.649691e-08
2.104594e-08
2.579325e-08
3.067712e-08
3.565124e-08
4.068328e-08
4.575087e-08
5.083162e-08
5.591992e-08
6.114242e-08
6.648804e-08
0.000000e+00
3.532589e-10
2.063101e-09
4.778441e-09
8.201870e-09
1.212988e-08
1.642824e-08
2.099809e-08
2.576226e-08
3.065982e-08
3.564410e-08
4.068065e-08
4.574333e-08
5.080909e-08
5.587007e-08
6.099883e-08
6.617318e-08
0.000000e+00
4.374168e-10
2.203893e-09
4.931276e-09
8.328570e-09
1.222696e-08
1.650112e-08
2.105306e-08
2.580448e-08
3.069306e-08
3.567033e-08
4.069953e-08
4.575271e-08
5.080861e-08
5.585876e-08
6.092960e-08
6.599202e-08
0.000000e+00
7.676165e-10
2.718471e-09
5.433501e-09
8.737092e-09
1.254014e-08
1.673528e-08
2.122555e-08
2.592989e-08
3.078290e-08
3.573333e-08
4.074183e-08
4.577877e-08
5.082277e-08
5.586240e-08
6.089897e-08
6.590744e-08
0.000000e+00
1.556496e-09
3.809848e-09
6.391568e-09
9.514442e-09
1.314288e-08
1.719040e-08
2.156105e-08
2.617061e-08
3.094987e-08
3.584420e-08
4.081133e-08
4.581909e-08
5.084395e-08
5.587022e-08
6.088732e-08
6.587921e-08
0.000000e+00
2.895684e-09
5.200976e-09
7.618276e-09
1.051970e-08
1.393509e-08
1.779543e-08
2.201069e-08
2.649435e-08
3.117413e-08
3.599218e-08
4.090307e-08
4.587157e-08
5.087092e-08
5.588126e-08
6.088652e-08
6.587489e-08


3.343713e-01
3.343713e-01
3.343719e-01
3.343729e-01
3.343738e-01
3.343746e-01
3.343752e-01
3.343756e-01
3.343760e-01
3.343762e-01
3.343764e-01
3.343765e-01
3.343765e-01
3.343764e-01
3.343762e-01
3.343761e-01
3.343724e-01
3.343723e-01
3.343728e-01
3.343736e-01
3.343744e-01
3.343750e-01
3.343755e-01
3.343758e-01
3.343761e-01
3.343763e-01
3.343764e-01
3.343765e-01
3.343765e-01
3.343764e-01
3.343762e-01
3.343761e-01
3.343742e-01
3.343741e-01
3.343744e-01
3.343748e-01
3.343753e-01
3.343756e-01
3.343759e-01
3.343761e-01
3.343763e-01
3.343764e-01
3.343764e-01
3.343765e-01
3.343765e-01
3.343764e-01
3.343763e-01
3.343762e-01
3.343755e-01
3.343754e-01
3.343755e-01
3.343757e-01
3.343759e-01
3.343761e-01
3.343762e-01
3.343763e-01
3.343764e-01
3.343764e-01
3.343765e-01
3.343765e-01
3.343765e-01
3.343765e-01
3.343764e-01
3.343763e-01
3.343755e-01
3.343754e-01
3.343755e-01
3.343757e-01
3.343759e-01
3.343761e-01
3.343762e-01
3.343763e-01
3.343764e-01
3.343764e-01
3.343764e-01
3.343765e-01
3.343765e-01
3.343765e-01
3.343765e-01
3.343765e-01
3.343742e-01
3.343741e-01
3.343744e-01
3.343748e-01
3.343753e-01
3.343756e-01
3.343759e-01
3.343761e-01
3.343762e-01
3.343763e-01
3.343764e-01
3.343765e-01
3.343765e-01
3.343766e-01
3.343766e-01
3.343766e-01
3.343724e-01
3.343723e-01
3.343728e-01
3.343736e-01
3.343744e-01
3.343750e-01
3.343755e-01
3.343758e-01
3.343761e-01
3.343762e-01
3.343764e-01
3.343764e-01
3.343765e-01
3.343766e-01
3.343766e-01
3.343766e-01
3.343713e-01
3.343713e-01
3.343719e-01
3.343729e-01
3.343738e-01
3.343746e-01
3.343752e-01
3.343756e-01
3.343760e-01
3.343762e-01
3.343763e-01
3.343764e-01
3.343765e-01
3.343766e-01
3.343766e-01
3.343766e-01


9.705371e-01
9.747152e-01
9.785801e-01
9.815553e-01
9.843170e-01
9.868635e-01
9.891835e-01
9.912499e-01
9.930409e-01
9.945388e-01
9.957300e-01
9.966025e-01
9.971449e-01
9.973384e-01
9.974780e-01
9.888674e-01
9.888536e-01
9.869390e-01
9.881708e-01
9.897785e-01
9.912774e-01
9.926397e-01
9.938730e-01
9.949900e-01
9.960014e-01
9.969175e-01
9.977488e-01
9.985015e-01
9.991581e-01
9.995882e-01
9.985007e-01
9.837611e-01
9.961271e-01
9.950275e-01
9.947306e-01
9.951482e-01
9.956975e-01
9.962296e-01
9.967236e-01
9.971904e-01
9.976426e-01
9.980835e-01
9.984952e-01
9.988140e-01
9.988805e-01
9.983064e-01
9.962238e-01
9.924780e-01
9.992118e-01
9.984098e-01
9.979143e-01
9.977886e-01
9.978388e-01
9.979230e-01
9.980071e-01
9.980893e-01
9.981699e-01
9.982374e-01
9.982562e-01
9.981559e-01
9.978374e-01
9.972659e-01
9.967812e-01
9.966585e-01
9.992147e-01
9.984139e-01
9.979181e-01
9.977878e-01
9.978263e-01
9.978871e-01
9.979292e-01
9.979434e-01
9.979240e-01
9.978619e-01
9.977463e-01
9.975797e-01
9.974210e-01
9.974525e-01
9.979011e-01
9.986776e-01
9.961327e-01
9.950359e-01
9.947386e-01
9.951482e-01
9.956761e-01
9.961637e-01
9.965763e-01
9.969079e-01
9.971562e-01
9.973234e-01
9.974291e-01
9.975325e-01
9.977497e-01
9.982049e-01
9.988888e-01
9.995959e-01
9.888526e-01
9.869382e-01
9.881691e-01
9.897739e-01
9.912657e-01
9.926129e-01
9.938174e-01
9.948840e-01
9.958133e-01
9.966077e-01
9.972802e-01
9.978675e-01
9.984331e-01
9.990261e-01
9.995806e-01
9.999298e-01
9.705170e-01
9.746837e-01
9.785416e-01
9.815121e-01
9.842781e-01
9.868494e-01
9.892315e-01
9.914188e-01
9.934118e-01
9.952066e-01
9.967819e-01
9.980887e-01
9.990608e-01
9.996606e-01
9.999335e-01
9.999986e-01
1 2 19 18
2 3 20 19
3 4 21 20
4 5 22 21
5 6 23 22
6 7 24 23
7 8 25 24
8 9 26 25
9 10 27 26
10 11 28 27
11 12 29 28
12 13 30 29
13 14 31 30
14 15 32 31
15 16 33 32
16 17 34 33
18 19 36 35
19 20 37 36
20 21 38 37
21 22 39 38
22 23 40 39
23 24 41 40
24 25 42 41
25 26 43 42
26 27 44 43
27 28 45 44
28 29 46 45
29 30 47 46
30 31 48 47
31 32 49 48
32 33 50 49
33 34 51 50
35 36 53 52
36 37 54 53
37 38 55 54
38 39 56 55
39 40 57 56
40 41 58 57
41 42 59 58
42 43 60 59
43 44 61 60
44 45 62 61
45 46 63 62
46 47 64 63
47 48 65 64
48 49 66 65
49 50 67 66
50 51 68 67
52 53 70 69
53 54 71 70
54 55 72 71
55 56 73 72
56 57 74 73
57 58 75 74
58 59 76 75
59 60 77 76
60 61 78 77
61 62 79 78
62 63 80 79
63 64 81 80
64 65 82 81
65 66 83 82
66 67 84 83
67 68 85 84
69 70 87 86
70 71 88 87
71 72 89 88
72 73 90 89
73 74 91 90
74 75 92 91
75 76 93 92
76 77 94 93
77 78 95 94
78 79 96 95
79 80 97 96
80 81 98 97
81 82 99 98
82 83 100 99
83 84 101 100
84 85 102 101
86 87 104 103
87 88 105 104
88 89 106 105
89 90 107 106
90 91 108 107
91 92 109 108
92 93 110 109
93 94 111 110
94 95 112 111
95 96 113 112
96 97 114 113
97 98 115 114
98 99 116 115
99 100 117 116
100 101 118 117
101 102 119 118
103 104 121 120
104 105 122 121
105 106 123 122
106 107 124 123
107 108 125 124
108 109 126 125
109 110 127 126
110 111 128 127
111 112 129 128
112 113 130 129
113 114 131 130
114 115 132 131
115 116 133 132
116 117 134 133
117 118 135 134
118 119 136 135
120 121 138 137
121 122 139 138
122 123 140 139
123 124 141 140
124 125 142 141
125 126 143 142
126 127 144 143
127 128 145 144
128 129 146 145
129 130 147 146
130 131 148 147
131 132 149 148
132 133 150 149
133 134 151 150
134 135 152 151
135 136 153 152
