TITLE = "Solution"
VARIABLES = x, y, u, v, psiu, psiv, t, stress
ZONE T="structure" N=153 E=128 F=FEBLOCK ET=QUADRILATERAL VARLOCATION=([7,8]=cellcentered)
0.000000e+00
1.250000e+01
2.500000e+01
3.750000e+01
5.000000e+01
6.250000e+01
7.500000e+01
8.750000e+01
1.000000e+02
1.125000e+02
1.250000e+02
1.375000e+02
1.500000e+02
1.625000e+02
1.750000e+02
1.875000e+02
2.000000e+02
0.000000e+00
1.250000e+01
2.500000e+01
3.750000e+01
5.000000e+01
6.250000e+01
7.500000e+01
8.750000e+01
1.000000e+02
1.125000e+02
1.250000e+02
1.375000e+02
1.500000e+02
1.625000e+02
1.750000e+02
1.875000e+02
2.000000e+02
0.000000e+00
1.250000e+01
2.500000e+01
3.750000e+01
5.000000e+01
6.250000e+01
7.500000e+01
8.750000e+01
1.000000e+02
1.125000e+02
1.250000e+02
1.375000e+02
1.500000e+02
1.625000e+02
1.750000e+02
1.875000e+02
2.000000e+02
0.000000e+00
1.250000e+01
2.500000e+01
3.750000e+01
5.000000e+01
6.250000e+01
7.500000e+01
8.750000e+01
1.000000e+02
1.125000e+02
1.250000e+02
1.375000e+02
1.500000e+02
1.625000e+02
1.750000e+02
1.875000e+02
2.000000e+02
0.000000e+00
1.250000e+01
2.500000e+01
3.750000e+01
5.000000e+01
6.250000e+01
7.500000e+01
8.750000e+01
1.000000e+02
1.125000e+02
1.250000e+02
1.375000e+02
1.500000e+02
1.625000e+02
1.750000e+02
1.875000e+02
2.000000e+02
0.000000e+00
1.250000e+01
2.500000e+01
3.750000e+01
5.000000e+01
6.250000e+01
7.500000e+01
8.750000e+01
1.000000e+02
1.125000e+02
1.250000e+02
1.375000e+02
1.500000e+02
1.625000e+02
1.750000e+02
1.875000e+02
2.000000e+02
0.000000e+00
1.250000e+01
2.500000e+01
3.750000e+01
5.000000e+01
6.250000e+01
7.500000e+01
8.750000e+01
1.000000e+02
1.125000e+02
1.250000e+02
1.375000e+02
1.500000e+02
1.625000e+02
1.750000e+02
1.875000e+02
2.000000e+02
0.000000e+00
1.250000e+01
2.500000e+01
3.750000e+01
5.000000e+01
6.250000e+01
7.500000e+01
8.750000e+01
1.000000e+02
1.125000e+02
1.250000e+02
1.375000e+02
1.500000e+02
1.625000e+02
1.750000e+02
1.875000e+02
2.000000e+02
0.000000e+00
1.250000e+01
2.500000e+01
3.750000e+01
5.000000e+01
6.250000e+01
7.500000e+01
8.750000e+01
1.000000e+02
1.125000e+02
1.250000e+02
1.375000e+02
1.500000e+02
1.625000e+02
1.750000e+02
1.875000e+02
2.000000e+02
0.000000e+00
0.000000e+00
0.000000e+00
0.000000e+00
0.000000e+00
0.000000e+00
0.000000e+00
0.000000e+00
0.000000e+00
0.000000e+00
0.000000e+00
0.000000e+00
0.000000e+00
0.000000e+00
0.000000e+00
0.000000e+00
0.000000e+00
1.250000e+01
1.250000e+01
1.250000e+01
1.250000e+01
1.250000e+01
1.250000e+01
1.250000e+01
1.250000e+01
1.250000e+01
1.250000e+01
1.250000e+01
1.250000e+01
1.250000e+01
1.250000e+01
1.250000e+01
1.250000e+01
1.250000e+01
2.500000e+01
2.500000e+01
2.500000e+01
2.500000e+01
2.500000e+01
2.500000e+01
2.500000e+01
2.500000e+01
2.500000e+01
2.500000e+01
2.500000e+01
2.500000e+01
2.500000e+01
2.500000e+01
2.500000e+01
2.500000e+01
2.500000e+01
3.750000e+01
3.750000e+01
3.750000e+01
3.750000e+01
3.750000e+01
3.750000e+01
3.750000e+01
3.750000e+01
3.750000e+01
3.750000e+01
3.750000e+01
3.750000e+01
3.750000e+01
3.750000e+01
3.750000e+01
3.750000e+01
3.750000e+01
5.000000e+01
5.000000e+01
5.000000e+01
5.000000e+01
5.000000e+01
5.000000e+01
5.000000e+01
5.000000e+01
5.000000e+01
5.000000e+01
5.000000e+01
5.000000e+01
5.000000e+01
5.000000e+01
5.000000e+01
5.000000e+01
5.000000e+01
6.250000e+01
6.250000e+01
6.250000e+01
6.250000e+01
6.250000e+01
6.250000e+01
6.250000e+01
6.250000e+01
6.250000e+01
6.250000e+01
6.250000e+01
6.250000e+01
6.250000e+01
6.250000e+01
6.250000e+01
6.250000e+01
6.250000e+01
7.500000e+01
7.500000e+01
7.500000e+01
7.500000e+01
7.500000e+01
7.500000e+01
7.500000e+01
7.500000e+01
7.500000e+01
7.500000e+01
7.500000e+01
7.500000e+01
7.500000e+01
7.500000e+01
7.500000e+01
7.500000e+01
7.500000e+01
8.750000e+01
8.750000e+01
8.750000e+01
8.750000e+01
8.750000e+01
8.750000e+01
8.750000e+01
8.750000e+01
8.750000e+01
8.750000e+01
8.750000e+01
8.750000e+01
8.750000e+01
8.750000e+01
8.750000e+01
8.750000e+01
8.750000e+01
1.000000e+02
1.000000e+02
1.000000e+02
1.000000e+02
1.000000e+02
1.000000e+02
1.000000e+02
1.000000e+02
1.000000e+02
1.000000e+02
1.000000e+02
1.000000e+02
1.000000e+02
1.000000e+02
1.000000e+02
1.000000e+02
1.000000e+02
0.000000e+00
-9.939789e-01
-1.679632e+00
-2.431064e+00
-3.115365e+00
-3.752562e+00
-4.456909e+00
-5.087833e+00
-5.763302e+00
-6.405245e+00
-7.056590e+00
-7.723022e+00
-8.376753e+00
-9.148033e+00
-1.007749e+01
-1.083335e+01
-1.128353e+01
0.000000e+00
-4.451028e-01
-9.073813e-01
-1.419073e+00
-1.930287e+00
-2.411785e+00
-2.925366e+00
-3.423376e+00
-3.919856e+00
-4.421620e+00
-4.914891e+00
-5.417180e+00
-5.902074e+00
-6.422437e+00
-6.897390e+00
-7.023268e+00
-7.202114e+00
0.000000e+00
-1.463285e-01
-3.497207e-01
-6.401027e-01
-9.780892e-01
-1.303559e+00
-1.657068e+00
-2.013237e+00
-2.357576e+00
-2.718786e+00
-3.058002e+00
-3.391986e+00
-3.687411e+00
-3.927266e+00
-4.036005e+00
-4.033830e+00
-4.182360e+00
0.000000e+00
-7.892106e-02
-1.622803e-01
-3.095381e-01
-4.545624e-01
-6.285834e-01
-8.130002e-01
-9.792987e-01
-1.166065e+00
-1.328149e+00
-1.489227e+00
-1.628079e+00
-1.721260e+00
-1.729257e+00
-1.655916e+00
-1.635431e+00
-1.752755e+00
0.000000e+00
-3.243762e-03
-7.072904e-03
-1.105405e-02
-1.527835e-02
-1.842650e-02
-1.902656e-02
-1.596909e-02
-7.004168e-03
9.835360e-03
3.430919e-02
7.888463e-02
1.610756e-01
2.758496e-01
3.954136e-01
4.359294e-01
3.377270e-01
0.000000e+00
7.327135e-02
1.508300e-01
2.908368e-01
4.292479e-01
5.968088e-01
7.755175e-01
9.462650e-01
1.151787e+00
1.346767e+00
1.563147e+00
1.783555e+00
2.009633e+00
2.216148e+00
2.351778e+00
2.384755e+00
2.319221e+00
0.000000e+00
1.440705e-01
3.445908e-01
6.312586e-01
9.661382e-01
1.291174e+00
1.643333e+00
1.999743e+00
2.361826e+00
2.765984e+00
3.144547e+00
3.511562e+00
3.844854e+00
4.119683e+00
4.295839e+00
4.350559e+00
4.328007e+00
0.000000e+00
4.458479e-01
9.081287e-01
1.419612e+00
1.930131e+00
2.410019e+00
2.920663e+00
3.415561e+00
3.903914e+00
4.396913e+00
4.875311e+00
5.350552e+00
5.779500e+00
6.126746e+00
6.343432e+00
6.439030e+00
6.456668e+00
0.000000e+00
9.962031e-01
1.684537e+00
2.439736e+00
3.126345e+00
3.764686e+00
4.468704e+00
5.097320e+00
5.746206e+00
6.331294e+00
6.905440e+00
7.506232e+00
8.037371e+00
8.448407e+00
8.649871e+00
8.702803e+00
8.703359e+00
0.000000e+00
-6.181178e-01
-1.361088e+00
-2.361542e+00
-3.535253e+00
-4.878989e+00
-6.409434e+00
-8.095387e+00
-9.955554e+00
-1.197856e+01
-1.416344e+01
-1.651351e+01
-1.902711e+01
-2.175830e+01
-2.472206e+01
-2.808181e+01
-3.309764e+01
0.000000e+00
-4.149196e-01
-1.192519e+00
-2.175664e+00
-3.365932e+00
-4.704501e+00
-6.232287e+00
-7.926370e+00
-9.779583e+00
-1.181081e+01
-1.399117e+01
-1.634600e+01
-1.885393e+01
-2.156576e+01
-2.458213e+01
-2.799792e+01
-3.204835e+01
0.000000e+00
-3.891747e-01
-1.090908e+00
-2.072258e+00
-3.246396e+00
-4.578974e+00
-6.112003e+00
-7.796949e+00
-9.660460e+00
-1.168912e+01
-1.388064e+01
-1.624665e+01
-1.876501e+01
-2.150355e+01
-2.457232e+01
-2.784580e+01
-3.087817e+01
0.000000e+00
-4.480873e-01
-1.087224e+00
-2.046118e+00
-3.183434e+00
-4.509909e+00
-6.049341e+00
-7.720939e+00
-9.602695e+00
-1.163095e+01
-1.384365e+01
-1.622952e+01
-1.877367e+01
-2.151370e+01
-2.450299e+01
-2.753593e+01
-3.016076e+01
0.000000e+00
-4.553015e-01
-1.109389e+00
-2.030260e+00
-3.169789e+00
-4.499120e+00
-6.028410e+00
-7.718466e+00
-9.593424e+00
-1.164343e+01
-1.386970e+01
-1.626349e+01
-1.881509e+01
-2.151481e+01
-2.435227e+01
-2.716966e+01
-2.955659e+01
0.000000e+00
-4.468155e-01
-1.086829e+00
-2.048107e+00
-3.190373e+00
-4.526872e+00
-6.076431e+00
-7.757897e+00
-9.655554e+00
-1.170956e+01
-1.393926e+01
-1.631566e+01
-1.884651e+01
-2.150471e+01
-2.421694e+01
-2.685016e+01
-2.911900e+01
0.000000e+00
-3.874737e-01
-1.090759e+00
-2.076737e+00
-3.259806e+00
-4.607666e+00
-6.157720e+00
-7.867159e+00
-9.761328e+00
-1.182509e+01
-1.402588e+01
-1.638276e+01
-1.888613e+01
-2.150473e+01
-2.413423e+01
-2.664307e+01
-2.888599e+01
0.000000e+00
-4.133455e-01
-1.192437e+00
-2.180897e+00
-3.381459e+00
-4.735065e+00
-6.283570e+00
-8.008308e+00
-9.899971e+00
-1.196188e+01
-1.414147e+01
-1.648138e+01
-1.896329e+01
-2.154636e+01
-2.411369e+01
-2.655540e+01
-2.882563e+01
0.000000e+00
-6.171106e-01
-1.361613e+00
-2.367473e+00
-3.551192e+00
-4.909581e+00
-6.461438e+00
-8.176909e+00
-1.007201e+01
-1.211773e+01
-1.429675e+01
-1.662980e+01
-1.908691e+01
-2.162822e+01
-2.413839e+01
-2.654045e+01
-2.882450e+01


0.000000e+00
1.541716e-05
2.511195e-05
3.749428e-05
5.358259e-05
6.720583e-05
8.304780e-05
9.715008e-05
1.116796e-04
1.257011e-04
1.408223e-04
1.551271e-04
1.718163e-04
1.874879e-04
1.972965e-04
2.029573e-04
2.098787e-04
0.000000e+00
1.146295e-05
1.974596e-05
2.838756e-05
4.100919e-05
5.169491e-05
6.182051e-05
7.296526e-05
8.315142e-05
9.454778e-05
1.052317e-04
1.155071e-04
1.264802e-04
1.357294e-04
1.371169e-04
1.408475e-04
1.466749e-04
0.000000e+00
9.538106e-06
1.501867e-05
2.017467e-05
2.886643e-05
3.551498e-05
4.129194e-05
4.866652e-05
5.466660e-05
6.199231e-05
6.843001e-05
7.397525e-05
7.870692e-05
8.080416e-05
7.998586e-05
8.236840e-05
8.661369e-05
0.000000e+00
5.178224e-06
6.844704e-06
9.603980e-06
1.306576e-05
1.359578e-05
1.595411e-05
1.757758e-05
2.106185e-05
2.458262e-05
2.817976e-05
2.909990e-05
2.846467e-05
2.698004e-05
2.679179e-05
2.986723e-05
3.553918e-05
0.000000e+00
-1.718037e-07
-4.278131e-07
-8.419191e-07
-1.692912e-06
-2.815561e-06
-4.873445e-06
-7.015357e-06
-7.530566e-06
-7.583134e-06
-8.655622e-06
-1.190296e-05
-1.465826e-05
-1.599726e-05
-1.566052e-05
-1.347707e-05
-9.490808e-06
0.000000e+00
-5.436994e-06
-7.423003e-06
-1.071148e-05
-1.463054e-05
-1.611231e-05
-2.053733e-05
-2.448303e-05
-3.019653e-05
-3.326809e-05
-3.733134e-05
-4.216635e-05
-4.715832e-05
-4.880728e-05
-4.935381e-05
-4.984912e-05
-4.815201e-05
0.000000e+00
-9.536510e-06
-1.508372e-05
-2.034099e-05
-2.896849e-05
-3.531309e-05
-4.080318e-05
-4.886577e-05
-5.604156e-05
-6.350735e-05
-6.873710e-05
-7.372916e-05
-7.789778e-05
-8.130747e-05
-8.322558e-05
-8.514187e-05
-8.589162e-05
0.000000e+00
-1.139305e-05
-1.965926e-05
-2.828549e-05
-4.079075e-05
-5.163413e-05
-6.158349e-05
-7.280584e-05
-8.320502e-05
-9.455206e-05
-1.052056e-04
-1.133769e-04
-1.182084e-04
-1.231852e-04
-1.267284e-04
-1.280030e-04
-1.280999e-04
0.000000e+00
-1.542788e-05
-2.505325e-05
-3.734377e-05
-5.337676e-05
-6.703073e-05
-8.272841e-05
-9.587474e-05
-1.097978e-04
-1.234592e-04
-1.411158e-04
-1.567383e-04
-1.663012e-04
-1.714629e-04
-1.736816e-04
-1.738865e-04
-1.737005e-04
0.000000e+00
1.260431e-05
2.000909e-05
3.245803e-05
4.879297e-05
6.692376e-05
9.134216e-05
1.201745e-04
1.532716e-04
1.899743e-04
2.300230e-04
2.740118e-04
3.240779e-04
3.781088e-04
4.395343e-04
5.102935e-04
5.835523e-04
0.000000e+00
7.678044e-06
1.612008e-05
2.635782e-05
4.231998e-05
6.097509e-05
8.489521e-05
1.142814e-04
1.470709e-04
1.838024e-04
2.237250e-04
2.677874e-04
3.174848e-04
3.732625e-04
4.343516e-04
5.029177e-04
5.731855e-04
0.000000e+00
4.326290e-06
1.231114e-05
2.172726e-05
3.651324e-05
5.573031e-05
7.951805e-05
1.097870e-04
1.428951e-04
1.793004e-04
2.191015e-04
2.632991e-04
3.137016e-04
3.709377e-04
4.302576e-04
4.954407e-04
5.634721e-04
0.000000e+00
3.200939e-06
1.060644e-05
2.007869e-05
3.450591e-05
5.207812e-05
7.656075e-05
1.088759e-04
1.433638e-04
1.777878e-04
2.169921e-04
2.617551e-04
3.130041e-04
3.695477e-04
4.275427e-04
4.876032e-04
5.492926e-04
0.000000e+00
2.814150e-06
1.027471e-05
2.003277e-05
3.420359e-05
5.076945e-05
7.548447e-05
1.098907e-04
1.445856e-04
1.775229e-04
2.152180e-04
2.617949e-04
3.133460e-04
3.696455e-04
4.263926e-04
4.812121e-04
5.331993e-04
0.000000e+00
3.340825e-06
1.079281e-05
2.044647e-05
3.483011e-05
5.187939e-05
7.727974e-05
1.107433e-04
1.451288e-04
1.773258e-04
2.156021e-04
2.634273e-04
3.157408e-04
3.698924e-04
4.262754e-04
4.788928e-04
5.222471e-04
0.000000e+00
4.476186e-06
1.253480e-05
2.206310e-05
3.678158e-05
5.579017e-05
8.045834e-05
1.116794e-04
1.444710e-04
1.784642e-04
2.179756e-04
2.666936e-04
3.192237e-04
3.718966e-04
4.253275e-04
4.761758e-04
5.188382e-04
0.000000e+00
7.799285e-06
1.635145e-05
2.665055e-05
4.256544e-05
6.136446e-05
8.582857e-05
1.158557e-04
1.479103e-04
1.828463e-04
2.226645e-04
2.703606e-04
3.222309e-04
3.740628e-04
4.254242e-04
4.741737e-04
5.193215e-04
0.000000e+00
1.271424e-05
2.024037e-05
3.274092e-05
4.911651e-05
6.743816e-05
9.234040e-05
1.215392e-04
1.540473e-04
1.891648e-04
2.298101e-04
2.746317e-04
3.244190e-04
3.752708e-04
4.257127e-04
4.736898e-04
5.195916e-04


5.592571e+00
6.081936e+00
6.814273e+00
5.846487e+00
5.387431e+00
5.923912e+00
5.975758e+00
6.167677e+00
5.852096e+00
5.871554e+00
6.248883e+00
7.124964e+00
8.823245e+00
9.801310e+00
9.120743e+00
7.971634e+00
8.037312e+00
8.419527e+00
8.625265e+00
8.324709e+00
8.047607e+00
8.235081e+00
8.427885e+00
8.317019e+00
8.322545e+00
8.240292e+00
8.385448e+00
8.813819e+00
9.484641e+00
9.813388e+00
8.367454e+00
6.449175e+00
9.821972e+00
9.806591e+00
9.978994e+00
9.816934e+00
9.814529e+00
9.903241e+00
9.807877e+00
9.905858e+00
9.822493e+00
9.857565e+00
9.872072e+00
9.853321e+00
9.871524e+00
9.371919e+00
7.965572e+00
6.160196e+00
9.989634e+00
9.989443e+00
9.989348e+00
9.988309e+00
9.986866e+00
9.984085e+00
9.981067e+00
9.981189e+00
9.982876e+00
9.982222e+00
9.973929e+00
9.459038e+00
8.807397e+00
8.349668e+00
7.951268e+00
7.861363e+00
9.989582e+00
9.989323e+00
9.989126e+00
9.987742e+00
9.985364e+00
9.980312e+00
9.916203e+00
9.954131e+00
9.971544e+00
9.891297e+00
9.332629e+00
8.537722e+00
7.649955e+00
7.696584e+00
8.606198e+00
9.117457e+00
9.822170e+00
9.806087e+00
9.977923e+00
9.813999e+00
9.806233e+00
9.653330e+00
9.349093e+00
9.518923e+00
9.370395e+00
8.812895e+00
8.274019e+00
7.836003e+00
8.098768e+00
8.683324e+00
9.409111e+00
9.964263e+00
8.039694e+00
8.420035e+00
8.623149e+00
8.318649e+00
7.967761e+00
7.822985e+00
7.662390e+00
7.665674e+00
7.702603e+00
7.262262e+00
7.437027e+00
8.435925e+00
9.222303e+00
9.794376e+00
9.979052e+00
9.987223e+00
5.599233e+00
6.083871e+00
6.812557e+00
5.838610e+00
5.364094e+00
5.592856e+00
5.478781e+00
5.921503e+00
5.929092e+00
6.350096e+00
7.798097e+00
9.080924e+00
9.949167e+00
9.983606e+00
9.988562e+00
9.990305e+00


-8.121284e-01
-1.759435e-01
-3.938603e-01
-2.542387e-01
-1.032061e-01
-2.992728e-01
-1.265989e-01
-2.098380e-01
-1.596885e-01
-1.620723e-01
-2.107067e-01
-1.514314e-01
-4.657146e-01
-6.790660e-01
3.172975e-01
-8.469772e-01
6.118089e-01
4.780894e-01
2.970781e-01
2.262937e-01
2.876183e-01
1.686222e-01
1.767748e-01
1.711600e-01
1.127731e-01
1.466268e-01
1.305453e-01
2.424382e-01
3.020322e-01
5.122099e-01
6.960387e-01
-9.376060e-01
7.242945e-01
4.713412e-01
5.962842e-02
-1.657196e-02
-3.886273e-02
-1.795686e-01
-7.955615e-02
-1.340188e-01
-7.252726e-02
-1.699603e-02
3.609002e-02
1.884621e-01
2.802201e-01
1.495473e-01
-2.343452e-02
-1.699349e-01
7.294241e-01
5.563798e-01
1.946496e-01
6.554304e-02
-2.363504e-02
-9.978776e-02
-1.721206e-02
-5.872544e-02
1.583794e-02
2.069349e-02
6.119036e-02
1.177628e-01
5.799711e-02
-2.644426e-01
-3.827076e-01
-7.629189e-02
7.322908e-01
5.603065e-01
2.024273e-01
7.307009e-02
-2.067377e-02
-1.065250e-01
-3.768967e-02
-9.879628e-02
-4.776527e-02
-3.729342e-02
2.017527e-02
1.415985e-02
-3.714043e-02
-1.323470e-01
-1.035618e-01
3.122662e-01
7.309767e-01
4.815396e-01
7.750744e-02
6.395247e-04
-2.812850e-02
-1.598527e-01
-8.442747e-02
-1.950063e-01
-1.802256e-01
-1.045793e-01
-7.972558e-02
-9.908581e-02
-1.061454e-01
4.750748e-02
3.339276e-01
7.255290e-01
6.157306e-01
4.839865e-01
3.045681e-01
2.317129e-01
2.852748e-01
1.626202e-01
1.525042e-01
9.644934e-02
-5.419058e-02
-3.937566e-02
-9.782646e-02
-6.054698e-02
6.151599e-02
3.680060e-01
7.131529e-01
9.479778e-01
-8.177515e-01
-1.811238e-01
-4.015308e-01
-2.580185e-01
-1.031259e-01
-2.948773e-01
-1.208266e-01
-1.530661e-01
-5.666756e-02
-2.324779e-02
-9.278425e-02
9.596014e-02
3.903388e-01
7.723420e-01
9.528236e-01
9.987339e-01
1 2 19 18
2 3 20 19
3 4 21 20
4 5 22 21
5 6 23 22
6 7 24 23
7 8 25 24
8 9 26 25
9 10 27 26
10 11 28 27
11 12 29 28
12 13 30 29
13 14 31 30
14 15 32 31
15 16 33 32
16 17 34 33
18 19 36 35
19 20 37 36
20 21 38 37
21 22 39 38
22 23 40 39
23 24 41 40
24 25 42 41
25 26 43 42
26 27 44 43
27 28 45 44
28 29 46 45
29 30 47 46
30 31 48 47
31 32 49 48
32 33 50 49
33 34 51 50
35 36 53 52
36 37 54 53
37 38 55 54
38 39 56 55
39 40 57 56
40 41 58 57
41 42 59 58
42 43 60 59
43 44 61 60
44 45 62 61
45 46 63 62
46 47 64 63
47 48 65 64
48 49 66 65
49 50 67 66
50 51 68 67
52 53 70 69
53 54 71 70
54 55 72 71
55 56 73 72
56 57 74 73
57 58 75 74
58 59 76 75
59 60 77 76
60 61 78 77
61 62 79 78
62 63 80 79
63 64 81 80
64 65 82 81
65 66 83 82
66 67 84 83
67 68 85 84
69 70 87 86
70 71 88 87
71 72 89 88
72 73 90 89
73 74 91 90
74 75 92 91
75 76 93 92
76 77 94 93
77 78 95 94
78 79 96 95
79 80 97 96
80 81 98 97
81 82 99 98
82 83 100 99
83 84 101 100
84 85 102 101
86 87 104 103
87 88 105 104
88 89 106 105
89 90 107 106
90 91 108 107
91 92 109 108
92 93 110 109
93 94 111 110
94 95 112 111
95 96 113 112
96 97 114 113
97 98 115 114
98 99 116 115
99 100 117 116
100 101 118 117
101 102 119 118
103 104 121 120
104 105 122 121
105 106 123 122
106 107 124 123
107 108 125 124
108 109 126 125
109 110 127 126
110 111 128 127
111 112 129 128
112 113 130 129
113 114 131 130
114 115 132 131
115 116 133 132
116 117 134 133
117 118 135 134
118 119 136 135
120 121 138 137
121 122 139 138
122 123 140 139
123 124 141 140
124 125 142 141
125 126 143 142
126 127 144 143
127 128 145 144
128 129 146 145
129 130 147 146
130 131 148 147
131 132 149 148
132 133 150 149
133 134 151 150
134 135 152 151
135 136 153 152
