TITLE = "Solution"
VARIABLES = x, y, u, v, psiu, psiv, t, stress
ZONE T="structure" N=153 E=128 F=FEBLOCK ET=QUADRILATERAL VARLOCATION=([7,8]=cellcentered)
0.000000e+00
1.250000e+01
2.500000e+01
3.750000e+01
5.000000e+01
6.250000e+01
7.500000e+01
8.750000e+01
1.000000e+02
1.125000e+02
1.250000e+02
1.375000e+02
1.500000e+02
1.625000e+02
1.750000e+02
1.875000e+02
2.000000e+02
0.000000e+00
1.250000e+01
2.500000e+01
3.750000e+01
5.000000e+01
6.250000e+01
7.500000e+01
8.750000e+01
1.000000e+02
1.125000e+02
1.250000e+02
1.375000e+02
1.500000e+02
1.625000e+02
1.750000e+02
1.875000e+02
2.000000e+02
0.000000e+00
1.250000e+01
2.500000e+01
3.750000e+01
5.000000e+01
6.250000e+01
7.500000e+01
8.750000e+01
1.000000e+02
1.125000e+02
1.250000e+02
1.375000e+02
1.500000e+02
1.625000e+02
1.750000e+02
1.875000e+02
2.000000e+02
0.000000e+00
1.250000e+01
2.500000e+01
3.750000e+01
5.000000e+01
6.250000e+01
7.500000e+01
8.750000e+01
1.000000e+02
1.125000e+02
1.250000e+02
1.375000e+02
1.500000e+02
1.625000e+02
1.750000e+02
1.875000e+02
2.000000e+02
0.000000e+00
1.250000e+01
2.500000e+01
3.750000e+01
5.000000e+01
6.250000e+01
7.500000e+01
8.750000e+01
1.000000e+02
1.125000e+02
1.250000e+02
1.375000e+02
1.500000e+02
1.625000e+02
1.750000e+02
1.875000e+02
2.000000e+02
0.000000e+00
1.250000e+01
2.500000e+01
3.750000e+01
5.000000e+01
6.250000e+01
7.500000e+01
8.750000e+01
1.000000e+02
1.125000e+02
1.250000e+02
1.375000e+02
1.500000e+02
1.625000e+02
1.750000e+02
1.875000e+02
2.000000e+02
0.000000e+00
1.250000e+01
2.500000e+01
3.750000e+01
5.000000e+01
6.250000e+01
7.500000e+01
8.750000e+01
1.000000e+02
1.125000e+02
1.250000e+02
1.375000e+02
1.500000e+02
1.625000e+02
1.750000e+02
1.875000e+02
2.000000e+02
0.000000e+00
1.250000e+01
2.500000e+01
3.750000e+01
5.000000e+01
6.250000e+01
7.500000e+01
8.750000e+01
1.000000e+02
1.125000e+02
1.250000e+02
1.375000e+02
1.500000e+02
1.625000e+02
1.750000e+02
1.875000e+02
2.000000e+02
0.000000e+00
1.250000e+01
2.500000e+01
3.750000e+01
5.000000e+01
6.250000e+01
7.500000e+01
8.750000e+01
1.000000e+02
1.125000e+02
1.250000e+02
1.375000e+02
1.500000e+02
1.625000e+02
1.750000e+02
1.875000e+02
2.000000e+02
0.000000e+00
0.000000e+00
0.000000e+00
0.000000e+00
0.000000e+00
0.000000e+00
0.000000e+00
0.000000e+00
0.000000e+00
0.000000e+00
0.000000e+00
0.000000e+00
0.000000e+00
0.000000e+00
0.000000e+00
0.000000e+00
0.000000e+00
1.250000e+01
1.250000e+01
1.250000e+01
1.250000e+01
1.250000e+01
1.250000e+01
1.250000e+01
1.250000e+01
1.250000e+01
1.250000e+01
1.250000e+01
1.250000e+01
1.250000e+01
1.250000e+01
1.250000e+01
1.250000e+01
1.250000e+01
2.500000e+01
2.500000e+01
2.500000e+01
2.500000e+01
2.500000e+01
2.500000e+01
2.500000e+01
2.500000e+01
2.500000e+01
2.500000e+01
2.500000e+01
2.500000e+01
2.500000e+01
2.500000e+01
2.500000e+01
2.500000e+01
2.500000e+01
3.750000e+01
3.750000e+01
3.750000e+01
3.750000e+01
3.750000e+01
3.750000e+01
3.750000e+01
3.750000e+01
3.750000e+01
3.750000e+01
3.750000e+01
3.750000e+01
3.750000e+01
3.750000e+01
3.750000e+01
3.750000e+01
3.750000e+01
5.000000e+01
5.000000e+01
5.000000e+01
5.000000e+01
5.000000e+01
5.000000e+01
5.000000e+01
5.000000e+01
5.000000e+01
5.000000e+01
5.000000e+01
5.000000e+01
5.000000e+01
5.000000e+01
5.000000e+01
5.000000e+01
5.000000e+01
6.250000e+01
6.250000e+01
6.250000e+01
6.250000e+01
6.250000e+01
6.250000e+01
6.250000e+01
6.250000e+01
6.250000e+01
6.250000e+01
6.250000e+01
6.250000e+01
6.250000e+01
6.250000e+01
6.250000e+01
6.250000e+01
6.250000e+01
7.500000e+01
7.500000e+01
7.500000e+01
7.500000e+01
7.500000e+01
7.500000e+01
7.500000e+01
7.500000e+01
7.500000e+01
7.500000e+01
7.500000e+01
7.500000e+01
7.500000e+01
7.500000e+01
7.500000e+01
7.500000e+01
7.500000e+01
8.750000e+01
8.750000e+01
8.750000e+01
8.750000e+01
8.750000e+01
8.750000e+01
8.750000e+01
8.750000e+01
8.750000e+01
8.750000e+01
8.750000e+01
8.750000e+01
8.750000e+01
8.750000e+01
8.750000e+01
8.750000e+01
8.750000e+01
1.000000e+02
1.000000e+02
1.000000e+02
1.000000e+02
1.000000e+02
1.000000e+02
1.000000e+02
1.000000e+02
1.000000e+02
1.000000e+02
1.000000e+02
1.000000e+02
1.000000e+02
1.000000e+02
1.000000e+02
1.000000e+02
1.000000e+02
0.000000e+00
-8.231601e-02
-1.515699e-01
-2.152924e-01
-2.746359e-01
-3.294751e-01
-3.796924e-01
-4.252489e-01
-4.662108e-01
-5.027668e-01
-5.352793e-01
-5.643838e-01
-5.911734e-01
-6.175366e-01
-6.467305e-01
-6.825842e-01
-7.094886e-01
0.000000e+00
-4.915767e-02
-1.021155e-01
-1.510187e-01
-1.960735e-01
-2.374513e-01
-2.752379e-01
-3.094839e-01
-3.402511e-01
-3.676341e-01
-3.917722e-01
-4.128391e-01
-4.309694e-01
-4.459763e-01
-4.565615e-01
-4.588816e-01
-4.671998e-01
0.000000e+00
-3.074181e-02
-6.321284e-02
-9.560750e-02
-1.258469e-01
-1.536109e-01
-1.788769e-01
-2.016736e-01
-2.220066e-01
-2.398420e-01
-2.550837e-01
-2.675189e-01
-2.767043e-01
-2.818318e-01
-2.819741e-01
-2.799258e-01
-2.884097e-01
0.000000e+00
-1.483790e-02
-3.054580e-02
-4.635289e-02
-6.146733e-02
-7.538867e-02
-8.800698e-02
-9.928553e-02
-1.091598e-01
-1.175012e-01
-1.240966e-01
-1.286347e-01
-1.307440e-01
-1.302512e-01
-1.282266e-01
-1.287803e-01
-1.350974e-01
0.000000e+00
-1.366848e-05
-3.107274e-05
-4.841985e-05
-5.762627e-05
-4.066607e-05
3.823990e-05
2.432930e-04
6.798240e-04
1.504729e-03
2.922702e-03
5.139374e-03
8.210307e-03
1.168062e-02
1.407780e-02
1.342033e-02
9.237845e-03
0.000000e+00
1.481687e-02
3.049697e-02
4.627480e-02
6.137019e-02
7.530966e-02
8.803763e-02
9.961638e-02
1.101463e-01
1.197495e-01
1.285515e-01
1.366174e-01
1.438072e-01
1.495725e-01
1.529640e-01
1.532330e-01
1.511101e-01
0.000000e+00
3.073836e-02
6.320232e-02
9.558657e-02
1.258142e-01
1.535702e-01
1.788432e-01
2.016846e-01
2.221418e-01
2.402510e-01
2.560281e-01
2.694346e-01
2.803162e-01
2.883613e-01
2.931902e-01
2.947581e-01
2.942631e-01
0.000000e+00
4.917783e-02
1.021593e-01
1.510886e-01
1.961672e-01
2.375517e-01
2.752942e-01
3.093809e-01
3.397599e-01
3.663435e-01
3.890055e-01
4.075892e-01
4.219460e-01
4.320284e-01
4.380428e-01
4.406076e-01
4.410787e-01
0.000000e+00
8.234973e-02
1.516588e-01
2.154590e-01
2.749020e-01
3.298495e-01
3.801390e-01
4.256244e-01
4.661536e-01
5.015159e-01
5.314048e-01
5.554216e-01
5.731721e-01
5.845165e-01
5.900028e-01
5.913570e-01
5.913309e-01
0.000000e+00
-4.982815e-02
-9.781844e-02
-1.600027e-01
-2.363210e-01
-3.266305e-01
-4.299423e-01
-5.451001e-01
-6.708794e-01
-8.060719e-01
-9.495615e-01
-1.100460e+00
-1.258403e+00
-1.424234e+00
-1.602256e+00
-1.805945e+00
-2.098610e+00
0.000000e+00
-3.067512e-02
-8.073687e-02
-1.436922e-01
-2.212578e-01
-3.127998e-01
-4.173632e-01
-5.337634e-01
-6.607618e-01
-7.971282e-01
-9.417156e-01
-1.093595e+00
-1.252346e+00
-1.418790e+00
-1.596743e+00
-1.799196e+00
-2.047223e+00
0.000000e+00
-2.314710e-02
-6.889507e-02
-1.320828e-01
-2.103817e-01
-3.028660e-01
-4.083905e-01
-5.257592e-01
-6.537420e-01
-7.911262e-01
-9.367869e-01
-1.089827e+00
-1.249866e+00
-1.417590e+00
-1.595695e+00
-1.787527e+00
-1.973180e+00
0.000000e+00
-1.994651e-02
-6.300739e-02
-1.252684e-01
-2.038504e-01
-2.969039e-01
-4.030863e-01
-5.211561e-01
-6.499062e-01
-7.881570e-01
-9.348078e-01
-1.088944e+00
-1.250005e+00
-1.417914e+00
-1.592456e+00
-1.768723e+00
-1.931105e+00
0.000000e+00
-1.902449e-02
-6.122550e-02
-1.230945e-01
-2.016979e-01
-2.949830e-01
-4.014707e-01
-5.199206e-01
-6.491486e-01
-7.879943e-01
-9.353325e-01
-1.090104e+00
-1.251308e+00
-1.417756e+00
-1.586957e+00
-1.753124e+00
-1.906204e+00
0.000000e+00
-1.993467e-02
-6.299896e-02
-1.252834e-01
-2.039240e-01
-2.970979e-01
-4.035013e-01
-5.219422e-01
-6.512615e-01
-7.902932e-01
-9.378392e-01
-1.092618e+00
-1.253132e+00
-1.417339e+00
-1.582084e+00
-1.742553e+00
-1.892366e+00
0.000000e+00
-2.312778e-02
-6.888111e-02
-1.321078e-01
-2.105058e-01
-3.031942e-01
-4.090942e-01
-5.270940e-01
-6.560464e-01
-7.947650e-01
-9.419714e-01
-1.096187e+00
-1.255553e+00
-1.417608e+00
-1.579160e+00
-1.736549e+00
-1.886263e+00
0.000000e+00
-3.065701e-02
-8.072471e-02
-1.437255e-01
-2.214068e-01
-3.131858e-01
-4.181823e-01
-5.353062e-01
-6.634089e-01
-8.012825e-01
-9.475960e-01
-1.100765e+00
-1.258773e+00
-1.419025e+00
-1.578427e+00
-1.734066e+00
-1.884830e+00
0.000000e+00
-4.982067e-02
-9.781949e-02
-1.600541e-01
-2.364937e-01
-3.270430e-01
-4.307805e-01
-5.466294e-01
-6.734290e-01
-8.099503e-01
-9.548301e-01
-1.106449e+00
-1.262777e+00
-1.421275e+00
-1.579050e+00
-1.733612e+00
-1.884852e+00


0.000000e+00
9.016061e-10
1.864444e-09
2.716986e-09
3.436612e-09
4.020945e-09
4.480773e-09
4.833287e-09
5.096757e-09
5.288744e-09
5.425363e-09
5.521125e-09
5.589298e-09
5.642203e-09
5.691433e-09
5.752250e-09
5.825300e-09
0.000000e+00
6.134129e-10
1.445215e-09
2.122544e-09
2.665427e-09
3.094152e-09
3.424901e-09
3.674119e-09
3.857025e-09
3.987177e-09
4.076341e-09
4.134263e-09
4.168303e-09
4.185046e-09
4.202024e-09
4.251755e-09
4.326970e-09
0.000000e+00
4.566516e-10
1.003672e-09
1.460578e-09
1.827500e-09
2.110640e-09
2.323654e-09
2.480136e-09
2.591674e-09
2.667849e-09
2.716519e-09
2.744118e-09
2.756395e-09
2.761148e-09
2.773120e-09
2.812139e-09
2.873046e-09
0.000000e+00
2.443821e-10
5.005276e-10
7.290707e-10
9.159410e-10
1.058724e-09
1.164118e-09
1.239746e-09
1.291928e-09
1.325701e-09
1.345280e-09
1.354659e-09
1.358468e-09
1.362654e-09
1.373201e-09
1.396913e-09
1.434389e-09
0.000000e+00
-2.665443e-13
-6.260034e-13
-1.125557e-12
-1.844803e-12
-2.891027e-12
-4.403784e-12
-6.543436e-12
-9.448095e-12
-1.312571e-11
-1.725276e-11
-2.087917e-11
-2.229012e-11
-1.980132e-11
-1.331487e-11
-1.885792e-12
1.764035e-11
0.000000e+00
-2.448398e-10
-5.015863e-10
-7.309684e-10
-9.190126e-10
-1.063452e-09
-1.171176e-09
-1.250039e-09
-1.306591e-09
-1.345997e-09
-1.372258e-09
-1.388393e-09
-1.396705e-09
-1.399458e-09
-1.399315e-09
-1.396491e-09
-1.388148e-09
0.000000e+00
-4.568867e-10
-1.004319e-09
-1.461776e-09
-1.829408e-09
-2.113430e-09
-2.327501e-09
-2.485217e-09
-2.598204e-09
-2.676201e-09
-2.727445e-09
-2.759017e-09
-2.777026e-09
-2.786674e-09
-2.791858e-09
-2.793630e-09
-2.791282e-09
0.000000e+00
-6.134955e-10
-1.445623e-09
-2.123268e-09
-2.666437e-09
-3.095341e-09
-3.426005e-09
-3.674666e-09
-3.856328e-09
-3.984473e-09
-4.071114e-09
-4.126877e-09
-4.160913e-09
-4.180678e-09
-4.191565e-09
-4.196521e-09
-4.197213e-09
0.000000e+00
-9.020005e-10
-1.865089e-09
-2.717705e-09
-3.437191e-09
-4.021002e-09
-4.479700e-09
-4.830197e-09
-5.090466e-09
-5.277791e-09
-5.407977e-09
-5.494940e-09
-5.550372e-09
-5.583495e-09
-5.600980e-09
-5.607672e-09
-5.608829e-09
0.000000e+00
8.193111e-10
1.472243e-09
2.157209e-09
2.979320e-09
3.946913e-09
5.040347e-09
6.234047e-09
7.503487e-09
8.828436e-09
1.019337e-08
1.158766e-08
1.300698e-08
1.446060e-08
1.598756e-08
1.760801e-08
1.924923e-08
0.000000e+00
4.405480e-10
1.078667e-09
1.809956e-09
2.694596e-09
3.722391e-09
4.868705e-09
6.106191e-09
7.410917e-09
8.763517e-09
1.014946e-08
1.155907e-08
1.298834e-08
1.444164e-08
1.593767e-08
1.751306e-08
1.912772e-08
0.000000e+00
2.173422e-10
7.698036e-10
1.538743e-09
2.474565e-09
3.551943e-09
4.740322e-09
6.012040e-09
7.344046e-09
8.718037e-09
1.012040e-08
1.154211e-08
1.297842e-08
1.442676e-08
1.588887e-08
1.741221e-08
1.898361e-08
0.000000e+00
1.238326e-10
6.241099e-10
1.396609e-09
2.359087e-09
3.463738e-09
4.674996e-09
5.964968e-09
7.311412e-09
8.696782e-09
1.010789e-08
1.153553e-08
1.297332e-08
1.441488e-08
1.585860e-08
1.734055e-08
1.885752e-08
0.000000e+00
1.001096e-10
5.844032e-10
1.353578e-09
2.323579e-09
3.436879e-09
4.655481e-09
5.951358e-09
7.302591e-09
8.691856e-09
1.010586e-08
1.153478e-08
1.297117e-08
1.440845e-08
1.584438e-08
1.729960e-08
1.876778e-08
0.000000e+00
1.239998e-10
6.243417e-10
1.396923e-09
2.359531e-09
3.464446e-09
4.676198e-09
5.966995e-09
7.314613e-09
8.701325e-09
1.011334e-08
1.154017e-08
1.297386e-08
1.440832e-08
1.584114e-08
1.727985e-08
1.871614e-08
0.000000e+00
2.176065e-10
7.702221e-10
1.539362e-09
2.475481e-09
3.553413e-09
4.742775e-09
6.016083e-09
7.350330e-09
8.726931e-09
1.013130e-08
1.155224e-08
1.298129e-08
1.441236e-08
1.584218e-08
1.727111e-08
1.869202e-08
0.000000e+00
4.409184e-10
1.079360e-09
1.810983e-09
2.696079e-09
3.724631e-09
4.872181e-09
6.111560e-09
7.418886e-09
8.774514e-09
1.016292e-08
1.157207e-08
1.299280e-08
1.441841e-08
1.584440e-08
1.726778e-08
1.868397e-08
0.000000e+00
8.199025e-10
1.473261e-09
2.158637e-09
2.981267e-09
3.949605e-09
5.044160e-09
6.239477e-09
7.511058e-09
8.838410e-09
1.020510e-08
1.159823e-08
1.300777e-08
1.442610e-08
1.584755e-08
1.726755e-08
1.868274e-08


2.405203e-01
2.405203e-01
2.405204e-01
2.405204e-01
2.405205e-01
2.405205e-01
2.405205e-01
2.405205e-01
2.405206e-01
2.405206e-01
2.405206e-01
2.405206e-01
2.405206e-01
2.405206e-01
2.405206e-01
2.405206e-01
2.405204e-01
2.405204e-01
2.405204e-01
2.405204e-01
2.405205e-01
2.405205e-01
2.405205e-01
2.405205e-01
2.405206e-01
2.405206e-01
2.405206e-01
2.405206e-01
2.405206e-01
2.405206e-01
2.405206e-01
2.405206e-01
2.405205e-01
2.405205e-01
2.405205e-01
2.405205e-01
2.405205e-01
2.405205e-01
2.405206e-01
2.405206e-01
2.405206e-01
2.405206e-01
2.405206e-01
2.405206e-01
2.405206e-01
2.405206e-01
2.405206e-01
2.405206e-01
2.405205e-01
2.405205e-01
2.405205e-01
2.405205e-01
2.405206e-01
2.405206e-01
2.405206e-01
2.405206e-01
2.405206e-01
2.405206e-01
2.405206e-01
2.405206e-01
2.405206e-01
2.405206e-01
2.405206e-01
2.405206e-01
2.405205e-01
2.405205e-01
2.405205e-01
2.405205e-01
2.405206e-01
2.405206e-01
2.405206e-01
2.405206e-01
2.405206e-01
2.405206e-01
2.405206e-01
2.405206e-01
2.405206e-01
2.405206e-01
2.405206e-01
2.405206e-01
2.405205e-01
2.405205e-01
2.405205e-01
2.405205e-01
2.405205e-01
2.405205e-01
2.405206e-01
2.405206e-01
2.405206e-01
2.405206e-01
2.405206e-01
2.405206e-01
2.405206e-01
2.405206e-01
2.405206e-01
2.405206e-01
2.405204e-01
2.405204e-01
2.405204e-01
2.405204e-01
2.405205e-01
2.405205e-01
2.405205e-01
2.405205e-01
2.405206e-01
2.405206e-01
2.405206e-01
2.405206e-01
2.405206e-01
2.405206e-01
2.405206e-01
2.405206e-01
2.405203e-01
2.405203e-01
2.405204e-01
2.405204e-01
2.405205e-01
2.405205e-01
2.405205e-01
2.405205e-01
2.405206e-01
2.405206e-01
2.405206e-01
2.405206e-01
2.405206e-01
2.405206e-01
2.405206e-01
2.405206e-01


9.847553e-01
9.869171e-01
9.889169e-01
9.904564e-01
9.918854e-01
9.932030e-01
9.944034e-01
9.954726e-01
9.963993e-01
9.971744e-01
9.977906e-01
9.982421e-01
9.985227e-01
9.986228e-01
9.986951e-01
9.942399e-01
9.942326e-01
9.932420e-01
9.938794e-01
9.947112e-01
9.954868e-01
9.961917e-01
9.968298e-01
9.974078e-01
9.979311e-01
9.984051e-01
9.988352e-01
9.992246e-01
9.995644e-01
9.997869e-01
9.992243e-01
9.915979e-01
9.979961e-01
9.974271e-01
9.972735e-01
9.974896e-01
9.977738e-01
9.980491e-01
9.983047e-01
9.985463e-01
9.987802e-01
9.990084e-01
9.992214e-01
9.993863e-01
9.994208e-01
9.991237e-01
9.980462e-01
9.961080e-01
9.995922e-01
9.991772e-01
9.989208e-01
9.988558e-01
9.988818e-01
9.989254e-01
9.989689e-01
9.990114e-01
9.990531e-01
9.990880e-01
9.990978e-01
9.990458e-01
9.988811e-01
9.985853e-01
9.983346e-01
9.982711e-01
9.995937e-01
9.991794e-01
9.989228e-01
9.988554e-01
9.988753e-01
9.989067e-01
9.989285e-01
9.989359e-01
9.989259e-01
9.988938e-01
9.988339e-01
9.987477e-01
9.986656e-01
9.986819e-01
9.989140e-01
9.993158e-01
9.979990e-01
9.974314e-01
9.972777e-01
9.974896e-01
9.977628e-01
9.980151e-01
9.982285e-01
9.984001e-01
9.985286e-01
9.986151e-01
9.986698e-01
9.987233e-01
9.988357e-01
9.990712e-01
9.994251e-01
9.997909e-01
9.942321e-01
9.932416e-01
9.938785e-01
9.947088e-01
9.954807e-01
9.961778e-01
9.968011e-01
9.973529e-01
9.978338e-01
9.982448e-01
9.985927e-01
9.988966e-01
9.991893e-01
9.994961e-01
9.997830e-01
9.999637e-01
9.847449e-01
9.869008e-01
9.888970e-01
9.904340e-01
9.918653e-01
9.931957e-01
9.944282e-01
9.955600e-01
9.965912e-01
9.975199e-01
9.983349e-01
9.990111e-01
9.995141e-01
9.998244e-01
9.999656e-01
9.999993e-01
1 2 19 18
2 3 20 19
3 4 21 20
4 5 22 21
5 6 23 22
6 7 24 23
7 8 25 24
8 9 26 25
9 10 27 26
10 11 28 27
11 12 29 28
12 13 30 29
13 14 31 30
14 15 32 31
15 16 33 32
16 17 34 33
18 19 36 35
19 20 37 36
20 21 38 37
21 22 39 38
22 23 40 39
23 24 41 40
24 25 42 41
25 26 43 42
26 27 44 43
27 28 45 44
28 29 46 45
29 30 47 46
30 31 48 47
31 32 49 48
32 33 50 49
33 34 51 50
35 36 53 52
36 37 54 53
37 38 55 54
38 39 56 55
39 40 57 56
40 41 58 57
41 42 59 58
42 43 60 59
43 44 61 60
44 45 62 61
45 46 63 62
46 47 64 63
47 48 65 64
48 49 66 65
49 50 67 66
50 51 68 67
52 53 70 69
53 54 71 70
54 55 72 71
55 56 73 72
56 57 74 73
57 58 75 74
58 59 76 75
59 60 77 76
60 61 78 77
61 62 79 78
62 63 80 79
63 64 81 80
64 65 82 81
65 66 83 82
66 67 84 83
67 68 85 84
69 70 87 86
70 71 88 87
71 72 89 88
72 73 90 89
73 74 91 90
74 75 92 91
75 76 93 92
76 77 94 93
77 78 95 94
78 79 96 95
79 80 97 96
80 81 98 97
81 82 99 98
82 83 100 99
83 84 101 100
84 85 102 101
86 87 104 103
87 88 105 104
88 89 106 105
89 90 107 106
90 91 108 107
91 92 109 108
92 93 110 109
93 94 111 110
94 95 112 111
95 96 113 112
96 97 114 113
97 98 115 114
98 99 116 115
99 100 117 116
100 101 118 117
101 102 119 118
103 104 121 120
104 105 122 121
105 106 123 122
106 107 124 123
107 108 125 124
108 109 126 125
109 110 127 126
110 111 128 127
111 112 129 128
112 113 130 129
113 114 131 130
114 115 132 131
115 116 133 132
116 117 134 133
117 118 135 134
118 119 136 135
120 121 138 137
121 122 139 138
122 123 140 139
123 124 141 140
124 125 142 141
125 126 143 142
126 127 144 143
127 128 145 144
128 129 146 145
129 130 147 146
130 131 148 147
131 132 149 148
132 133 150 149
133 134 151 150
134 135 152 151
135 136 153 152
