TITLE = "Solution"
VARIABLES = x, y, u, v, psiu, psiv, t, stress
ZONE T="structure" N=153 E=128 F=FEBLOCK ET=QUADRILATERAL VARLOCATION=([7,8]=cellcentered)
0.000000e+00
1.250000e+01
2.500000e+01
3.750000e+01
5.000000e+01
6.250000e+01
7.500000e+01
8.750000e+01
1.000000e+02
1.125000e+02
1.250000e+02
1.375000e+02
1.500000e+02
1.625000e+02
1.750000e+02
1.875000e+02
2.000000e+02
0.000000e+00
1.250000e+01
2.500000e+01
3.750000e+01
5.000000e+01
6.250000e+01
7.500000e+01
8.750000e+01
1.000000e+02
1.125000e+02
1.250000e+02
1.375000e+02
1.500000e+02
1.625000e+02
1.750000e+02
1.875000e+02
2.000000e+02
0.000000e+00
1.250000e+01
2.500000e+01
3.750000e+01
5.000000e+01
6.250000e+01
7.500000e+01
8.750000e+01
1.000000e+02
1.125000e+02
1.250000e+02
1.375000e+02
1.500000e+02
1.625000e+02
1.750000e+02
1.875000e+02
2.000000e+02
0.000000e+00
1.250000e+01
2.500000e+01
3.750000e+01
5.000000e+01
6.250000e+01
7.500000e+01
8.750000e+01
1.000000e+02
1.125000e+02
1.250000e+02
1.375000e+02
1.500000e+02
1.625000e+02
1.750000e+02
1.875000e+02
2.000000e+02
0.000000e+00
1.250000e+01
2.500000e+01
3.750000e+01
5.000000e+01
6.250000e+01
7.500000e+01
8.750000e+01
1.000000e+02
1.125000e+02
1.250000e+02
1.375000e+02
1.500000e+02
1.625000e+02
1.750000e+02
1.875000e+02
2.000000e+02
0.000000e+00
1.250000e+01
2.500000e+01
3.750000e+01
5.000000e+01
6.250000e+01
7.500000e+01
8.750000e+01
1.000000e+02
1.125000e+02
1.250000e+02
1.375000e+02
1.500000e+02
1.625000e+02
1.750000e+02
1.875000e+02
2.000000e+02
0.000000e+00
1.250000e+01
2.500000e+01
3.750000e+01
5.000000e+01
6.250000e+01
7.500000e+01
8.750000e+01
1.000000e+02
1.125000e+02
1.250000e+02
1.375000e+02
1.500000e+02
1.625000e+02
1.750000e+02
1.875000e+02
2.000000e+02
0.000000e+00
1.250000e+01
2.500000e+01
3.750000e+01
5.000000e+01
6.250000e+01
7.500000e+01
8.750000e+01
1.000000e+02
1.125000e+02
1.250000e+02
1.375000e+02
1.500000e+02
1.625000e+02
1.750000e+02
1.875000e+02
2.000000e+02
0.000000e+00
1.250000e+01
2.500000e+01
3.750000e+01
5.000000e+01
6.250000e+01
7.500000e+01
8.750000e+01
1.000000e+02
1.125000e+02
1.250000e+02
1.375000e+02
1.500000e+02
1.625000e+02
1.750000e+02
1.875000e+02
2.000000e+02
0.000000e+00
0.000000e+00
0.000000e+00
0.000000e+00
0.000000e+00
0.000000e+00
0.000000e+00
0.000000e+00
0.000000e+00
0.000000e+00
0.000000e+00
0.000000e+00
0.000000e+00
0.000000e+00
0.000000e+00
0.000000e+00
0.000000e+00
1.250000e+01
1.250000e+01
1.250000e+01
1.250000e+01
1.250000e+01
1.250000e+01
1.250000e+01
1.250000e+01
1.250000e+01
1.250000e+01
1.250000e+01
1.250000e+01
1.250000e+01
1.250000e+01
1.250000e+01
1.250000e+01
1.250000e+01
2.500000e+01
2.500000e+01
2.500000e+01
2.500000e+01
2.500000e+01
2.500000e+01
2.500000e+01
2.500000e+01
2.500000e+01
2.500000e+01
2.500000e+01
2.500000e+01
2.500000e+01
2.500000e+01
2.500000e+01
2.500000e+01
2.500000e+01
3.750000e+01
3.750000e+01
3.750000e+01
3.750000e+01
3.750000e+01
3.750000e+01
3.750000e+01
3.750000e+01
3.750000e+01
3.750000e+01
3.750000e+01
3.750000e+01
3.750000e+01
3.750000e+01
3.750000e+01
3.750000e+01
3.750000e+01
5.000000e+01
5.000000e+01
5.000000e+01
5.000000e+01
5.000000e+01
5.000000e+01
5.000000e+01
5.000000e+01
5.000000e+01
5.000000e+01
5.000000e+01
5.000000e+01
5.000000e+01
5.000000e+01
5.000000e+01
5.000000e+01
5.000000e+01
6.250000e+01
6.250000e+01
6.250000e+01
6.250000e+01
6.250000e+01
6.250000e+01
6.250000e+01
6.250000e+01
6.250000e+01
6.250000e+01
6.250000e+01
6.250000e+01
6.250000e+01
6.250000e+01
6.250000e+01
6.250000e+01
6.250000e+01
7.500000e+01
7.500000e+01
7.500000e+01
7.500000e+01
7.500000e+01
7.500000e+01
7.500000e+01
7.500000e+01
7.500000e+01
7.500000e+01
7.500000e+01
7.500000e+01
7.500000e+01
7.500000e+01
7.500000e+01
7.500000e+01
7.500000e+01
8.750000e+01
8.750000e+01
8.750000e+01
8.750000e+01
8.750000e+01
8.750000e+01
8.750000e+01
8.750000e+01
8.750000e+01
8.750000e+01
8.750000e+01
8.750000e+01
8.750000e+01
8.750000e+01
8.750000e+01
8.750000e+01
8.750000e+01
1.000000e+02
1.000000e+02
1.000000e+02
1.000000e+02
1.000000e+02
1.000000e+02
1.000000e+02
1.000000e+02
1.000000e+02
1.000000e+02
1.000000e+02
1.000000e+02
1.000000e+02
1.000000e+02
1.000000e+02
1.000000e+02
1.000000e+02
0.000000e+00
-1.744198e-01
-3.211618e-01
-4.561856e-01
-5.819343e-01
-6.981418e-01
-8.045575e-01
-9.010982e-01
-9.879034e-01
-1.065373e+00
-1.134273e+00
-1.195952e+00
-1.252725e+00
-1.308594e+00
-1.370462e+00
-1.446444e+00
-1.503459e+00
0.000000e+00
-1.041592e-01
-2.163707e-01
-3.199928e-01
-4.154635e-01
-5.031453e-01
-5.832190e-01
-6.557912e-01
-7.209920e-01
-7.790220e-01
-8.301755e-01
-8.748208e-01
-9.132428e-01
-9.450459e-01
-9.674783e-01
-9.723951e-01
-9.900229e-01
0.000000e+00
-6.513742e-02
-1.339394e-01
-2.025811e-01
-2.666581e-01
-3.254913e-01
-3.790326e-01
-4.273420e-01
-4.704310e-01
-5.082275e-01
-5.405279e-01
-5.668808e-01
-5.863466e-01
-5.972129e-01
-5.975146e-01
-5.931738e-01
-6.111528e-01
0.000000e+00
-3.143912e-02
-6.472204e-02
-9.821607e-02
-1.302434e-01
-1.597433e-01
-1.864828e-01
-2.103836e-01
-2.313087e-01
-2.489857e-01
-2.629627e-01
-2.725799e-01
-2.770500e-01
-2.760057e-01
-2.717151e-01
-2.728884e-01
-2.862756e-01
0.000000e+00
-2.897249e-05
-6.586209e-05
-1.026306e-04
-1.221475e-04
-8.621203e-05
8.099978e-05
5.155452e-04
1.440645e-03
3.188797e-03
6.193796e-03
1.089142e-02
1.739943e-02
2.475381e-02
2.983400e-02
2.844071e-02
1.957713e-02
0.000000e+00
3.139454e-02
6.461855e-02
9.805052e-02
1.300375e-01
1.595758e-01
1.865477e-01
2.110846e-01
2.333992e-01
2.537502e-01
2.724035e-01
2.894969e-01
3.047336e-01
3.169517e-01
3.241390e-01
3.247091e-01
3.202103e-01
0.000000e+00
6.513009e-02
1.339171e-01
2.025367e-01
2.665887e-01
3.254050e-01
3.789611e-01
4.273652e-01
4.707173e-01
5.090943e-01
5.425292e-01
5.709404e-01
5.940009e-01
6.110504e-01
6.212838e-01
6.246067e-01
6.235576e-01
0.000000e+00
1.042019e-01
2.164636e-01
3.201409e-01
4.156622e-01
5.033580e-01
5.833383e-01
6.555729e-01
7.199512e-01
7.762868e-01
8.243122e-01
8.636950e-01
8.941203e-01
9.154872e-01
9.282330e-01
9.336683e-01
9.346667e-01
0.000000e+00
1.744912e-01
3.213503e-01
4.565387e-01
5.824983e-01
6.989352e-01
8.055040e-01
9.018940e-01
9.877823e-01
1.062722e+00
1.126062e+00
1.176959e+00
1.214576e+00
1.238618e+00
1.250244e+00
1.253114e+00
1.253059e+00
0.000000e+00
-1.055814e-01
-2.072705e-01
-3.390369e-01
-5.007536e-01
-6.921184e-01
-9.110360e-01
-1.155057e+00
-1.421586e+00
-1.708064e+00
-2.012125e+00
-2.331886e+00
-2.666578e+00
-3.017985e+00
-3.395227e+00
-3.826863e+00
-4.447056e+00
0.000000e+00
-6.499804e-02
-1.710763e-01
-3.044757e-01
-4.688344e-01
-6.628100e-01
-8.843793e-01
-1.131033e+00
-1.400145e+00
-1.689110e+00
-1.995498e+00
-2.317338e+00
-2.653742e+00
-3.006448e+00
-3.383542e+00
-3.812560e+00
-4.338155e+00
0.000000e+00
-4.904725e-02
-1.459847e-01
-2.798759e-01
-4.457879e-01
-6.417596e-01
-8.653651e-01
-1.114071e+00
-1.385269e+00
-1.676391e+00
-1.985053e+00
-2.309353e+00
-2.648486e+00
-3.003905e+00
-3.381324e+00
-3.787831e+00
-4.181244e+00
0.000000e+00
-4.226614e-02
-1.335095e-01
-2.654366e-01
-4.319481e-01
-6.291257e-01
-8.541251e-01
-1.104316e+00
-1.377141e+00
-1.670099e+00
-1.980859e+00
-2.307482e+00
-2.648780e+00
-3.004591e+00
-3.374459e+00
-3.747981e+00
-4.092079e+00
0.000000e+00
-4.031277e-02
-1.297340e-01
-2.608304e-01
-4.273870e-01
-6.250553e-01
-8.507016e-01
-1.101698e+00
-1.375535e+00
-1.669754e+00
-1.981971e+00
-2.309940e+00
-2.651542e+00
-3.004257e+00
-3.362805e+00
-3.714924e+00
-4.039310e+00
0.000000e+00
-4.224105e-02
-1.334916e-01
-2.654684e-01
-4.321042e-01
-6.295369e-01
-8.550047e-01
-1.105982e+00
-1.380013e+00
-1.674626e+00
-1.987283e+00
-2.315268e+00
-2.655407e+00
-3.003373e+00
-3.352478e+00
-3.692522e+00
-4.009984e+00
0.000000e+00
-4.900632e-02
-1.459551e-01
-2.799289e-01
-4.460509e-01
-6.424553e-01
-8.668564e-01
-1.116899e+00
-1.390153e+00
-1.684103e+00
-1.996040e+00
-2.322831e+00
-2.660538e+00
-3.003943e+00
-3.346281e+00
-3.679798e+00
-3.997049e+00
0.000000e+00
-6.495967e-02
-1.710505e-01
-3.045461e-01
-4.691503e-01
-6.636281e-01
-8.861153e-01
-1.134302e+00
-1.405755e+00
-1.697914e+00
-2.007959e+00
-2.332533e+00
-2.667362e+00
-3.006944e+00
-3.344728e+00
-3.674537e+00
-3.994012e+00
0.000000e+00
-1.055656e-01
-2.072727e-01
-3.391459e-01
-5.011196e-01
-6.929926e-01
-9.128123e-01
-1.158298e+00
-1.426989e+00
-1.716283e+00
-2.023290e+00
-2.344579e+00
-2.675847e+00
-3.011714e+00
-3.346047e+00
-3.673574e+00
-3.994060e+00


0.000000e+00
1.389295e-08
2.872714e-08
4.183331e-08
5.286122e-08
6.178668e-08
6.878846e-08
7.414067e-08
7.813034e-08
8.103064e-08
8.309015e-08
8.453118e-08
8.555574e-08
8.635076e-08
8.709149e-08
8.800867e-08
8.911200e-08
0.000000e+00
9.473397e-09
2.229520e-08
3.270331e-08
4.101465e-08
4.755442e-08
5.258288e-08
5.636055e-08
5.912566e-08
6.108867e-08
6.243074e-08
6.330103e-08
6.381158e-08
6.406180e-08
6.431601e-08
6.506568e-08
6.620153e-08
0.000000e+00
7.051741e-09
1.547675e-08
2.249465e-08
2.811201e-08
3.243111e-08
3.566924e-08
3.804046e-08
3.972583e-08
4.087396e-08
4.160588e-08
4.201995e-08
4.220345e-08
4.227391e-08
4.245354e-08
4.304186e-08
4.396126e-08
0.000000e+00
3.767481e-09
7.706092e-09
1.121676e-08
1.408008e-08
1.626106e-08
1.786558e-08
1.901328e-08
1.980285e-08
2.031254e-08
2.060732e-08
2.074813e-08
2.080514e-08
2.086806e-08
2.102691e-08
2.138418e-08
2.194918e-08
0.000000e+00
-4.163771e-12
-9.720335e-12
-1.737781e-11
-2.832599e-11
-4.418139e-11
-6.702844e-11
-9.927759e-11
-1.429902e-10
-1.982676e-10
-2.602260e-10
-3.145475e-10
-3.354236e-10
-2.975423e-10
-1.996721e-10
-2.775752e-11
2.660612e-10
0.000000e+00
-3.774665e-09
-7.722623e-09
-1.124621e-08
-1.412748e-08
-1.633362e-08
-1.797340e-08
-1.916987e-08
-2.002521e-08
-2.061953e-08
-2.101458e-08
-2.125665e-08
-2.138088e-08
-2.142164e-08
-2.141923e-08
-2.137688e-08
-2.125154e-08
0.000000e+00
-7.055545e-09
-1.548711e-08
-2.251367e-08
-2.814208e-08
-3.247474e-08
-3.572896e-08
-3.811880e-08
-3.982589e-08
-4.100123e-08
-4.177161e-08
-4.224524e-08
-4.251490e-08
-4.265922e-08
-4.273687e-08
-4.276353e-08
-4.272828e-08
0.000000e+00
-9.474846e-09
-2.230199e-08
-3.271528e-08
-4.103132e-08
-4.757408e-08
-5.260144e-08
-5.637067e-08
-5.911691e-08
-6.104944e-08
-6.235336e-08
-6.319113e-08
-6.370188e-08
-6.399834e-08
-6.416171e-08
-6.423615e-08
-6.424656e-08
0.000000e+00
-1.389916e-08
-2.873748e-08
-4.184517e-08
-5.287126e-08
-6.178912e-08
-6.877398e-08
-7.409578e-08
-7.803712e-08
-8.086713e-08
-8.282985e-08
-8.413872e-08
-8.497201e-08
-8.546959e-08
-8.573221e-08
-8.583273e-08
-8.585011e-08
0.000000e+00
1.262198e-08
2.264767e-08
3.315100e-08
4.575817e-08
6.059713e-08
7.736265e-08
9.565891e-08
1.151082e-07
1.354002e-07
1.562977e-07
1.776385e-07
1.993565e-07
2.215908e-07
2.449313e-07
2.696852e-07
2.947548e-07
0.000000e+00
6.776153e-09
1.658496e-08
2.781834e-08
4.140114e-08
5.717322e-08
7.475356e-08
9.372109e-08
1.137088e-07
1.344211e-07
1.556367e-07
1.772089e-07
1.990768e-07
2.213062e-07
2.441792e-07
2.682514e-07
2.929191e-07
0.000000e+00
3.334561e-09
1.183315e-08
2.365867e-08
3.803768e-08
5.457659e-08
7.280401e-08
9.229553e-08
1.126989e-07
1.337358e-07
1.551998e-07
1.769545e-07
1.989284e-07
2.210829e-07
2.434437e-07
2.667291e-07
2.907429e-07
0.000000e+00
1.900012e-09
9.598183e-09
2.148147e-08
3.627321e-08
5.323288e-08
7.181189e-08
9.158273e-08
1.122061e-07
1.334156e-07
1.550118e-07
1.768559e-07
1.988520e-07
2.209041e-07
2.429879e-07
2.656487e-07
2.888406e-07
0.000000e+00
1.537779e-09
8.990291e-09
2.082207e-08
3.573005e-08
5.282302e-08
7.151499e-08
9.137626e-08
1.120726e-07
1.333412e-07
1.549812e-07
1.768447e-07
1.988196e-07
2.208074e-07
2.427744e-07
2.650330e-07
2.874887e-07
0.000000e+00
1.902523e-09
9.601634e-09
2.148613e-08
3.627983e-08
5.324347e-08
7.182996e-08
9.161326e-08
1.122543e-07
1.334840e-07
1.550937e-07
1.769255e-07
1.988597e-07
2.208052e-07
2.427263e-07
2.647366e-07
2.867116e-07
0.000000e+00
3.338556e-09
1.183942e-08
2.366795e-08
3.805140e-08
5.459868e-08
7.284097e-08
9.235648e-08
1.127936e-07
1.338697e-07
1.553638e-07
1.771066e-07
1.989711e-07
2.208658e-07
2.427421e-07
2.646056e-07
2.863489e-07
0.000000e+00
6.781836e-09
1.659553e-08
2.783393e-08
4.142361e-08
5.720708e-08
7.480604e-08
9.380208e-08
1.138289e-07
1.345866e-07
1.558391e-07
1.774042e-07
1.991436e-07
2.209565e-07
2.427756e-07
2.645557e-07
2.862279e-07
0.000000e+00
1.263121e-08
2.266341e-08
3.317292e-08
4.578786e-08
6.063798e-08
7.742030e-08
9.574082e-08
1.152222e-07
1.355502e-07
1.564740e-07
1.777973e-07
1.993683e-07
2.210719e-07
2.428229e-07
2.645523e-07
2.862094e-07


5.096234e-01
5.096233e-01
5.096340e-01
5.096527e-01
5.096698e-01
5.096835e-01
5.096941e-01
5.097020e-01
5.097077e-01
5.097116e-01
5.097142e-01
5.097158e-01
5.097162e-01
5.097147e-01
5.097116e-01
5.097092e-01
5.096427e-01
5.096423e-01
5.096504e-01
5.096654e-01
5.096792e-01
5.096903e-01
5.096989e-01
5.097052e-01
5.097098e-01
5.097130e-01
5.097150e-01
5.097162e-01
5.097164e-01
5.097148e-01
5.097117e-01
5.097093e-01
5.096752e-01
5.096744e-01
5.096788e-01
5.096874e-01
5.096953e-01
5.097018e-01
5.097068e-01
5.097105e-01
5.097132e-01
5.097150e-01
5.097161e-01
5.097167e-01
5.097167e-01
5.097153e-01
5.097128e-01
5.097110e-01
5.096983e-01
5.096976e-01
5.096993e-01
5.097029e-01
5.097067e-01
5.097099e-01
5.097123e-01
5.097141e-01
5.097153e-01
5.097162e-01
5.097167e-01
5.097169e-01
5.097168e-01
5.097160e-01
5.097146e-01
5.097137e-01
5.096983e-01
5.096976e-01
5.096992e-01
5.097029e-01
5.097066e-01
5.097098e-01
5.097122e-01
5.097140e-01
5.097152e-01
5.097160e-01
5.097165e-01
5.097168e-01
5.097169e-01
5.097167e-01
5.097162e-01
5.097159e-01
5.096751e-01
5.096743e-01
5.096788e-01
5.096873e-01
5.096952e-01
5.097017e-01
5.097067e-01
5.097103e-01
5.097129e-01
5.097147e-01
5.097158e-01
5.097165e-01
5.097170e-01
5.097172e-01
5.097172e-01
5.097172e-01
5.096427e-01
5.096422e-01
5.096504e-01
5.096654e-01
5.096792e-01
5.096902e-01
5.096988e-01
5.097051e-01
5.097097e-01
5.097128e-01
5.097149e-01
5.097162e-01
5.097170e-01
5.097175e-01
5.097177e-01
5.097178e-01
5.096233e-01
5.096232e-01
5.096339e-01
5.096526e-01
5.096697e-01
5.096834e-01
5.096941e-01
5.097020e-01
5.097078e-01
5.097118e-01
5.097144e-01
5.097161e-01
5.097171e-01
5.097176e-01
5.097179e-01
5.097180e-01


9.315557e-01
9.412615e-01
9.502386e-01
9.571479e-01
9.635621e-01
9.694774e-01
9.748672e-01
9.796681e-01
9.838294e-01
9.873099e-01
9.900776e-01
9.921051e-01
9.933654e-01
9.938151e-01
9.941397e-01
9.741316e-01
9.741066e-01
9.696585e-01
9.725191e-01
9.762526e-01
9.797339e-01
9.828984e-01
9.857634e-01
9.883586e-01
9.907085e-01
9.928372e-01
9.947688e-01
9.965178e-01
9.980438e-01
9.990430e-01
9.965162e-01
9.622662e-01
9.910032e-01
9.884483e-01
9.877581e-01
9.887277e-01
9.900034e-01
9.912394e-01
9.923870e-01
9.934715e-01
9.945221e-01
9.955465e-01
9.965032e-01
9.972440e-01
9.973986e-01
9.960647e-01
9.912252e-01
9.825212e-01
9.981688e-01
9.963054e-01
9.951543e-01
9.948621e-01
9.949785e-01
9.951740e-01
9.953693e-01
9.955602e-01
9.957475e-01
9.959043e-01
9.959480e-01
9.957147e-01
9.949747e-01
9.936466e-01
9.925204e-01
9.922353e-01
9.981757e-01
9.963152e-01
9.951629e-01
9.948603e-01
9.949495e-01
9.950904e-01
9.951882e-01
9.952211e-01
9.951761e-01
9.950318e-01
9.947631e-01
9.943758e-01
9.940071e-01
9.940804e-01
9.951227e-01
9.969270e-01
9.910161e-01
9.884678e-01
9.877768e-01
9.887278e-01
9.899538e-01
9.910863e-01
9.920446e-01
9.928149e-01
9.933919e-01
9.937804e-01
9.940260e-01
9.942662e-01
9.947709e-01
9.958288e-01
9.974179e-01
9.990609e-01
9.741042e-01
9.696567e-01
9.725152e-01
9.762420e-01
9.797066e-01
9.828361e-01
9.856343e-01
9.881122e-01
9.902714e-01
9.921172e-01
9.936799e-01
9.950446e-01
9.963589e-01
9.977368e-01
9.990253e-01
9.998369e-01
9.315090e-01
9.411885e-01
9.501490e-01
9.570474e-01
9.634718e-01
9.694446e-01
9.749786e-01
9.800604e-01
9.846911e-01
9.888616e-01
9.925220e-01
9.955586e-01
9.978177e-01
9.992114e-01
9.998455e-01
9.999967e-01
1 2 19 18
2 3 20 19
3 4 21 20
4 5 22 21
5 6 23 22
6 7 24 23
7 8 25 24
8 9 26 25
9 10 27 26
10 11 28 27
11 12 29 28
12 13 30 29
13 14 31 30
14 15 32 31
15 16 33 32
16 17 34 33
18 19 36 35
19 20 37 36
20 21 38 37
21 22 39 38
22 23 40 39
23 24 41 40
24 25 42 41
25 26 43 42
26 27 44 43
27 28 45 44
28 29 46 45
29 30 47 46
30 31 48 47
31 32 49 48
32 33 50 49
33 34 51 50
35 36 53 52
36 37 54 53
37 38 55 54
38 39 56 55
39 40 57 56
40 41 58 57
41 42 59 58
42 43 60 59
43 44 61 60
44 45 62 61
45 46 63 62
46 47 64 63
47 48 65 64
48 49 66 65
49 50 67 66
50 51 68 67
52 53 70 69
53 54 71 70
54 55 72 71
55 56 73 72
56 57 74 73
57 58 75 74
58 59 76 75
59 60 77 76
60 61 78 77
61 62 79 78
62 63 80 79
63 64 81 80
64 65 82 81
65 66 83 82
66 67 84 83
67 68 85 84
69 70 87 86
70 71 88 87
71 72 89 88
72 73 90 89
73 74 91 90
74 75 92 91
75 76 93 92
76 77 94 93
77 78 95 94
78 79 96 95
79 80 97 96
80 81 98 97
81 82 99 98
82 83 100 99
83 84 101 100
84 85 102 101
86 87 104 103
87 88 105 104
88 89 106 105
89 90 107 106
90 91 108 107
91 92 109 108
92 93 110 109
93 94 111 110
94 95 112 111
95 96 113 112
96 97 114 113
97 98 115 114
98 99 116 115
99 100 117 116
100 101 118 117
101 102 119 118
103 104 121 120
104 105 122 121
105 106 123 122
106 107 124 123
107 108 125 124
108 109 126 125
109 110 127 126
110 111 128 127
111 112 129 128
112 113 130 129
113 114 131 130
114 115 132 131
115 116 133 132
116 117 134 133
117 118 135 134
118 119 136 135
120 121 138 137
121 122 139 138
122 123 140 139
123 124 141 140
124 125 142 141
125 126 143 142
126 127 144 143
127 128 145 144
128 129 146 145
129 130 147 146
130 131 148 147
131 132 149 148
132 133 150 149
133 134 151 150
134 135 152 151
135 136 153 152
