TITLE = "Solution"
VARIABLES = x, y, u, v, psiu, psiv, t, stress
ZONE T="structure" N=153 E=128 F=FEBLOCK ET=QUADRILATERAL VARLOCATION=([7,8]=cellcentered)
0.000000e+00
1.250000e+01
2.500000e+01
3.750000e+01
5.000000e+01
6.250000e+01
7.500000e+01
8.750000e+01
1.000000e+02
1.125000e+02
1.250000e+02
1.375000e+02
1.500000e+02
1.625000e+02
1.750000e+02
1.875000e+02
2.000000e+02
0.000000e+00
1.250000e+01
2.500000e+01
3.750000e+01
5.000000e+01
6.250000e+01
7.500000e+01
8.750000e+01
1.000000e+02
1.125000e+02
1.250000e+02
1.375000e+02
1.500000e+02
1.625000e+02
1.750000e+02
1.875000e+02
2.000000e+02
0.000000e+00
1.250000e+01
2.500000e+01
3.750000e+01
5.000000e+01
6.250000e+01
7.500000e+01
8.750000e+01
1.000000e+02
1.125000e+02
1.250000e+02
1.375000e+02
1.500000e+02
1.625000e+02
1.750000e+02
1.875000e+02
2.000000e+02
0.000000e+00
1.250000e+01
2.500000e+01
3.750000e+01
5.000000e+01
6.250000e+01
7.500000e+01
8.750000e+01
1.000000e+02
1.125000e+02
1.250000e+02
1.375000e+02
1.500000e+02
1.625000e+02
1.750000e+02
1.875000e+02
2.000000e+02
0.000000e+00
1.250000e+01
2.500000e+01
3.750000e+01
5.000000e+01
6.250000e+01
7.500000e+01
8.750000e+01
1.000000e+02
1.125000e+02
1.250000e+02
1.375000e+02
1.500000e+02
1.625000e+02
1.750000e+02
1.875000e+02
2.000000e+02
0.000000e+00
1.250000e+01
2.500000e+01
3.750000e+01
5.000000e+01
6.250000e+01
7.500000e+01
8.750000e+01
1.000000e+02
1.125000e+02
1.250000e+02
1.375000e+02
1.500000e+02
1.625000e+02
1.750000e+02
1.875000e+02
2.000000e+02
0.000000e+00
1.250000e+01
2.500000e+01
3.750000e+01
5.000000e+01
6.250000e+01
7.500000e+01
8.750000e+01
1.000000e+02
1.125000e+02
1.250000e+02
1.375000e+02
1.500000e+02
1.625000e+02
1.750000e+02
1.875000e+02
2.000000e+02
0.000000e+00
1.250000e+01
2.500000e+01
3.750000e+01
5.000000e+01
6.250000e+01
7.500000e+01
8.750000e+01
1.000000e+02
1.125000e+02
1.250000e+02
1.375000e+02
1.500000e+02
1.625000e+02
1.750000e+02
1.875000e+02
2.000000e+02
0.000000e+00
1.250000e+01
2.500000e+01
3.750000e+01
5.000000e+01
6.250000e+01
7.500000e+01
8.750000e+01
1.000000e+02
1.125000e+02
1.250000e+02
1.375000e+02
1.500000e+02
1.625000e+02
1.750000e+02
1.875000e+02
2.000000e+02
0.000000e+00
0.000000e+00
0.000000e+00
0.000000e+00
0.000000e+00
0.000000e+00
0.000000e+00
0.000000e+00
0.000000e+00
0.000000e+00
0.000000e+00
0.000000e+00
0.000000e+00
0.000000e+00
0.000000e+00
0.000000e+00
0.000000e+00
1.250000e+01
1.250000e+01
1.250000e+01
1.250000e+01
1.250000e+01
1.250000e+01
1.250000e+01
1.250000e+01
1.250000e+01
1.250000e+01
1.250000e+01
1.250000e+01
1.250000e+01
1.250000e+01
1.250000e+01
1.250000e+01
1.250000e+01
2.500000e+01
2.500000e+01
2.500000e+01
2.500000e+01
2.500000e+01
2.500000e+01
2.500000e+01
2.500000e+01
2.500000e+01
2.500000e+01
2.500000e+01
2.500000e+01
2.500000e+01
2.500000e+01
2.500000e+01
2.500000e+01
2.500000e+01
3.750000e+01
3.750000e+01
3.750000e+01
3.750000e+01
3.750000e+01
3.750000e+01
3.750000e+01
3.750000e+01
3.750000e+01
3.750000e+01
3.750000e+01
3.750000e+01
3.750000e+01
3.750000e+01
3.750000e+01
3.750000e+01
3.750000e+01
5.000000e+01
5.000000e+01
5.000000e+01
5.000000e+01
5.000000e+01
5.000000e+01
5.000000e+01
5.000000e+01
5.000000e+01
5.000000e+01
5.000000e+01
5.000000e+01
5.000000e+01
5.000000e+01
5.000000e+01
5.000000e+01
5.000000e+01
6.250000e+01
6.250000e+01
6.250000e+01
6.250000e+01
6.250000e+01
6.250000e+01
6.250000e+01
6.250000e+01
6.250000e+01
6.250000e+01
6.250000e+01
6.250000e+01
6.250000e+01
6.250000e+01
6.250000e+01
6.250000e+01
6.250000e+01
7.500000e+01
7.500000e+01
7.500000e+01
7.500000e+01
7.500000e+01
7.500000e+01
7.500000e+01
7.500000e+01
7.500000e+01
7.500000e+01
7.500000e+01
7.500000e+01
7.500000e+01
7.500000e+01
7.500000e+01
7.500000e+01
7.500000e+01
8.750000e+01
8.750000e+01
8.750000e+01
8.750000e+01
8.750000e+01
8.750000e+01
8.750000e+01
8.750000e+01
8.750000e+01
8.750000e+01
8.750000e+01
8.750000e+01
8.750000e+01
8.750000e+01
8.750000e+01
8.750000e+01
8.750000e+01
1.000000e+02
1.000000e+02
1.000000e+02
1.000000e+02
1.000000e+02
1.000000e+02
1.000000e+02
1.000000e+02
1.000000e+02
1.000000e+02
1.000000e+02
1.000000e+02
1.000000e+02
1.000000e+02
1.000000e+02
1.000000e+02
1.000000e+02
0.000000e+00
-7.259993e-02
-1.336795e-01
-1.898806e-01
-2.422195e-01
-2.905858e-01
-3.348758e-01
-3.750550e-01
-4.111820e-01
-4.434232e-01
-4.720981e-01
-4.977672e-01
-5.213947e-01
-5.446462e-01
-5.703942e-01
-6.020159e-01
-6.257446e-01
0.000000e+00
-4.335540e-02
-9.006241e-02
-1.331933e-01
-1.729302e-01
-2.094240e-01
-2.427504e-01
-2.729543e-01
-3.000899e-01
-3.242408e-01
-3.455297e-01
-3.641100e-01
-3.801002e-01
-3.933359e-01
-4.026717e-01
-4.047179e-01
-4.120542e-01
0.000000e+00
-2.711324e-02
-5.575159e-02
-8.432258e-02
-1.109927e-01
-1.354796e-01
-1.577634e-01
-1.778693e-01
-1.958023e-01
-2.115324e-01
-2.249751e-01
-2.359426e-01
-2.440438e-01
-2.485660e-01
-2.486915e-01
-2.468850e-01
-2.543675e-01
0.000000e+00
-1.308652e-02
-2.694036e-02
-4.088169e-02
-5.421211e-02
-6.649025e-02
-7.761917e-02
-8.756646e-02
-9.627518e-02
-1.036320e-01
-1.094489e-01
-1.134514e-01
-1.153118e-01
-1.148771e-01
-1.130915e-01
-1.135798e-01
-1.191513e-01
0.000000e+00
-1.205511e-05
-2.740506e-05
-4.270459e-05
-5.082432e-05
-3.586600e-05
3.372636e-05
2.145761e-04
5.995814e-04
1.327119e-03
2.577722e-03
4.532750e-03
7.241207e-03
1.030190e-02
1.241613e-02
1.183626e-02
8.147459e-03
0.000000e+00
1.306798e-02
2.689730e-02
4.081281e-02
5.412643e-02
6.642056e-02
7.764620e-02
8.785825e-02
9.714527e-02
1.056150e-01
1.133780e-01
1.204919e-01
1.268330e-01
1.319178e-01
1.349090e-01
1.351463e-01
1.332740e-01
0.000000e+00
2.711019e-02
5.574231e-02
8.430412e-02
1.109639e-01
1.354437e-01
1.577336e-01
1.778790e-01
1.959215e-01
2.118932e-01
2.258081e-01
2.376321e-01
2.472293e-01
2.543248e-01
2.585837e-01
2.599666e-01
2.595300e-01
0.000000e+00
4.337319e-02
9.010108e-02
1.332550e-01
1.730129e-01
2.095125e-01
2.428001e-01
2.728635e-01
2.996567e-01
3.231025e-01
3.430895e-01
3.594797e-01
3.721420e-01
3.810343e-01
3.863388e-01
3.886008e-01
3.890163e-01
0.000000e+00
7.262967e-02
1.337580e-01
1.900276e-01
2.424543e-01
2.909161e-01
3.352697e-01
3.753863e-01
4.111316e-01
4.423199e-01
4.686809e-01
4.898629e-01
5.055182e-01
5.155236e-01
5.203623e-01
5.215567e-01
5.215336e-01
0.000000e+00
-4.394674e-02
-8.627254e-02
-1.411169e-01
-2.084271e-01
-2.880770e-01
-3.791945e-01
-4.807597e-01
-5.916927e-01
-7.109279e-01
-8.374809e-01
-9.705680e-01
-1.109869e+00
-1.256126e+00
-1.413135e+00
-1.592782e+00
-1.850903e+00
0.000000e+00
-2.705442e-02
-7.120718e-02
-1.267317e-01
-1.951419e-01
-2.758788e-01
-3.681001e-01
-4.707612e-01
-5.827694e-01
-7.030399e-01
-8.305611e-01
-9.645135e-01
-1.104527e+00
-1.251325e+00
-1.408272e+00
-1.586829e+00
-1.805580e+00
0.000000e+00
-2.041495e-02
-6.076311e-02
-1.164925e-01
-1.855495e-01
-2.671175e-01
-3.601865e-01
-4.637017e-01
-5.765782e-01
-6.977463e-01
-8.262141e-01
-9.611903e-01
-1.102339e+00
-1.250266e+00
-1.407349e+00
-1.576538e+00
-1.740277e+00
0.000000e+00
-1.759215e-02
-5.557038e-02
-1.104825e-01
-1.797891e-01
-2.618591e-01
-3.555084e-01
-4.596419e-01
-5.731952e-01
-6.951276e-01
-8.244686e-01
-9.604115e-01
-1.102462e+00
-1.250552e+00
-1.404492e+00
-1.559953e+00
-1.703168e+00
0.000000e+00
-1.677895e-02
-5.399881e-02
-1.085652e-01
-1.778907e-01
-2.601650e-01
-3.540835e-01
-4.585523e-01
-5.725270e-01
-6.949841e-01
-8.249314e-01
-9.614345e-01
-1.103611e+00
-1.250413e+00
-1.399642e+00
-1.546195e+00
-1.681207e+00
0.000000e+00
-1.758170e-02
-5.556295e-02
-1.104957e-01
-1.798541e-01
-2.620303e-01
-3.558744e-01
-4.603353e-01
-5.743905e-01
-6.970117e-01
-8.271422e-01
-9.636518e-01
-1.105220e+00
-1.250045e+00
-1.395344e+00
-1.536872e+00
-1.669002e+00
0.000000e+00
-2.039792e-02
-6.075080e-02
-1.165146e-01
-1.856590e-01
-2.674070e-01
-3.608071e-01
-4.648790e-01
-5.786106e-01
-7.009557e-01
-8.307866e-01
-9.667993e-01
-1.107355e+00
-1.250282e+00
-1.392765e+00
-1.531577e+00
-1.663619e+00
0.000000e+00
-2.703845e-02
-7.119646e-02
-1.267610e-01
-1.952733e-01
-2.762192e-01
-3.688226e-01
-4.721218e-01
-5.851040e-01
-7.067038e-01
-8.357473e-01
-9.708372e-01
-1.110195e+00
-1.251531e+00
-1.392119e+00
-1.529387e+00
-1.662356e+00
0.000000e+00
-4.394014e-02
-8.627347e-02
-1.411623e-01
-2.085794e-01
-2.884408e-01
-3.799337e-01
-4.821085e-01
-5.939415e-01
-7.143486e-01
-8.421276e-01
-9.758504e-01
-1.113726e+00
-1.253516e+00
-1.392668e+00
-1.528987e+00
-1.662375e+00


0.000000e+00
1.760988e-10
3.641967e-10
5.308293e-10
6.716037e-10
7.859548e-10
8.760212e-10
9.450537e-10
9.966970e-10
1.034316e-09
1.061117e-09
1.079923e-09
1.093331e-09
1.103749e-09
1.113437e-09
1.125377e-09
1.139703e-09
0.000000e+00
1.197731e-10
2.822516e-10
4.146360e-10
5.208310e-10
6.047591e-10
6.695306e-10
7.183750e-10
7.542261e-10
7.797422e-10
7.972509e-10
8.086167e-10
8.153340e-10
8.186410e-10
8.219935e-10
8.317602e-10
8.465097e-10
0.000000e+00
8.917672e-11
1.960500e-10
2.853506e-10
3.571204e-10
4.125238e-10
4.542674e-10
4.849231e-10
5.068096e-10
5.217426e-10
5.313009e-10
5.367087e-10
5.391215e-10
5.400505e-10
5.424050e-10
5.500535e-10
5.619921e-10
0.000000e+00
4.772715e-11
9.778710e-11
1.424569e-10
1.790060e-10
2.069450e-10
2.275815e-10
2.423905e-10
2.526163e-10
2.592297e-10
2.630693e-10
2.649046e-10
2.656497e-10
2.664744e-10
2.685369e-10
2.731890e-10
2.805451e-10
0.000000e+00
-4.410008e-14
-1.211938e-13
-2.263718e-13
-3.751462e-13
-5.957161e-13
-8.879600e-13
-1.318336e-12
-1.888430e-12
-2.609796e-12
-3.434815e-12
-4.146636e-12
-4.444052e-12
-3.964474e-12
-2.700026e-12
-4.600666e-13
3.370325e-12
0.000000e+00
-4.783986e-11
-9.801228e-11
-1.428526e-10
-1.796174e-10
-2.078786e-10
-2.289858e-10
-2.444475e-10
-2.555583e-10
-2.633108e-10
-2.684762e-10
-2.716602e-10
-2.732973e-10
-2.738426e-10
-2.738156e-10
-2.732620e-10
-2.716167e-10
0.000000e+00
-8.922042e-11
-1.961845e-10
-2.856078e-10
-3.575409e-10
-4.131385e-10
-4.550913e-10
-4.859922e-10
-5.081643e-10
-5.234560e-10
-5.335306e-10
-5.397312e-10
-5.432870e-10
-5.451962e-10
-5.462230e-10
-5.465769e-10
-5.461134e-10
0.000000e+00
-1.198180e-10
-2.823577e-10
-4.148238e-10
-5.210662e-10
-6.050342e-10
-6.698041e-10
-7.185502e-10
-7.541748e-10
-7.793201e-10
-7.963351e-10
-8.072905e-10
-8.139924e-10
-8.178815e-10
-8.200325e-10
-8.210115e-10
-8.211450e-10
0.000000e+00
-1.761855e-10
-3.643513e-10
-5.310054e-10
-6.717661e-10
-7.860430e-10
-8.758783e-10
-9.445322e-10
-9.955425e-10
-1.032241e-09
-1.057796e-09
-1.074861e-09
-1.085781e-09
-1.092315e-09
-1.095756e-09
-1.097085e-09
-1.097291e-09
0.000000e+00
1.599619e-10
2.875118e-10
4.213860e-10
5.821030e-10
7.713251e-10
9.851712e-10
1.218633e-09
1.466921e-09
1.726047e-09
1.992994e-09
2.265729e-09
2.543358e-09
2.827799e-09
3.126619e-09
3.443759e-09
3.765024e-09
0.000000e+00
8.599494e-11
2.106431e-10
3.534972e-10
5.264424e-10
7.273729e-10
9.515554e-10
1.193591e-09
1.448761e-09
1.713323e-09
1.984383e-09
2.260104e-09
2.539716e-09
2.824063e-09
3.116836e-09
3.425151e-09
3.741177e-09
0.000000e+00
4.240631e-11
1.502926e-10
3.004940e-10
4.833858e-10
6.940146e-10
9.264174e-10
1.175143e-09
1.435664e-09
1.704402e-09
1.978683e-09
2.256775e-09
2.537759e-09
2.821135e-09
3.107263e-09
3.405369e-09
3.712923e-09
0.000000e+00
2.412022e-11
1.218109e-10
2.727047e-10
4.608039e-10
6.767531e-10
9.136234e-10
1.165914e-09
1.429260e-09
1.700232e-09
1.976239e-09
2.255490e-09
2.536778e-09
2.818812e-09
3.101320e-09
3.391312e-09
3.688153e-09
0.000000e+00
1.948144e-11
1.140385e-10
2.642998e-10
4.538572e-10
6.715082e-10
9.098105e-10
1.163250e-09
1.427551e-09
1.699271e-09
1.975851e-09
2.255358e-09
2.536356e-09
2.817563e-09
3.098526e-09
3.383262e-09
3.670531e-09
0.000000e+00
2.416158e-11
1.218673e-10
2.727866e-10
4.609074e-10
6.769076e-10
9.138698e-10
1.166315e-09
1.429900e-09
1.701128e-09
1.977319e-09
2.256413e-09
2.536891e-09
2.817534e-09
3.097880e-09
3.379378e-09
3.660380e-09
0.000000e+00
4.246349e-11
1.503801e-10
3.006428e-10
4.835664e-10
6.943260e-10
9.269221e-10
1.175943e-09
1.436931e-09
1.706158e-09
1.980854e-09
2.258790e-09
2.538340e-09
2.818330e-09
3.098074e-09
3.377651e-09
3.655636e-09
0.000000e+00
8.609426e-11
2.107904e-10
3.537518e-10
5.267409e-10
7.278442e-10
9.522663e-10
1.194666e-09
1.450362e-09
1.715500e-09
1.987057e-09
2.262674e-09
2.540607e-09
2.819505e-09
3.098512e-09
3.376994e-09
3.654051e-09
0.000000e+00
1.600852e-10
2.877247e-10
4.217065e-10
5.825160e-10
7.718769e-10
9.859444e-10
1.219722e-09
1.468433e-09
1.728028e-09
1.995336e-09
2.267824e-09
2.543550e-09
2.821033e-09
3.099137e-09
3.376950e-09
3.653797e-09


2.121308e-01
2.121308e-01
2.121308e-01
2.121308e-01
2.121308e-01
2.121308e-01
2.121308e-01
2.121308e-01
2.121308e-01
2.121308e-01
2.121308e-01
2.121308e-01
2.121308e-01
2.121308e-01
2.121308e-01
2.121308e-01
2.121308e-01
2.121308e-01
2.121308e-01
2.121308e-01
2.121308e-01
2.121308e-01
2.121308e-01
2.121308e-01
2.121308e-01
2.121308e-01
2.121308e-01
2.121308e-01
2.121308e-01
2.121308e-01
2.121308e-01
2.121308e-01
2.121308e-01
2.121308e-01
2.121308e-01
2.121308e-01
2.121308e-01
2.121308e-01
2.121308e-01
2.121308e-01
2.121308e-01
2.121308e-01
2.121308e-01
2.121308e-01
2.121308e-01
2.121308e-01
2.121308e-01
2.121308e-01
2.121308e-01
2.121308e-01
2.121308e-01
2.121308e-01
2.121308e-01
2.121308e-01
2.121308e-01
2.121308e-01
2.121308e-01
2.121308e-01
2.121308e-01
2.121308e-01
2.121308e-01
2.121308e-01
2.121308e-01
2.121308e-01
2.121308e-01
2.121308e-01
2.121308e-01
2.121308e-01
2.121308e-01
2.121308e-01
2.121308e-01
2.121308e-01
2.121308e-01
2.121308e-01
2.121308e-01
2.121308e-01
2.121308e-01
2.121308e-01
2.121308e-01
2.121308e-01
2.121308e-01
2.121308e-01
2.121308e-01
2.121308e-01
2.121308e-01
2.121308e-01
2.121308e-01
2.121308e-01
2.121308e-01
2.121308e-01
2.121308e-01
2.121308e-01
2.121308e-01
2.121308e-01
2.121308e-01
2.121308e-01
2.121308e-01
2.121308e-01
2.121308e-01
2.121308e-01
2.121308e-01
2.121308e-01
2.121308e-01
2.121308e-01
2.121308e-01
2.121308e-01
2.121308e-01
2.121308e-01
2.121308e-01
2.121308e-01
2.121308e-01
2.121308e-01
2.121308e-01
2.121308e-01
2.121308e-01
2.121308e-01
2.121308e-01
2.121308e-01
2.121308e-01
2.121308e-01
2.121308e-01
2.121308e-01
2.121308e-01
2.121308e-01
2.121308e-01
2.121308e-01
2.121308e-01
2.121308e-01


9.881417e-01
9.898233e-01
9.913789e-01
9.925764e-01
9.936879e-01
9.947129e-01
9.956466e-01
9.964783e-01
9.971991e-01
9.978020e-01
9.982814e-01
9.986326e-01
9.988509e-01
9.989288e-01
9.989850e-01
9.955194e-01
9.955138e-01
9.947432e-01
9.952390e-01
9.958861e-01
9.964893e-01
9.970377e-01
9.975340e-01
9.979836e-01
9.983907e-01
9.987594e-01
9.990939e-01
9.993969e-01
9.996612e-01
9.998342e-01
9.993966e-01
9.934643e-01
9.984412e-01
9.979986e-01
9.978792e-01
9.980472e-01
9.982683e-01
9.984825e-01
9.986813e-01
9.988692e-01
9.990512e-01
9.992286e-01
9.993944e-01
9.995227e-01
9.995494e-01
9.993184e-01
9.984802e-01
9.969726e-01
9.996828e-01
9.993600e-01
9.991606e-01
9.991100e-01
9.991302e-01
9.991641e-01
9.991979e-01
9.992310e-01
9.992634e-01
9.992906e-01
9.992982e-01
9.992578e-01
9.991296e-01
9.988996e-01
9.987045e-01
9.986551e-01
9.996839e-01
9.993616e-01
9.991621e-01
9.991097e-01
9.991251e-01
9.991496e-01
9.991666e-01
9.991723e-01
9.991645e-01
9.991395e-01
9.990930e-01
9.990259e-01
9.989620e-01
9.989747e-01
9.991552e-01
9.994678e-01
9.984435e-01
9.980020e-01
9.978824e-01
9.980473e-01
9.982597e-01
9.984560e-01
9.986220e-01
9.987555e-01
9.988554e-01
9.989227e-01
9.989653e-01
9.990069e-01
9.990943e-01
9.992775e-01
9.995528e-01
9.998374e-01
9.955133e-01
9.947429e-01
9.952383e-01
9.958842e-01
9.964846e-01
9.970269e-01
9.975117e-01
9.979409e-01
9.983150e-01
9.986347e-01
9.989053e-01
9.991417e-01
9.993694e-01
9.996080e-01
9.998312e-01
9.999717e-01
9.881336e-01
9.898106e-01
9.913634e-01
9.925590e-01
9.936723e-01
9.947072e-01
9.956659e-01
9.965463e-01
9.973484e-01
9.980708e-01
9.987048e-01
9.992307e-01
9.996220e-01
9.998634e-01
9.999732e-01
9.999994e-01
1 2 19 18
2 3 20 19
3 4 21 20
4 5 22 21
5 6 23 22
6 7 24 23
7 8 25 24
8 9 26 25
9 10 27 26
10 11 28 27
11 12 29 28
12 13 30 29
13 14 31 30
14 15 32 31
15 16 33 32
16 17 34 33
18 19 36 35
19 20 37 36
20 21 38 37
21 22 39 38
22 23 40 39
23 24 41 40
24 25 42 41
25 26 43 42
26 27 44 43
27 28 45 44
28 29 46 45
29 30 47 46
30 31 48 47
31 32 49 48
32 33 50 49
33 34 51 50
35 36 53 52
36 37 54 53
37 38 55 54
38 39 56 55
39 40 57 56
40 41 58 57
41 42 59 58
42 43 60 59
43 44 61 60
44 45 62 61
45 46 63 62
46 47 64 63
47 48 65 64
48 49 66 65
49 50 67 66
50 51 68 67
52 53 70 69
53 54 71 70
54 55 72 71
55 56 73 72
56 57 74 73
57 58 75 74
58 59 76 75
59 60 77 76
60 61 78 77
61 62 79 78
62 63 80 79
63 64 81 80
64 65 82 81
65 66 83 82
66 67 84 83
67 68 85 84
69 70 87 86
70 71 88 87
71 72 89 88
72 73 90 89
73 74 91 90
74 75 92 91
75 76 93 92
76 77 94 93
77 78 95 94
78 79 96 95
79 80 97 96
80 81 98 97
81 82 99 98
82 83 100 99
83 84 101 100
84 85 102 101
86 87 104 103
87 88 105 104
88 89 106 105
89 90 107 106
90 91 108 107
91 92 109 108
92 93 110 109
93 94 111 110
94 95 112 111
95 96 113 112
96 97 114 113
97 98 115 114
98 99 116 115
99 100 117 116
100 101 118 117
101 102 119 118
103 104 121 120
104 105 122 121
105 106 123 122
106 107 124 123
107 108 125 124
108 109 126 125
109 110 127 126
110 111 128 127
111 112 129 128
112 113 130 129
113 114 131 130
114 115 132 131
115 116 133 132
116 117 134 133
117 118 135 134
118 119 136 135
120 121 138 137
121 122 139 138
122 123 140 139
123 124 141 140
124 125 142 141
125 126 143 142
126 127 144 143
127 128 145 144
128 129 146 145
129 130 147 146
130 131 148 147
131 132 149 148
132 133 150 149
133 134 151 150
134 135 152 151
135 136 153 152
