TITLE = "Solution"
VARIABLES = x, y, u, v, psiu, psiv, t, stress
ZONE T="structure" N=153 E=128 F=FEBLOCK ET=QUADRILATERAL VARLOCATION=([7,8]=cellcentered)
0.000000e+00
1.250000e+01
2.500000e+01
3.750000e+01
5.000000e+01
6.250000e+01
7.500000e+01
8.750000e+01
1.000000e+02
1.125000e+02
1.250000e+02
1.375000e+02
1.500000e+02
1.625000e+02
1.750000e+02
1.875000e+02
2.000000e+02
0.000000e+00
1.250000e+01
2.500000e+01
3.750000e+01
5.000000e+01
6.250000e+01
7.500000e+01
8.750000e+01
1.000000e+02
1.125000e+02
1.250000e+02
1.375000e+02
1.500000e+02
1.625000e+02
1.750000e+02
1.875000e+02
2.000000e+02
0.000000e+00
1.250000e+01
2.500000e+01
3.750000e+01
5.000000e+01
6.250000e+01
7.500000e+01
8.750000e+01
1.000000e+02
1.125000e+02
1.250000e+02
1.375000e+02
1.500000e+02
1.625000e+02
1.750000e+02
1.875000e+02
2.000000e+02
0.000000e+00
1.250000e+01
2.500000e+01
3.750000e+01
5.000000e+01
6.250000e+01
7.500000e+01
8.750000e+01
1.000000e+02
1.125000e+02
1.250000e+02
1.375000e+02
1.500000e+02
1.625000e+02
1.750000e+02
1.875000e+02
2.000000e+02
0.000000e+00
1.250000e+01
2.500000e+01
3.750000e+01
5.000000e+01
6.250000e+01
7.500000e+01
8.750000e+01
1.000000e+02
1.125000e+02
1.250000e+02
1.375000e+02
1.500000e+02
1.625000e+02
1.750000e+02
1.875000e+02
2.000000e+02
0.000000e+00
1.250000e+01
2.500000e+01
3.750000e+01
5.000000e+01
6.250000e+01
7.500000e+01
8.750000e+01
1.000000e+02
1.125000e+02
1.250000e+02
1.375000e+02
1.500000e+02
1.625000e+02
1.750000e+02
1.875000e+02
2.000000e+02
0.000000e+00
1.250000e+01
2.500000e+01
3.750000e+01
5.000000e+01
6.250000e+01
7.500000e+01
8.750000e+01
1.000000e+02
1.125000e+02
1.250000e+02
1.375000e+02
1.500000e+02
1.625000e+02
1.750000e+02
1.875000e+02
2.000000e+02
0.000000e+00
1.250000e+01
2.500000e+01
3.750000e+01
5.000000e+01
6.250000e+01
7.500000e+01
8.750000e+01
1.000000e+02
1.125000e+02
1.250000e+02
1.375000e+02
1.500000e+02
1.625000e+02
1.750000e+02
1.875000e+02
2.000000e+02
0.000000e+00
1.250000e+01
2.500000e+01
3.750000e+01
5.000000e+01
6.250000e+01
7.500000e+01
8.750000e+01
1.000000e+02
1.125000e+02
1.250000e+02
1.375000e+02
1.500000e+02
1.625000e+02
1.750000e+02
1.875000e+02
2.000000e+02
0.000000e+00
0.000000e+00
0.000000e+00
0.000000e+00
0.000000e+00
0.000000e+00
0.000000e+00
0.000000e+00
0.000000e+00
0.000000e+00
0.000000e+00
0.000000e+00
0.000000e+00
0.000000e+00
0.000000e+00
0.000000e+00
0.000000e+00
1.250000e+01
1.250000e+01
1.250000e+01
1.250000e+01
1.250000e+01
1.250000e+01
1.250000e+01
1.250000e+01
1.250000e+01
1.250000e+01
1.250000e+01
1.250000e+01
1.250000e+01
1.250000e+01
1.250000e+01
1.250000e+01
1.250000e+01
2.500000e+01
2.500000e+01
2.500000e+01
2.500000e+01
2.500000e+01
2.500000e+01
2.500000e+01
2.500000e+01
2.500000e+01
2.500000e+01
2.500000e+01
2.500000e+01
2.500000e+01
2.500000e+01
2.500000e+01
2.500000e+01
2.500000e+01
3.750000e+01
3.750000e+01
3.750000e+01
3.750000e+01
3.750000e+01
3.750000e+01
3.750000e+01
3.750000e+01
3.750000e+01
3.750000e+01
3.750000e+01
3.750000e+01
3.750000e+01
3.750000e+01
3.750000e+01
3.750000e+01
3.750000e+01
5.000000e+01
5.000000e+01
5.000000e+01
5.000000e+01
5.000000e+01
5.000000e+01
5.000000e+01
5.000000e+01
5.000000e+01
5.000000e+01
5.000000e+01
5.000000e+01
5.000000e+01
5.000000e+01
5.000000e+01
5.000000e+01
5.000000e+01
6.250000e+01
6.250000e+01
6.250000e+01
6.250000e+01
6.250000e+01
6.250000e+01
6.250000e+01
6.250000e+01
6.250000e+01
6.250000e+01
6.250000e+01
6.250000e+01
6.250000e+01
6.250000e+01
6.250000e+01
6.250000e+01
6.250000e+01
7.500000e+01
7.500000e+01
7.500000e+01
7.500000e+01
7.500000e+01
7.500000e+01
7.500000e+01
7.500000e+01
7.500000e+01
7.500000e+01
7.500000e+01
7.500000e+01
7.500000e+01
7.500000e+01
7.500000e+01
7.500000e+01
7.500000e+01
8.750000e+01
8.750000e+01
8.750000e+01
8.750000e+01
8.750000e+01
8.750000e+01
8.750000e+01
8.750000e+01
8.750000e+01
8.750000e+01
8.750000e+01
8.750000e+01
8.750000e+01
8.750000e+01
8.750000e+01
8.750000e+01
8.750000e+01
1.000000e+02
1.000000e+02
1.000000e+02
1.000000e+02
1.000000e+02
1.000000e+02
1.000000e+02
1.000000e+02
1.000000e+02
1.000000e+02
1.000000e+02
1.000000e+02
1.000000e+02
1.000000e+02
1.000000e+02
1.000000e+02
1.000000e+02
0.000000e+00
-7.130037e-02
-1.312866e-01
-1.864817e-01
-2.378837e-01
-2.853843e-01
-3.288814e-01
-3.683414e-01
-4.038217e-01
-4.354858e-01
-4.636474e-01
-4.888571e-01
-5.120616e-01
-5.348969e-01
-5.601839e-01
-5.912397e-01
-6.145436e-01
0.000000e+00
-4.257933e-02
-8.845027e-02
-1.308091e-01
-1.698347e-01
-2.056752e-01
-2.384052e-01
-2.680683e-01
-2.947182e-01
-3.184368e-01
-3.393446e-01
-3.575923e-01
-3.732963e-01
-3.862950e-01
-3.954637e-01
-3.974734e-01
-4.046784e-01
0.000000e+00
-2.662790e-02
-5.475362e-02
-8.281318e-02
-1.090059e-01
-1.330545e-01
-1.549394e-01
-1.746854e-01
-1.922974e-01
-2.077460e-01
-2.209480e-01
-2.317191e-01
-2.396753e-01
-2.441166e-01
-2.442399e-01
-2.424657e-01
-2.498142e-01
0.000000e+00
-1.285227e-02
-2.645812e-02
-4.014989e-02
-5.324170e-02
-6.530005e-02
-7.622977e-02
-8.599900e-02
-9.455183e-02
-1.017770e-01
-1.074898e-01
-1.114206e-01
-1.132477e-01
-1.128208e-01
-1.110671e-01
-1.115467e-01
-1.170184e-01
0.000000e+00
-1.183932e-05
-2.691450e-05
-4.194017e-05
-4.991455e-05
-3.522398e-05
3.312265e-05
2.107351e-04
5.888487e-04
1.303363e-03
2.531580e-03
4.451612e-03
7.111588e-03
1.011749e-02
1.219388e-02
1.162439e-02
8.001617e-03
0.000000e+00
1.283406e-02
2.641583e-02
4.008225e-02
5.315755e-02
6.523162e-02
7.625631e-02
8.628557e-02
9.540634e-02
1.037244e-01
1.113485e-01
1.183350e-01
1.245627e-01
1.295565e-01
1.324941e-01
1.327271e-01
1.308883e-01
0.000000e+00
2.662491e-02
5.474451e-02
8.279505e-02
1.089776e-01
1.330192e-01
1.549102e-01
1.746949e-01
1.924144e-01
2.081003e-01
2.217661e-01
2.333784e-01
2.428038e-01
2.497724e-01
2.539550e-01
2.553131e-01
2.548843e-01
0.000000e+00
4.259679e-02
8.848825e-02
1.308697e-01
1.699159e-01
2.057622e-01
2.384540e-01
2.679791e-01
2.942928e-01
3.173188e-01
3.369482e-01
3.530450e-01
3.654805e-01
3.742137e-01
3.794232e-01
3.816448e-01
3.820528e-01
0.000000e+00
7.132958e-02
1.313637e-01
1.866260e-01
2.381143e-01
2.857086e-01
3.292683e-01
3.686667e-01
4.037722e-01
4.344023e-01
4.602913e-01
4.810942e-01
4.964693e-01
5.062956e-01
5.110477e-01
5.122207e-01
5.121980e-01
0.000000e+00
-4.316008e-02
-8.472824e-02
-1.385909e-01
-2.046962e-01
-2.829203e-01
-3.724068e-01
-4.721540e-01
-5.811013e-01
-6.982021e-01
-8.224897e-01
-9.531946e-01
-1.090002e+00
-1.233641e+00
-1.387840e+00
-1.564271e+00
-1.817771e+00
0.000000e+00
-2.657013e-02
-6.993255e-02
-1.244631e-01
-1.916488e-01
-2.709405e-01
-3.615110e-01
-4.623344e-01
-5.723376e-01
-6.904553e-01
-8.156938e-01
-9.472485e-01
-1.084755e+00
-1.228926e+00
-1.383064e+00
-1.558425e+00
-1.773260e+00
0.000000e+00
-2.004952e-02
-5.967544e-02
-1.144073e-01
-1.822281e-01
-2.623360e-01
-3.537391e-01
-4.554013e-01
-5.662573e-01
-6.852565e-01
-8.114247e-01
-9.439847e-01
-1.082607e+00
-1.227886e+00
-1.382157e+00
-1.548317e+00
-1.709126e+00
0.000000e+00
-1.727724e-02
-5.457565e-02
-1.085048e-01
-1.765708e-01
-2.571718e-01
-3.491447e-01
-4.514142e-01
-5.629348e-01
-6.826847e-01
-8.097104e-01
-9.432199e-01
-1.082727e+00
-1.228167e+00
-1.379351e+00
-1.532029e+00
-1.672681e+00
0.000000e+00
-1.647860e-02
-5.303222e-02
-1.066218e-01
-1.747064e-01
-2.555080e-01
-3.477453e-01
-4.503441e-01
-5.622786e-01
-6.825437e-01
-8.101649e-01
-9.442246e-01
-1.083856e+00
-1.228030e+00
-1.374588e+00
-1.518518e+00
-1.651113e+00
0.000000e+00
-1.726699e-02
-5.456835e-02
-1.085178e-01
-1.766346e-01
-2.573399e-01
-3.495042e-01
-4.520951e-01
-5.641088e-01
-6.845350e-01
-8.123362e-01
-9.464022e-01
-1.085436e+00
-1.227669e+00
-1.370367e+00
-1.509362e+00
-1.639127e+00
0.000000e+00
-2.003279e-02
-5.966334e-02
-1.144290e-01
-1.823357e-01
-2.626204e-01
-3.543486e-01
-4.565575e-01
-5.682533e-01
-6.884084e-01
-8.159153e-01
-9.494933e-01
-1.087533e+00
-1.227902e+00
-1.367834e+00
-1.504161e+00
-1.633840e+00
0.000000e+00
-2.655445e-02
-6.992202e-02
-1.244919e-01
-1.917779e-01
-2.712748e-01
-3.622206e-01
-4.636707e-01
-5.746305e-01
-6.940537e-01
-8.207872e-01
-9.534590e-01
-1.090322e+00
-1.229128e+00
-1.367200e+00
-1.502011e+00
-1.632599e+00
0.000000e+00
-4.315360e-02
-8.472915e-02
-1.386354e-01
-2.048458e-01
-2.832777e-01
-3.731328e-01
-4.734786e-01
-5.833097e-01
-7.015615e-01
-8.270533e-01
-9.583824e-01
-1.093790e+00
-1.231078e+00
-1.367739e+00
-1.501617e+00
-1.632618e+00


0.000000e+00
5.216166e-11
1.078779e-10
1.572396e-10
1.989458e-10
2.328277e-10
2.595170e-10
2.799754e-10
2.952819e-10
3.064326e-10
3.143774e-10
3.199525e-10
3.239275e-10
3.270162e-10
3.298882e-10
3.334276e-10
3.376739e-10
0.000000e+00
3.547494e-11
8.360165e-11
1.228185e-10
1.542812e-10
1.791499e-10
1.983447e-10
2.128210e-10
2.234474e-10
2.310111e-10
2.362016e-10
2.395712e-10
2.415628e-10
2.425435e-10
2.435375e-10
2.464327e-10
2.508047e-10
0.000000e+00
2.641284e-11
5.806997e-11
8.452431e-11
1.057878e-10
1.222044e-10
1.345749e-10
1.436606e-10
1.501480e-10
1.545747e-10
1.574084e-10
1.590117e-10
1.597272e-10
1.600028e-10
1.607009e-10
1.629681e-10
1.665069e-10
0.000000e+00
1.413688e-11
2.896605e-11
4.219898e-11
5.302717e-11
6.130541e-11
6.742065e-11
7.180952e-11
7.484041e-11
7.680079e-11
7.793906e-11
7.848319e-11
7.870413e-11
7.894864e-11
7.956005e-11
8.093911e-11
8.311968e-11
0.000000e+00
-1.305543e-14
-3.589103e-14
-6.704935e-14
-1.111380e-13
-1.765052e-13
-2.631327e-13
-3.907078e-13
-5.597110e-13
-7.735688e-13
-1.018160e-12
-1.229214e-12
-1.317426e-12
-1.175315e-12
-8.005058e-13
-1.364625e-13
9.990523e-13
0.000000e+00
-1.417026e-11
-2.903273e-11
-4.231618e-11
-5.320830e-11
-6.158202e-11
-6.783677e-11
-7.241910e-11
-7.571235e-11
-7.801039e-11
-7.954171e-11
-8.048574e-11
-8.097119e-11
-8.113295e-11
-8.112499e-11
-8.096086e-11
-8.047310e-11
0.000000e+00
-2.642576e-11
-5.810978e-11
-8.460046e-11
-1.059123e-10
-1.223864e-10
-1.348189e-10
-1.439773e-10
-1.505494e-10
-1.550824e-10
-1.580692e-10
-1.599076e-10
-1.609619e-10
-1.615281e-10
-1.618325e-10
-1.619374e-10
-1.618000e-10
0.000000e+00
-3.548823e-11
-8.363303e-11
-1.228741e-10
-1.543508e-10
-1.792313e-10
-1.984255e-10
-2.128726e-10
-2.234319e-10
-2.308857e-10
-2.359299e-10
-2.391779e-10
-2.411649e-10
-2.423180e-10
-2.429558e-10
-2.432460e-10
-2.432856e-10
0.000000e+00
-5.218731e-11
-1.079236e-10
-1.572916e-10
-1.989938e-10
-2.328536e-10
-2.594744e-10
-2.798206e-10
-2.949394e-10
-3.058174e-10
-3.133928e-10
-3.184518e-10
-3.216893e-10
-3.236263e-10
-3.246465e-10
-3.250406e-10
-3.251017e-10
0.000000e+00
4.738209e-11
8.516762e-11
1.248286e-10
1.724419e-10
2.284999e-10
2.918534e-10
3.610192e-10
4.345785e-10
5.113497e-10
5.904391e-10
6.712439e-10
7.534998e-10
8.377751e-10
9.263127e-10
1.020280e-09
1.115470e-09
0.000000e+00
2.547374e-11
6.239833e-11
1.047171e-10
1.559509e-10
2.154763e-10
2.818915e-10
3.535972e-10
4.291958e-10
5.075778e-10
5.878864e-10
6.695764e-10
7.524200e-10
8.366675e-10
9.234127e-10
1.014764e-09
1.108402e-09
0.000000e+00
1.256275e-11
4.452114e-11
8.901468e-11
1.431937e-10
2.055914e-10
2.744417e-10
3.481295e-10
4.253136e-10
5.049334e-10
5.861965e-10
6.685895e-10
7.518397e-10
8.357995e-10
9.205748e-10
1.008901e-09
1.100027e-09
0.000000e+00
7.145466e-12
3.608335e-11
8.078161e-11
1.365028e-10
2.004764e-10
2.706501e-10
3.453943e-10
4.234153e-10
5.036972e-10
5.854720e-10
6.682084e-10
7.515490e-10
8.351109e-10
9.188131e-10
1.004734e-09
1.092685e-09
0.000000e+00
5.771008e-12
3.378061e-11
7.829157e-11
1.344447e-10
1.989223e-10
2.695202e-10
3.446046e-10
4.229087e-10
5.034125e-10
5.853570e-10
6.681693e-10
7.514238e-10
8.347404e-10
9.179847e-10
1.002348e-09
1.087461e-09
0.000000e+00
7.157727e-12
3.610010e-11
8.080592e-11
1.365335e-10
2.005222e-10
2.707232e-10
3.455130e-10
4.236050e-10
5.039629e-10
5.857922e-10
6.684820e-10
7.515824e-10
8.347318e-10
9.177933e-10
1.001196e-09
1.084451e-09
0.000000e+00
1.257969e-11
4.454709e-11
8.905881e-11
1.432473e-10
2.056838e-10
2.745913e-10
3.483666e-10
4.256892e-10
5.054541e-10
5.868401e-10
6.691869e-10
7.520123e-10
8.349680e-10
9.178508e-10
1.000684e-09
1.083045e-09
0.000000e+00
2.550316e-11
6.244201e-11
1.047925e-10
1.560393e-10
2.156160e-10
2.821022e-10
3.539160e-10
4.296703e-10
5.082232e-10
5.886790e-10
6.703384e-10
7.526843e-10
8.353163e-10
9.179806e-10
1.000489e-09
1.082575e-09
0.000000e+00
4.741859e-11
8.523070e-11
1.249235e-10
1.725642e-10
2.286634e-10
2.920826e-10
3.613418e-10
4.350268e-10
5.119369e-10
5.911333e-10
6.718651e-10
7.535568e-10
8.357693e-10
9.181658e-10
1.000476e-09
1.082500e-09


2.083336e-01
2.083336e-01
2.083336e-01
2.083336e-01
2.083336e-01
2.083336e-01
2.083336e-01
2.083336e-01
2.083336e-01
2.083336e-01
2.083336e-01
2.083336e-01
2.083336e-01
2.083336e-01
2.083336e-01
2.083336e-01
2.083336e-01
2.083336e-01
2.083336e-01
2.083336e-01
2.083336e-01
2.083336e-01
2.083336e-01
2.083336e-01
2.083336e-01
2.083336e-01
2.083336e-01
2.083336e-01
2.083336e-01
2.083336e-01
2.083336e-01
2.083336e-01
2.083336e-01
2.083336e-01
2.083336e-01
2.083336e-01
2.083336e-01
2.083336e-01
2.083336e-01
2.083336e-01
2.083336e-01
2.083336e-01
2.083336e-01
2.083336e-01
2.083336e-01
2.083336e-01
2.083336e-01
2.083336e-01
2.083336e-01
2.083336e-01
2.083336e-01
2.083336e-01
2.083336e-01
2.083336e-01
2.083336e-01
2.083336e-01
2.083336e-01
2.083336e-01
2.083336e-01
2.083336e-01
2.083336e-01
2.083336e-01
2.083336e-01
2.083336e-01
2.083336e-01
2.083336e-01
2.083336e-01
2.083336e-01
2.083336e-01
2.083336e-01
2.083336e-01
2.083336e-01
2.083336e-01
2.083336e-01
2.083336e-01
2.083336e-01
2.083336e-01
2.083336e-01
2.083336e-01
2.083336e-01
2.083336e-01
2.083336e-01
2.083336e-01
2.083336e-01
2.083336e-01
2.083336e-01
2.083336e-01
2.083336e-01
2.083336e-01
2.083336e-01
2.083336e-01
2.083336e-01
2.083336e-01
2.083336e-01
2.083336e-01
2.083336e-01
2.083336e-01
2.083336e-01
2.083336e-01
2.083336e-01
2.083336e-01
2.083336e-01
2.083336e-01
2.083336e-01
2.083336e-01
2.083336e-01
2.083336e-01
2.083336e-01
2.083336e-01
2.083336e-01
2.083336e-01
2.083336e-01
2.083336e-01
2.083336e-01
2.083336e-01
2.083336e-01
2.083336e-01
2.083336e-01
2.083336e-01
2.083336e-01
2.083336e-01
2.083336e-01
2.083336e-01
2.083336e-01
2.083336e-01
2.083336e-01
2.083336e-01
2.083336e-01


9.885624e-01
9.901844e-01
9.916848e-01
9.928398e-01
9.939119e-01
9.949005e-01
9.958011e-01
9.966033e-01
9.972985e-01
9.978800e-01
9.983424e-01
9.986811e-01
9.988917e-01
9.989668e-01
9.990210e-01
9.956784e-01
9.956729e-01
9.949297e-01
9.954079e-01
9.960320e-01
9.966139e-01
9.971428e-01
9.976215e-01
9.980551e-01
9.984478e-01
9.988034e-01
9.991261e-01
9.994183e-01
9.996732e-01
9.998401e-01
9.994180e-01
9.936962e-01
9.984965e-01
9.980696e-01
9.979544e-01
9.981165e-01
9.983298e-01
9.985363e-01
9.987281e-01
9.989093e-01
9.990849e-01
9.992560e-01
9.994158e-01
9.995396e-01
9.995654e-01
9.993426e-01
9.985341e-01
9.970800e-01
9.996940e-01
9.993827e-01
9.991903e-01
9.991415e-01
9.991610e-01
9.991937e-01
9.992264e-01
9.992583e-01
9.992896e-01
9.993158e-01
9.993231e-01
9.992841e-01
9.991605e-01
9.989386e-01
9.987505e-01
9.987028e-01
9.996952e-01
9.993843e-01
9.991918e-01
9.991412e-01
9.991562e-01
9.991798e-01
9.991961e-01
9.992016e-01
9.991941e-01
9.991700e-01
9.991251e-01
9.990604e-01
9.989989e-01
9.990111e-01
9.991852e-01
9.994866e-01
9.984987e-01
9.980729e-01
9.979575e-01
9.981166e-01
9.983215e-01
9.985108e-01
9.986709e-01
9.987996e-01
9.988960e-01
9.989610e-01
9.990020e-01
9.990421e-01
9.991264e-01
9.993032e-01
9.995686e-01
9.998431e-01
9.956725e-01
9.949294e-01
9.954072e-01
9.960302e-01
9.966093e-01
9.971324e-01
9.976000e-01
9.980140e-01
9.983747e-01
9.986831e-01
9.989442e-01
9.991722e-01
9.993917e-01
9.996219e-01
9.998372e-01
9.999727e-01
9.885546e-01
9.901721e-01
9.916698e-01
9.928230e-01
9.938968e-01
9.948950e-01
9.958197e-01
9.966688e-01
9.974425e-01
9.981392e-01
9.987507e-01
9.992580e-01
9.996354e-01
9.998683e-01
9.999742e-01
9.999995e-01
1 2 19 18
2 3 20 19
3 4 21 20
4 5 22 21
5 6 23 22
6 7 24 23
7 8 25 24
8 9 26 25
9 10 27 26
10 11 28 27
11 12 29 28
12 13 30 29
13 14 31 30
14 15 32 31
15 16 33 32
16 17 34 33
18 19 36 35
19 20 37 36
20 21 38 37
21 22 39 38
22 23 40 39
23 24 41 40
24 25 42 41
25 26 43 42
26 27 44 43
27 28 45 44
28 29 46 45
29 30 47 46
30 31 48 47
31 32 49 48
32 33 50 49
33 34 51 50
35 36 53 52
36 37 54 53
37 38 55 54
38 39 56 55
39 40 57 56
40 41 58 57
41 42 59 58
42 43 60 59
43 44 61 60
44 45 62 61
45 46 63 62
46 47 64 63
47 48 65 64
48 49 66 65
49 50 67 66
50 51 68 67
52 53 70 69
53 54 71 70
54 55 72 71
55 56 73 72
56 57 74 73
57 58 75 74
58 59 76 75
59 60 77 76
60 61 78 77
61 62 79 78
62 63 80 79
63 64 81 80
64 65 82 81
65 66 83 82
66 67 84 83
67 68 85 84
69 70 87 86
70 71 88 87
71 72 89 88
72 73 90 89
73 74 91 90
74 75 92 91
75 76 93 92
76 77 94 93
77 78 95 94
78 79 96 95
79 80 97 96
80 81 98 97
81 82 99 98
82 83 100 99
83 84 101 100
84 85 102 101
86 87 104 103
87 88 105 104
88 89 106 105
89 90 107 106
90 91 108 107
91 92 109 108
92 93 110 109
93 94 111 110
94 95 112 111
95 96 113 112
96 97 114 113
97 98 115 114
98 99 116 115
99 100 117 116
100 101 118 117
101 102 119 118
103 104 121 120
104 105 122 121
105 106 123 122
106 107 124 123
107 108 125 124
108 109 126 125
109 110 127 126
110 111 128 127
111 112 129 128
112 113 130 129
113 114 131 130
114 115 132 131
115 116 133 132
116 117 134 133
117 118 135 134
118 119 136 135
120 121 138 137
121 122 139 138
122 123 140 139
123 124 141 140
124 125 142 141
125 126 143 142
126 127 144 143
127 128 145 144
128 129 146 145
129 130 147 146
130 131 148 147
131 132 149 148
132 133 150 149
133 134 151 150
134 135 152 151
135 136 153 152
