TITLE = "Solution"
VARIABLES = x, y, u, v, psiu, psiv, t, stress
ZONE T="structure" N=153 E=128 F=FEBLOCK ET=QUADRILATERAL VARLOCATION=([7,8]=cellcentered)
0.000000e+00
1.250000e+01
2.500000e+01
3.750000e+01
5.000000e+01
6.250000e+01
7.500000e+01
8.750000e+01
1.000000e+02
1.125000e+02
1.250000e+02
1.375000e+02
1.500000e+02
1.625000e+02
1.750000e+02
1.875000e+02
2.000000e+02
0.000000e+00
1.250000e+01
2.500000e+01
3.750000e+01
5.000000e+01
6.250000e+01
7.500000e+01
8.750000e+01
1.000000e+02
1.125000e+02
1.250000e+02
1.375000e+02
1.500000e+02
1.625000e+02
1.750000e+02
1.875000e+02
2.000000e+02
0.000000e+00
1.250000e+01
2.500000e+01
3.750000e+01
5.000000e+01
6.250000e+01
7.500000e+01
8.750000e+01
1.000000e+02
1.125000e+02
1.250000e+02
1.375000e+02
1.500000e+02
1.625000e+02
1.750000e+02
1.875000e+02
2.000000e+02
0.000000e+00
1.250000e+01
2.500000e+01
3.750000e+01
5.000000e+01
6.250000e+01
7.500000e+01
8.750000e+01
1.000000e+02
1.125000e+02
1.250000e+02
1.375000e+02
1.500000e+02
1.625000e+02
1.750000e+02
1.875000e+02
2.000000e+02
0.000000e+00
1.250000e+01
2.500000e+01
3.750000e+01
5.000000e+01
6.250000e+01
7.500000e+01
8.750000e+01
1.000000e+02
1.125000e+02
1.250000e+02
1.375000e+02
1.500000e+02
1.625000e+02
1.750000e+02
1.875000e+02
2.000000e+02
0.000000e+00
1.250000e+01
2.500000e+01
3.750000e+01
5.000000e+01
6.250000e+01
7.500000e+01
8.750000e+01
1.000000e+02
1.125000e+02
1.250000e+02
1.375000e+02
1.500000e+02
1.625000e+02
1.750000e+02
1.875000e+02
2.000000e+02
0.000000e+00
1.250000e+01
2.500000e+01
3.750000e+01
5.000000e+01
6.250000e+01
7.500000e+01
8.750000e+01
1.000000e+02
1.125000e+02
1.250000e+02
1.375000e+02
1.500000e+02
1.625000e+02
1.750000e+02
1.875000e+02
2.000000e+02
0.000000e+00
1.250000e+01
2.500000e+01
3.750000e+01
5.000000e+01
6.250000e+01
7.500000e+01
8.750000e+01
1.000000e+02
1.125000e+02
1.250000e+02
1.375000e+02
1.500000e+02
1.625000e+02
1.750000e+02
1.875000e+02
2.000000e+02
0.000000e+00
1.250000e+01
2.500000e+01
3.750000e+01
5.000000e+01
6.250000e+01
7.500000e+01
8.750000e+01
1.000000e+02
1.125000e+02
1.250000e+02
1.375000e+02
1.500000e+02
1.625000e+02
1.750000e+02
1.875000e+02
2.000000e+02
0.000000e+00
0.000000e+00
0.000000e+00
0.000000e+00
0.000000e+00
0.000000e+00
0.000000e+00
0.000000e+00
0.000000e+00
0.000000e+00
0.000000e+00
0.000000e+00
0.000000e+00
0.000000e+00
0.000000e+00
0.000000e+00
0.000000e+00
1.250000e+01
1.250000e+01
1.250000e+01
1.250000e+01
1.250000e+01
1.250000e+01
1.250000e+01
1.250000e+01
1.250000e+01
1.250000e+01
1.250000e+01
1.250000e+01
1.250000e+01
1.250000e+01
1.250000e+01
1.250000e+01
1.250000e+01
2.500000e+01
2.500000e+01
2.500000e+01
2.500000e+01
2.500000e+01
2.500000e+01
2.500000e+01
2.500000e+01
2.500000e+01
2.500000e+01
2.500000e+01
2.500000e+01
2.500000e+01
2.500000e+01
2.500000e+01
2.500000e+01
2.500000e+01
3.750000e+01
3.750000e+01
3.750000e+01
3.750000e+01
3.750000e+01
3.750000e+01
3.750000e+01
3.750000e+01
3.750000e+01
3.750000e+01
3.750000e+01
3.750000e+01
3.750000e+01
3.750000e+01
3.750000e+01
3.750000e+01
3.750000e+01
5.000000e+01
5.000000e+01
5.000000e+01
5.000000e+01
5.000000e+01
5.000000e+01
5.000000e+01
5.000000e+01
5.000000e+01
5.000000e+01
5.000000e+01
5.000000e+01
5.000000e+01
5.000000e+01
5.000000e+01
5.000000e+01
5.000000e+01
6.250000e+01
6.250000e+01
6.250000e+01
6.250000e+01
6.250000e+01
6.250000e+01
6.250000e+01
6.250000e+01
6.250000e+01
6.250000e+01
6.250000e+01
6.250000e+01
6.250000e+01
6.250000e+01
6.250000e+01
6.250000e+01
6.250000e+01
7.500000e+01
7.500000e+01
7.500000e+01
7.500000e+01
7.500000e+01
7.500000e+01
7.500000e+01
7.500000e+01
7.500000e+01
7.500000e+01
7.500000e+01
7.500000e+01
7.500000e+01
7.500000e+01
7.500000e+01
7.500000e+01
7.500000e+01
8.750000e+01
8.750000e+01
8.750000e+01
8.750000e+01
8.750000e+01
8.750000e+01
8.750000e+01
8.750000e+01
8.750000e+01
8.750000e+01
8.750000e+01
8.750000e+01
8.750000e+01
8.750000e+01
8.750000e+01
8.750000e+01
8.750000e+01
1.000000e+02
1.000000e+02
1.000000e+02
1.000000e+02
1.000000e+02
1.000000e+02
1.000000e+02
1.000000e+02
1.000000e+02
1.000000e+02
1.000000e+02
1.000000e+02
1.000000e+02
1.000000e+02
1.000000e+02
1.000000e+02
1.000000e+02
0.000000e+00
-7.668585e-02
-1.412030e-01
-2.005671e-01
-2.558516e-01
-3.069400e-01
-3.537226e-01
-3.961631e-01
-4.343233e-01
-4.683790e-01
-4.986678e-01
-5.257816e-01
-5.507388e-01
-5.752989e-01
-6.024960e-01
-6.358974e-01
-6.609616e-01
0.000000e+00
-4.579544e-02
-9.513111e-02
-1.406895e-01
-1.826627e-01
-2.212103e-01
-2.564124e-01
-2.883161e-01
-3.169789e-01
-3.424891e-01
-3.649761e-01
-3.846021e-01
-4.014923e-01
-4.154728e-01
-4.253340e-01
-4.274955e-01
-4.352447e-01
0.000000e+00
-2.863917e-02
-5.888928e-02
-8.906825e-02
-1.172394e-01
-1.431044e-01
-1.666423e-01
-1.878798e-01
-2.068220e-01
-2.234375e-01
-2.376367e-01
-2.492214e-01
-2.577786e-01
-2.625553e-01
-2.626879e-01
-2.607797e-01
-2.686833e-01
0.000000e+00
-1.382303e-02
-2.845656e-02
-4.318250e-02
-5.726316e-02
-7.023231e-02
-8.198757e-02
-9.249470e-02
-1.016935e-01
-1.094644e-01
-1.156087e-01
-1.198365e-01
-1.218015e-01
-1.213424e-01
-1.194563e-01
-1.199721e-01
-1.258571e-01
0.000000e+00
-1.273358e-05
-2.894743e-05
-4.510803e-05
-5.368474e-05
-3.788456e-05
3.562446e-05
2.266524e-04
6.333259e-04
1.401810e-03
2.722797e-03
4.787854e-03
7.648744e-03
1.088169e-02
1.311491e-02
1.250241e-02
8.606000e-03
0.000000e+00
1.380344e-02
2.841108e-02
4.310975e-02
5.717266e-02
7.015871e-02
8.201613e-02
9.280292e-02
1.026126e-01
1.115590e-01
1.197589e-01
1.272732e-01
1.339712e-01
1.393422e-01
1.425017e-01
1.427523e-01
1.407746e-01
0.000000e+00
2.863595e-02
5.887948e-02
8.904875e-02
1.172089e-01
1.430665e-01
1.666109e-01
1.878900e-01
2.069479e-01
2.238186e-01
2.385166e-01
2.510060e-01
2.611434e-01
2.686382e-01
2.731368e-01
2.745975e-01
2.741363e-01
0.000000e+00
4.581422e-02
9.517196e-02
1.407546e-01
1.827500e-01
2.213039e-01
2.564649e-01
2.882202e-01
3.165214e-01
3.412867e-01
3.623986e-01
3.797113e-01
3.930861e-01
4.024789e-01
4.080819e-01
4.104713e-01
4.109102e-01
0.000000e+00
7.671727e-02
1.412858e-01
2.007223e-01
2.560996e-01
3.072888e-01
3.541387e-01
3.965130e-01
4.342701e-01
4.672137e-01
4.950582e-01
5.174324e-01
5.339687e-01
5.445373e-01
5.496483e-01
5.509099e-01
5.508856e-01
0.000000e+00
-4.642006e-02
-9.112796e-02
-1.490590e-01
-2.201573e-01
-3.042900e-01
-4.005355e-01
-5.078169e-01
-6.249932e-01
-7.509390e-01
-8.846143e-01
-1.025192e+00
-1.172332e+00
-1.326821e+00
-1.492666e+00
-1.682424e+00
-1.955072e+00
0.000000e+00
-2.857704e-02
-7.521471e-02
-1.338641e-01
-2.061245e-01
-2.914052e-01
-3.888168e-01
-4.972556e-01
-6.155676e-01
-7.426070e-01
-8.773051e-01
-1.018796e+00
-1.166689e+00
-1.321749e+00
-1.487530e+00
-1.676136e+00
-1.907198e+00
0.000000e+00
-2.156391e-02
-6.418286e-02
-1.230487e-01
-1.959923e-01
-2.821509e-01
-3.804578e-01
-4.897989e-01
-6.090280e-01
-7.370155e-01
-8.727135e-01
-1.015286e+00
-1.164379e+00
-1.320631e+00
-1.486555e+00
-1.665266e+00
-1.838220e+00
0.000000e+00
-1.858223e-02
-5.869787e-02
-1.167004e-01
-1.899076e-01
-2.765966e-01
-3.755164e-01
-4.855106e-01
-6.054546e-01
-7.342494e-01
-8.708697e-01
-1.014463e+00
-1.164508e+00
-1.320933e+00
-1.483537e+00
-1.647747e+00
-1.799023e+00
0.000000e+00
-1.772327e-02
-5.703786e-02
-1.146752e-01
-1.879024e-01
-2.748071e-01
-3.740113e-01
-4.843596e-01
-6.047488e-01
-7.340978e-01
-8.713585e-01
-1.015544e+00
-1.165722e+00
-1.320786e+00
-1.478414e+00
-1.633215e+00
-1.775826e+00
0.000000e+00
-1.857120e-02
-5.869003e-02
-1.167144e-01
-1.899763e-01
-2.767773e-01
-3.759030e-01
-4.862429e-01
-6.067172e-01
-7.362395e-01
-8.736938e-01
-1.017886e+00
-1.167422e+00
-1.320397e+00
-1.473874e+00
-1.623367e+00
-1.762934e+00
0.000000e+00
-2.154591e-02
-6.416985e-02
-1.230720e-01
-1.961079e-01
-2.824567e-01
-3.811134e-01
-4.910424e-01
-6.111748e-01
-7.404055e-01
-8.775433e-01
-1.021211e+00
-1.169677e+00
-1.320648e+00
-1.471150e+00
-1.617774e+00
-1.757248e+00
0.000000e+00
-2.856017e-02
-7.520339e-02
-1.338951e-01
-2.062633e-01
-2.917649e-01
-3.895799e-01
-4.986928e-01
-6.180337e-01
-7.464771e-01
-8.827832e-01
-1.025476e+00
-1.172677e+00
-1.321967e+00
-1.470467e+00
-1.615461e+00
-1.755913e+00
0.000000e+00
-4.641309e-02
-9.112893e-02
-1.491069e-01
-2.203182e-01
-3.046743e-01
-4.013164e-01
-5.092416e-01
-6.273685e-01
-7.545521e-01
-8.895226e-01
-1.030771e+00
-1.176407e+00
-1.324064e+00
-1.471047e+00
-1.615038e+00
-1.755934e+00


0.000000e+00
5.585142e-10
1.154966e-09
1.683180e-09
2.129152e-09
2.491370e-09
2.776478e-09
2.995099e-09
3.158529e-09
3.277641e-09
3.362415e-09
3.421845e-09
3.464158e-09
3.496995e-09
3.527548e-09
3.565284e-09
3.610607e-09
0.000000e+00
3.799229e-10
8.951806e-10
1.314851e-09
1.651315e-09
1.917102e-09
2.122202e-09
2.276780e-09
2.390251e-09
2.471010e-09
2.526344e-09
2.562295e-09
2.583425e-09
2.593822e-09
2.604363e-09
2.635222e-09
2.681887e-09
0.000000e+00
2.828328e-10
6.217051e-10
9.048117e-10
1.132220e-09
1.307752e-09
1.439845e-09
1.536906e-09
1.606105e-09
1.653373e-09
1.683579e-09
1.700711e-09
1.708335e-09
1.711287e-09
1.718719e-09
1.742931e-09
1.780721e-09
0.000000e+00
1.513803e-10
3.100787e-10
4.516870e-10
5.674970e-10
6.560062e-10
7.213549e-10
7.682595e-10
8.006302e-10
8.215851e-10
8.337358e-10
8.395570e-10
8.419218e-10
8.445201e-10
8.510654e-10
8.657796e-10
8.890342e-10
0.000000e+00
-1.649449e-13
-3.875656e-13
-6.971508e-13
-1.143124e-12
-1.792061e-12
-2.730623e-12
-4.058334e-12
-5.860968e-12
-8.143515e-12
-1.070524e-11
-1.295660e-11
-1.383338e-11
-1.229018e-11
-8.265503e-12
-1.172353e-12
1.094568e-11
0.000000e+00
-1.516634e-10
-3.107339e-10
-4.528620e-10
-5.693996e-10
-6.589359e-10
-7.257303e-10
-7.746420e-10
-8.097248e-10
-8.341758e-10
-8.504743e-10
-8.604897e-10
-8.656508e-10
-8.673615e-10
-8.672738e-10
-8.655205e-10
-8.603423e-10
0.000000e+00
-2.829779e-10
-6.221044e-10
-9.055519e-10
-1.133400e-09
-1.309479e-09
-1.442227e-09
-1.540053e-09
-1.610151e-09
-1.658551e-09
-1.690356e-09
-1.709954e-09
-1.721135e-09
-1.727126e-09
-1.730344e-09
-1.731444e-09
-1.729986e-09
0.000000e+00
-3.799735e-10
-8.954321e-10
-1.315297e-09
-1.651937e-09
-1.917834e-09
-2.122881e-09
-2.277113e-09
-2.389813e-09
-2.469327e-09
-2.523096e-09
-2.557707e-09
-2.578834e-09
-2.591104e-09
-2.597862e-09
-2.600938e-09
-2.601368e-09
0.000000e+00
-5.587581e-10
-1.155364e-09
-1.683623e-09
-2.129507e-09
-2.491401e-09
-2.775808e-09
-2.993176e-09
-3.154620e-09
-3.270839e-09
-3.351621e-09
-3.405590e-09
-3.439994e-09
-3.460553e-09
-3.471406e-09
-3.475560e-09
-3.476278e-09
0.000000e+00
5.075436e-10
9.121215e-10
1.336594e-09
1.846052e-09
2.445663e-09
3.123267e-09
3.863027e-09
4.649750e-09
5.470898e-09
6.316850e-09
7.181011e-09
8.060708e-09
8.961692e-09
9.908181e-09
1.091267e-08
1.193004e-08
0.000000e+00
2.729419e-10
6.683091e-10
1.121426e-09
1.669581e-09
2.306468e-09
3.016830e-09
3.783724e-09
4.592321e-09
5.430617e-09
6.289600e-09
7.163267e-09
8.049136e-09
8.949922e-09
9.877222e-09
1.085376e-08
1.185465e-08
0.000000e+00
1.346806e-10
4.769560e-10
9.533590e-10
1.533196e-09
2.200789e-09
2.937211e-09
3.725322e-09
4.550833e-09
5.402394e-09
6.271562e-09
7.152741e-09
8.042981e-09
8.940688e-09
9.846945e-09
1.079119e-08
1.176524e-08
0.000000e+00
7.673538e-11
3.866730e-10
8.652722e-10
1.461615e-09
2.146101e-09
2.896698e-09
3.696123e-09
4.530585e-09
5.389204e-09
6.263801e-09
7.148657e-09
8.039814e-09
8.933311e-09
9.828158e-09
1.074672e-08
1.168700e-08
0.000000e+00
6.202969e-11
3.620639e-10
8.386046e-10
1.439607e-09
2.129449e-09
2.884597e-09
3.687682e-09
4.525114e-09
5.386148e-09
6.262537e-09
7.148192e-09
8.038482e-09
8.929326e-09
9.819329e-09
1.072131e-08
1.163132e-08
0.000000e+00
7.683916e-11
3.868170e-10
8.654671e-10
1.461891e-09
2.146540e-09
2.897444e-09
3.697381e-09
4.532572e-09
5.392024e-09
6.267180e-09
7.151536e-09
8.040147e-09
8.929242e-09
9.817320e-09
1.070905e-08
1.159927e-08
0.000000e+00
1.348445e-10
4.772158e-10
9.537436e-10
1.533764e-09
2.201701e-09
2.938733e-09
3.727831e-09
4.554732e-09
5.407914e-09
6.278330e-09
7.159029e-09
8.044765e-09
8.931752e-09
9.817960e-09
1.070362e-08
1.158430e-08
0.000000e+00
2.731715e-10
6.687388e-10
1.122063e-09
1.670502e-09
2.307858e-09
3.018986e-09
3.787056e-09
4.597266e-09
5.437441e-09
6.297953e-09
7.171336e-09
8.051908e-09
8.935504e-09
9.819343e-09
1.070156e-08
1.157930e-08
0.000000e+00
5.079096e-10
9.127515e-10
1.337478e-09
1.847259e-09
2.447333e-09
3.125633e-09
3.866397e-09
4.654449e-09
5.477088e-09
6.324132e-09
7.187576e-09
8.061203e-09
8.940281e-09
9.821299e-09
1.070141e-08
1.157854e-08


2.240695e-01
2.240695e-01
2.240695e-01
2.240695e-01
2.240696e-01
2.240696e-01
2.240696e-01
2.240696e-01
2.240696e-01
2.240696e-01
2.240696e-01
2.240696e-01
2.240696e-01
2.240696e-01
2.240696e-01
2.240696e-01
2.240695e-01
2.240695e-01
2.240695e-01
2.240696e-01
2.240696e-01
2.240696e-01
2.240696e-01
2.240696e-01
2.240696e-01
2.240696e-01
2.240696e-01
2.240696e-01
2.240696e-01
2.240696e-01
2.240696e-01
2.240696e-01
2.240696e-01
2.240696e-01
2.240696e-01
2.240696e-01
2.240696e-01
2.240696e-01
2.240696e-01
2.240696e-01
2.240696e-01
2.240696e-01
2.240696e-01
2.240696e-01
2.240696e-01
2.240696e-01
2.240696e-01
2.240696e-01
2.240696e-01
2.240696e-01
2.240696e-01
2.240696e-01
2.240696e-01
2.240696e-01
2.240696e-01
2.240696e-01
2.240696e-01
2.240696e-01
2.240696e-01
2.240696e-01
2.240696e-01
2.240696e-01
2.240696e-01
2.240696e-01
2.240696e-01
2.240696e-01
2.240696e-01
2.240696e-01
2.240696e-01
2.240696e-01
2.240696e-01
2.240696e-01
2.240696e-01
2.240696e-01
2.240696e-01
2.240696e-01
2.240696e-01
2.240696e-01
2.240696e-01
2.240696e-01
2.240696e-01
2.240696e-01
2.240696e-01
2.240696e-01
2.240696e-01
2.240696e-01
2.240696e-01
2.240696e-01
2.240696e-01
2.240696e-01
2.240696e-01
2.240696e-01
2.240696e-01
2.240696e-01
2.240696e-01
2.240696e-01
2.240695e-01
2.240695e-01
2.240695e-01
2.240696e-01
2.240696e-01
2.240696e-01
2.240696e-01
2.240696e-01
2.240696e-01
2.240696e-01
2.240696e-01
2.240696e-01
2.240696e-01
2.240696e-01
2.240696e-01
2.240696e-01
2.240695e-01
2.240695e-01
2.240695e-01
2.240695e-01
2.240696e-01
2.240696e-01
2.240696e-01
2.240696e-01
2.240696e-01
2.240696e-01
2.240696e-01
2.240696e-01
2.240696e-01
2.240696e-01
2.240696e-01
2.240696e-01


9.867694e-01
9.886456e-01
9.903812e-01
9.917173e-01
9.929574e-01
9.941010e-01
9.951428e-01
9.960708e-01
9.968750e-01
9.975477e-01
9.980825e-01
9.984743e-01
9.987179e-01
9.988048e-01
9.988675e-01
9.950009e-01
9.949946e-01
9.941348e-01
9.946880e-01
9.954100e-01
9.960831e-01
9.966948e-01
9.972486e-01
9.977502e-01
9.982044e-01
9.986158e-01
9.989891e-01
9.993271e-01
9.996220e-01
9.998151e-01
9.993268e-01
9.927079e-01
9.982608e-01
9.977670e-01
9.976337e-01
9.978213e-01
9.980679e-01
9.983069e-01
9.985287e-01
9.987383e-01
9.989414e-01
9.991394e-01
9.993243e-01
9.994674e-01
9.994973e-01
9.992395e-01
9.983043e-01
9.966222e-01
9.996461e-01
9.992859e-01
9.990634e-01
9.990070e-01
9.990295e-01
9.990673e-01
9.991051e-01
9.991420e-01
9.991782e-01
9.992085e-01
9.992170e-01
9.991719e-01
9.990289e-01
9.987722e-01
9.985546e-01
9.984995e-01
9.996474e-01
9.992878e-01
9.990651e-01
9.990066e-01
9.990239e-01
9.990512e-01
9.990701e-01
9.990765e-01
9.990678e-01
9.990399e-01
9.989880e-01
9.989132e-01
9.988419e-01
9.988561e-01
9.990575e-01
9.994062e-01
9.982633e-01
9.977708e-01
9.976373e-01
9.978213e-01
9.980584e-01
9.982773e-01
9.984626e-01
9.986115e-01
9.987230e-01
9.987981e-01
9.988456e-01
9.988920e-01
9.989895e-01
9.991939e-01
9.995010e-01
9.998185e-01
9.949941e-01
9.941345e-01
9.946872e-01
9.954079e-01
9.960778e-01
9.966828e-01
9.972237e-01
9.977026e-01
9.981200e-01
9.984767e-01
9.987787e-01
9.990424e-01
9.992964e-01
9.995627e-01
9.998117e-01
9.999685e-01
9.867603e-01
9.886314e-01
9.903639e-01
9.916978e-01
9.929400e-01
9.940947e-01
9.951644e-01
9.961466e-01
9.970416e-01
9.978475e-01
9.985549e-01
9.991417e-01
9.995783e-01
9.998476e-01
9.999701e-01
9.999994e-01
1 2 19 18
2 3 20 19
3 4 21 20
4 5 22 21
5 6 23 22
6 7 24 23
7 8 25 24
8 9 26 25
9 10 27 26
10 11 28 27
11 12 29 28
12 13 30 29
13 14 31 30
14 15 32 31
15 16 33 32
16 17 34 33
18 19 36 35
19 20 37 36
20 21 38 37
21 22 39 38
22 23 40 39
23 24 41 40
24 25 42 41
25 26 43 42
26 27 44 43
27 28 45 44
28 29 46 45
29 30 47 46
30 31 48 47
31 32 49 48
32 33 50 49
33 34 51 50
35 36 53 52
36 37 54 53
37 38 55 54
38 39 56 55
39 40 57 56
40 41 58 57
41 42 59 58
42 43 60 59
43 44 61 60
44 45 62 61
45 46 63 62
46 47 64 63
47 48 65 64
48 49 66 65
49 50 67 66
50 51 68 67
52 53 70 69
53 54 71 70
54 55 72 71
55 56 73 72
56 57 74 73
57 58 75 74
58 59 76 75
59 60 77 76
60 61 78 77
61 62 79 78
62 63 80 79
63 64 81 80
64 65 82 81
65 66 83 82
66 67 84 83
67 68 85 84
69 70 87 86
70 71 88 87
71 72 89 88
72 73 90 89
73 74 91 90
74 75 92 91
75 76 93 92
76 77 94 93
77 78 95 94
78 79 96 95
79 80 97 96
80 81 98 97
81 82 99 98
82 83 100 99
83 84 101 100
84 85 102 101
86 87 104 103
87 88 105 104
88 89 106 105
89 90 107 106
90 91 108 107
91 92 109 108
92 93 110 109
93 94 111 110
94 95 112 111
95 96 113 112
96 97 114 113
97 98 115 114
98 99 116 115
99 100 117 116
100 101 118 117
101 102 119 118
103 104 121 120
104 105 122 121
105 106 123 122
106 107 124 123
107 108 125 124
108 109 126 125
109 110 127 126
110 111 128 127
111 112 129 128
112 113 130 129
113 114 131 130
114 115 132 131
115 116 133 132
116 117 134 133
117 118 135 134
118 119 136 135
120 121 138 137
121 122 139 138
122 123 140 139
123 124 141 140
124 125 142 141
125 126 143 142
126 127 144 143
127 128 145 144
128 129 146 145
129 130 147 146
130 131 148 147
131 132 149 148
132 133 150 149
133 134 151 150
134 135 152 151
135 136 153 152
