TITLE = "Solution"
VARIABLES = x, y, u, v, psiu, psiv, t, stress
ZONE T="structure" N=153 E=128 F=FEBLOCK ET=QUADRILATERAL VARLOCATION=([7,8]=cellcentered)
0.000000e+00
1.250000e+01
2.500000e+01
3.750000e+01
5.000000e+01
6.250000e+01
7.500000e+01
8.750000e+01
1.000000e+02
1.125000e+02
1.250000e+02
1.375000e+02
1.500000e+02
1.625000e+02
1.750000e+02
1.875000e+02
2.000000e+02
0.000000e+00
1.250000e+01
2.500000e+01
3.750000e+01
5.000000e+01
6.250000e+01
7.500000e+01
8.750000e+01
1.000000e+02
1.125000e+02
1.250000e+02
1.375000e+02
1.500000e+02
1.625000e+02
1.750000e+02
1.875000e+02
2.000000e+02
0.000000e+00
1.250000e+01
2.500000e+01
3.750000e+01
5.000000e+01
6.250000e+01
7.500000e+01
8.750000e+01
1.000000e+02
1.125000e+02
1.250000e+02
1.375000e+02
1.500000e+02
1.625000e+02
1.750000e+02
1.875000e+02
2.000000e+02
0.000000e+00
1.250000e+01
2.500000e+01
3.750000e+01
5.000000e+01
6.250000e+01
7.500000e+01
8.750000e+01
1.000000e+02
1.125000e+02
1.250000e+02
1.375000e+02
1.500000e+02
1.625000e+02
1.750000e+02
1.875000e+02
2.000000e+02
0.000000e+00
1.250000e+01
2.500000e+01
3.750000e+01
5.000000e+01
6.250000e+01
7.500000e+01
8.750000e+01
1.000000e+02
1.125000e+02
1.250000e+02
1.375000e+02
1.500000e+02
1.625000e+02
1.750000e+02
1.875000e+02
2.000000e+02
0.000000e+00
1.250000e+01
2.500000e+01
3.750000e+01
5.000000e+01
6.250000e+01
7.500000e+01
8.750000e+01
1.000000e+02
1.125000e+02
1.250000e+02
1.375000e+02
1.500000e+02
1.625000e+02
1.750000e+02
1.875000e+02
2.000000e+02
0.000000e+00
1.250000e+01
2.500000e+01
3.750000e+01
5.000000e+01
6.250000e+01
7.500000e+01
8.750000e+01
1.000000e+02
1.125000e+02
1.250000e+02
1.375000e+02
1.500000e+02
1.625000e+02
1.750000e+02
1.875000e+02
2.000000e+02
0.000000e+00
1.250000e+01
2.500000e+01
3.750000e+01
5.000000e+01
6.250000e+01
7.500000e+01
8.750000e+01
1.000000e+02
1.125000e+02
1.250000e+02
1.375000e+02
1.500000e+02
1.625000e+02
1.750000e+02
1.875000e+02
2.000000e+02
0.000000e+00
1.250000e+01
2.500000e+01
3.750000e+01
5.000000e+01
6.250000e+01
7.500000e+01
8.750000e+01
1.000000e+02
1.125000e+02
1.250000e+02
1.375000e+02
1.500000e+02
1.625000e+02
1.750000e+02
1.875000e+02
2.000000e+02
0.000000e+00
0.000000e+00
0.000000e+00
0.000000e+00
0.000000e+00
0.000000e+00
0.000000e+00
0.000000e+00
0.000000e+00
0.000000e+00
0.000000e+00
0.000000e+00
0.000000e+00
0.000000e+00
0.000000e+00
0.000000e+00
0.000000e+00
1.250000e+01
1.250000e+01
1.250000e+01
1.250000e+01
1.250000e+01
1.250000e+01
1.250000e+01
1.250000e+01
1.250000e+01
1.250000e+01
1.250000e+01
1.250000e+01
1.250000e+01
1.250000e+01
1.250000e+01
1.250000e+01
1.250000e+01
2.500000e+01
2.500000e+01
2.500000e+01
2.500000e+01
2.500000e+01
2.500000e+01
2.500000e+01
2.500000e+01
2.500000e+01
2.500000e+01
2.500000e+01
2.500000e+01
2.500000e+01
2.500000e+01
2.500000e+01
2.500000e+01
2.500000e+01
3.750000e+01
3.750000e+01
3.750000e+01
3.750000e+01
3.750000e+01
3.750000e+01
3.750000e+01
3.750000e+01
3.750000e+01
3.750000e+01
3.750000e+01
3.750000e+01
3.750000e+01
3.750000e+01
3.750000e+01
3.750000e+01
3.750000e+01
5.000000e+01
5.000000e+01
5.000000e+01
5.000000e+01
5.000000e+01
5.000000e+01
5.000000e+01
5.000000e+01
5.000000e+01
5.000000e+01
5.000000e+01
5.000000e+01
5.000000e+01
5.000000e+01
5.000000e+01
5.000000e+01
5.000000e+01
6.250000e+01
6.250000e+01
6.250000e+01
6.250000e+01
6.250000e+01
6.250000e+01
6.250000e+01
6.250000e+01
6.250000e+01
6.250000e+01
6.250000e+01
6.250000e+01
6.250000e+01
6.250000e+01
6.250000e+01
6.250000e+01
6.250000e+01
7.500000e+01
7.500000e+01
7.500000e+01
7.500000e+01
7.500000e+01
7.500000e+01
7.500000e+01
7.500000e+01
7.500000e+01
7.500000e+01
7.500000e+01
7.500000e+01
7.500000e+01
7.500000e+01
7.500000e+01
7.500000e+01
7.500000e+01
8.750000e+01
8.750000e+01
8.750000e+01
8.750000e+01
8.750000e+01
8.750000e+01
8.750000e+01
8.750000e+01
8.750000e+01
8.750000e+01
8.750000e+01
8.750000e+01
8.750000e+01
8.750000e+01
8.750000e+01
8.750000e+01
8.750000e+01
1.000000e+02
1.000000e+02
1.000000e+02
1.000000e+02
1.000000e+02
1.000000e+02
1.000000e+02
1.000000e+02
1.000000e+02
1.000000e+02
1.000000e+02
1.000000e+02
1.000000e+02
1.000000e+02
1.000000e+02
1.000000e+02
1.000000e+02
0.000000e+00
-9.434236e-01
-1.634791e+00
-2.353006e+00
-3.035757e+00
-3.689953e+00
-4.371107e+00
-5.033217e+00
-5.687199e+00
-6.353091e+00
-7.011412e+00
-7.673384e+00
-8.390260e+00
-9.166341e+00
-9.976886e+00
-1.069571e+01
-1.114750e+01
0.000000e+00
-4.471293e-01
-9.255071e-01
-1.430250e+00
-1.945029e+00
-2.433423e+00
-2.943187e+00
-3.444622e+00
-3.937168e+00
-4.439271e+00
-4.934421e+00
-5.423694e+00
-5.928105e+00
-6.428367e+00
-6.810471e+00
-6.909596e+00
-7.082052e+00
0.000000e+00
-1.822052e-01
-4.142947e-01
-7.169470e-01
-1.056155e+00
-1.385775e+00
-1.734124e+00
-2.079285e+00
-2.420328e+00
-2.763976e+00
-3.096589e+00
-3.408382e+00
-3.684716e+00
-3.888320e+00
-3.958421e+00
-3.941424e+00
-4.093003e+00
0.000000e+00
-8.419921e-02
-1.788337e-01
-3.212597e-01
-4.711480e-01
-6.408400e-01
-8.134741e-01
-9.840030e-01
-1.153896e+00
-1.316657e+00
-1.465172e+00
-1.583629e+00
-1.648604e+00
-1.640759e+00
-1.573335e+00
-1.565653e+00
-1.693272e+00
0.000000e+00
-2.010888e-03
-4.089822e-03
-5.820023e-03
-6.939485e-03
-6.512463e-03
-3.207957e-03
4.520269e-03
1.945623e-02
4.489336e-02
8.485709e-02
1.476596e-01
2.399245e-01
3.572000e-01
4.629988e-01
4.816294e-01
3.780527e-01
0.000000e+00
8.058273e-02
1.720194e-01
3.111623e-01
4.587800e-01
6.286925e-01
8.058864e-01
9.889555e-01
1.184460e+00
1.390798e+00
1.609970e+00
1.835606e+00
2.051177e+00
2.237735e+00
2.363146e+00
2.389342e+00
2.325708e+00
0.000000e+00
1.805858e-01
4.112060e-01
7.118937e-01
1.049218e+00
1.378395e+00
1.727088e+00
2.077017e+00
2.430653e+00
2.794184e+00
3.161584e+00
3.526248e+00
3.854392e+00
4.110409e+00
4.272446e+00
4.327240e+00
4.309891e+00
0.000000e+00
4.471383e-01
9.259284e-01
1.429601e+00
1.943294e+00
2.431797e+00
2.937540e+00
3.434635e+00
3.923223e+00
4.408746e+00
4.885818e+00
5.357712e+00
5.785218e+00
6.109284e+00
6.310834e+00
6.398616e+00
6.414451e+00
0.000000e+00
9.444710e-01
1.638097e+00
2.357124e+00
3.040963e+00
3.698344e+00
4.376574e+00
5.032176e+00
5.676738e+00
6.307146e+00
6.916771e+00
7.512216e+00
8.033285e+00
8.398024e+00
8.585556e+00
8.635291e+00
8.635361e+00
0.000000e+00
-5.877655e-01
-1.275189e+00
-2.191997e+00
-3.278517e+00
-4.533749e+00
-5.969739e+00
-7.571343e+00
-9.344765e+00
-1.129338e+01
-1.340845e+01
-1.569659e+01
-1.817887e+01
-2.086795e+01
-2.379264e+01
-2.714986e+01
-3.213240e+01
0.000000e+00
-3.864148e-01
-1.106850e+00
-2.009691e+00
-3.106207e+00
-4.358917e+00
-5.793213e+00
-7.399284e+00
-9.171813e+00
-1.112085e+01
-1.323937e+01
-1.552485e+01
-1.799845e+01
-2.069449e+01
-2.366656e+01
-2.705640e+01
-3.112175e+01
0.000000e+00
-3.490297e-01
-1.004362e+00
-1.899828e+00
-2.985055e+00
-4.235377e+00
-5.669384e+00
-7.275574e+00
-9.050364e+00
-1.100367e+01
-1.313058e+01
-1.542831e+01
-1.791656e+01
-2.063963e+01
-2.365900e+01
-2.689133e+01
-2.990565e+01
0.000000e+00
-3.864604e-01
-9.895670e-01
-1.859892e+00
-2.918912e+00
-4.167433e+00
-5.599897e+00
-7.205935e+00
-8.987150e+00
-1.094819e+01
-1.309057e+01
-1.541379e+01
-1.792372e+01
-2.064543e+01
-2.360277e+01
-2.657255e+01
-2.914477e+01
0.000000e+00
-3.965826e-01
-9.999724e-01
-1.847461e+00
-2.904075e+00
-4.149992e+00
-5.584048e+00
-7.194562e+00
-8.982879e+00
-1.095285e+01
-1.310881e+01
-1.545199e+01
-1.796767e+01
-2.064955e+01
-2.346466e+01
-2.621488e+01
-2.854251e+01
0.000000e+00
-3.858583e-01
-9.902559e-01
-1.862842e+00
-2.925223e+00
-4.180093e+00
-5.620567e+00
-7.236902e+00
-9.033546e+00
-1.100898e+01
-1.316747e+01
-1.551234e+01
-1.801669e+01
-2.064353e+01
-2.332720e+01
-2.590498e+01
-2.812125e+01
0.000000e+00
-3.484067e-01
-1.005725e+00
-1.904702e+00
-2.995490e+00
-4.256255e+00
-5.703821e+00
-7.327801e+00
-9.128193e+00
-1.110588e+01
-1.325770e+01
-1.559000e+01
-1.807523e+01
-2.065210e+01
-2.323913e+01
-2.570769e+01
-2.791509e+01
0.000000e+00
-3.859643e-01
-1.108268e+00
-2.014878e+00
-3.117803e+00
-4.381677e+00
-5.831612e+00
-7.458264e+00
-9.258468e+00
-1.123534e+01
-1.338093e+01
-1.569875e+01
-1.816166e+01
-2.069668e+01
-2.321718e+01
-2.562263e+01
-2.786306e+01
0.000000e+00
-5.877630e-01
-1.276873e+00
-2.197223e+00
-3.290689e+00
-4.556713e+00
-6.007510e+00
-7.629918e+00
-9.428206e+00
-1.140062e+01
-1.354184e+01
-1.584904e+01
-1.828207e+01
-2.077118e+01
-2.323974e+01
-2.560721e+01
-2.786290e+01


0.000000e+00
1.436694e-05
2.463425e-05
3.685948e-05
5.179959e-05
6.507196e-05
7.904797e-05
9.341132e-05
1.070364e-04
1.212770e-04
1.353719e-04
1.496515e-04
1.640902e-04
1.738611e-04
1.790889e-04
1.831104e-04
1.884775e-04
0.000000e+00
1.052059e-05
1.959882e-05
2.857463e-05
4.074638e-05
5.116290e-05
6.122446e-05
7.213998e-05
8.234401e-05
9.245960e-05
1.023268e-04
1.120429e-04
1.208737e-04
1.247401e-04
1.243962e-04
1.276302e-04
1.329372e-04
0.000000e+00
8.636158e-06
1.498200e-05
2.094673e-05
2.956734e-05
3.645904e-05
4.291654e-05
5.004781e-05
5.635719e-05
6.225909e-05
6.754820e-05
7.205695e-05
7.515800e-05
7.513706e-05
7.450480e-05
7.713044e-05
8.180478e-05
0.000000e+00
4.669668e-06
7.088475e-06
1.080148e-05
1.473266e-05
1.769870e-05
2.117186e-05
2.427581e-05
2.682585e-05
2.911557e-05
3.033446e-05
3.029482e-05
2.928706e-05
2.840753e-05
2.924670e-05
3.267518e-05
3.778254e-05
0.000000e+00
-5.179436e-08
-1.316877e-07
-2.388208e-07
-3.540965e-07
-5.133494e-07
-7.300872e-07
-9.948976e-07
-1.420977e-06
-2.173843e-06
-3.523843e-06
-5.483003e-06
-7.906393e-06
-9.529453e-06
-8.775606e-06
-6.266167e-06
-2.908951e-06
0.000000e+00
-4.757506e-06
-7.308327e-06
-1.115035e-05
-1.532801e-05
-1.858218e-05
-2.229621e-05
-2.581416e-05
-2.882788e-05
-3.158261e-05
-3.401414e-05
-3.624225e-05
-3.860610e-05
-4.056799e-05
-4.196647e-05
-4.242785e-05
-4.162672e-05
0.000000e+00
-8.708014e-06
-1.503777e-05
-2.101955e-05
-2.989368e-05
-3.696278e-05
-4.349155e-05
-5.087513e-05
-5.702320e-05
-6.248477e-05
-6.758540e-05
-7.092420e-05
-7.309965e-05
-7.527093e-05
-7.729259e-05
-7.889644e-05
-7.940710e-05
0.000000e+00
-1.058017e-05
-1.957289e-05
-2.842775e-05
-4.075551e-05
-5.121804e-05
-6.113747e-05
-7.225125e-05
-8.225309e-05
-9.206667e-05
-1.021794e-04
-1.099884e-04
-1.142165e-04
-1.168823e-04
-1.184351e-04
-1.190948e-04
-1.193243e-04
0.000000e+00
-1.444032e-05
-2.462363e-05
-3.663542e-05
-5.154710e-05
-6.470725e-05
-7.826734e-05
-9.255818e-05
-1.060825e-04
-1.201658e-04
-1.355442e-04
-1.486444e-04
-1.571947e-04
-1.609697e-04
-1.616575e-04
-1.612172e-04
-1.609582e-04
0.000000e+00
1.203723e-05
1.978347e-05
3.153315e-05
4.654263e-05
6.314553e-05
8.430294e-05
1.093806e-04
1.377223e-04
1.704202e-04
2.071476e-04
2.484109e-04
2.938126e-04
3.419722e-04
3.979307e-04
4.616657e-04
5.265826e-04
0.000000e+00
7.032186e-06
1.551143e-05
2.555208e-05
4.023936e-05
5.735705e-05
7.816003e-05
1.032883e-04
1.318092e-04
1.644501e-04
2.013079e-04
2.425906e-04
2.891644e-04
3.397359e-04
3.943007e-04
4.552639e-04
5.176195e-04
0.000000e+00
3.616075e-06
1.141037e-05
2.086884e-05
3.495390e-05
5.264628e-05
7.361179e-05
9.863354e-05
1.275518e-04
1.604397e-04
1.973679e-04
2.390158e-04
2.865258e-04
3.390635e-04
3.906214e-04
4.476280e-04
5.074948e-04
0.000000e+00
2.373179e-06
9.279916e-06
1.885771e-05
3.279922e-05
5.063717e-05
7.180411e-05
9.697091e-05
1.260769e-04
1.591752e-04
1.963551e-04
2.376670e-04
2.858037e-04
3.383729e-04
3.879889e-04
4.393906e-04
4.940621e-04
0.000000e+00
1.987363e-06
8.708564e-06
1.830323e-05
3.225670e-05
5.004888e-05
7.126655e-05
9.652138e-05
1.257215e-04
1.589254e-04
1.962317e-04
2.376148e-04
2.857866e-04
3.389267e-04
3.871980e-04
4.331659e-04
4.811095e-04
0.000000e+00
2.447021e-06
9.400898e-06
1.892350e-05
3.283630e-05
5.066870e-05
7.169984e-05
9.681017e-05
1.259210e-04
1.589755e-04
1.967220e-04
2.390094e-04
2.874556e-04
3.394824e-04
3.879444e-04
4.314616e-04
4.734503e-04
0.000000e+00
3.731646e-06
1.158816e-05
2.098085e-05
3.504928e-05
5.267490e-05
7.339906e-05
9.831030e-05
1.270292e-04
1.599572e-04
1.983104e-04
2.418514e-04
2.900563e-04
3.402561e-04
3.876129e-04
4.307246e-04
4.713292e-04
0.000000e+00
7.138309e-06
1.567287e-05
2.571028e-05
4.040069e-05
5.740857e-05
7.795932e-05
1.028634e-04
1.310722e-04
1.638262e-04
2.022573e-04
2.455356e-04
2.922913e-04
3.408064e-04
3.870687e-04
4.303149e-04
4.715987e-04
0.000000e+00
1.214291e-05
1.989287e-05
3.169672e-05
4.677306e-05
6.317872e-05
8.411592e-05
1.090236e-04
1.369182e-04
1.699020e-04
2.081780e-04
2.495938e-04
2.943739e-04
3.411880e-04
3.869210e-04
4.301079e-04
4.718538e-04


3.681854e+00
3.608189e+00
3.676176e+00
3.441819e+00
3.314712e+00
3.511193e+00
3.649035e+00
3.913686e+00
4.336987e+00
4.782770e+00
5.512586e+00
6.685400e+00
7.745425e+00
8.033576e+00
7.100930e+00
5.961509e+00
5.858715e+00
5.764996e+00
5.721426e+00
5.563959e+00
5.432717e+00
5.541862e+00
5.619505e+00
5.768542e+00
6.033159e+00
6.298894e+00
6.719528e+00
7.377535e+00
7.980210e+00
7.874236e+00
6.557470e+00
4.988629e+00
7.953951e+00
7.893640e+00
7.860893e+00
7.740072e+00
7.685509e+00
7.715889e+00
7.716573e+00
7.751054e+00
7.823789e+00
7.871675e+00
7.894963e+00
7.951529e+00
7.991310e+00
7.655947e+00
6.363525e+00
4.997887e+00
8.718653e+00
8.695138e+00
8.677830e+00
8.623105e+00
8.604201e+00
8.597838e+00
8.576013e+00
8.550715e+00
8.507294e+00
8.400209e+00
8.136681e+00
7.728459e+00
7.464640e+00
7.321492e+00
6.861495e+00
6.287820e+00
8.714515e+00
8.692263e+00
8.674661e+00
8.614837e+00
8.592203e+00
8.579087e+00
8.545472e+00
8.501675e+00
8.420018e+00
8.230831e+00
7.845379e+00
7.289317e+00
7.008454e+00
7.238608e+00
7.542760e+00
7.608414e+00
7.932267e+00
7.880399e+00
7.845969e+00
7.709913e+00
7.635789e+00
7.641253e+00
7.611697e+00
7.599908e+00
7.556144e+00
7.479126e+00
7.383929e+00
7.215417e+00
7.262876e+00
7.690134e+00
8.179864e+00
8.407224e+00
5.822497e+00
5.741235e+00
5.697805e+00
5.520670e+00
5.366383e+00
5.442569e+00
5.501485e+00
5.608007e+00
5.778903e+00
6.127325e+00
6.751970e+00
7.379113e+00
7.843044e+00
8.282550e+00
8.608925e+00
8.753734e+00
3.649571e+00
3.586629e+00
3.653278e+00
3.411903e+00
3.273563e+00
3.448395e+00
3.596519e+00
3.874917e+00
4.285741e+00
5.053812e+00
6.317154e+00
7.487004e+00
8.190406e+00
8.581562e+00
8.786440e+00
8.867269e+00


-6.964954e-01
-2.164604e-01
-3.090770e-01
-2.582440e-01
-1.491543e-01
-2.461656e-01
-1.932563e-01
-1.621772e-01
-2.073346e-01
-1.798513e-01
-1.761229e-01
-3.158346e-01
-4.188306e-01
-2.153171e-01
4.084122e-01
-8.104376e-01
5.868342e-01
4.367652e-01
3.133473e-01
2.425573e-01
2.932539e-01
2.171720e-01
2.204158e-01
2.252098e-01
1.865998e-01
2.024853e-01
2.446694e-01
2.919626e-01
4.276668e-01
6.912218e-01
7.226448e-01
-1.107837e+00
7.815985e-01
5.792530e-01
3.380074e-01
2.744726e-01
2.574135e-01
2.095187e-01
2.179603e-01
2.248387e-01
2.248841e-01
2.574168e-01
3.219153e-01
4.033964e-01
4.465294e-01
2.995240e-01
7.852481e-02
-2.529006e-01
8.037466e-01
6.430716e-01
4.001434e-01
2.909041e-01
2.226742e-01
1.942710e-01
2.008106e-01
2.140999e-01
2.308108e-01
2.460455e-01
2.527605e-01
2.300400e-01
9.599069e-02
-2.104851e-01
-2.415499e-01
-2.045672e-02
8.053311e-01
6.445825e-01
4.023682e-01
2.913538e-01
2.171512e-01
1.798392e-01
1.721124e-01
1.616239e-01
1.532272e-01
1.312389e-01
8.200098e-02
2.105062e-02
-8.747341e-02
-2.065095e-01
-6.364017e-02
3.633798e-01
7.854990e-01
5.835768e-01
3.443497e-01
2.784236e-01
2.494549e-01
1.860539e-01
1.635808e-01
1.161180e-01
5.535790e-02
-1.244058e-02
-9.749601e-02
-1.174058e-01
-6.546199e-02
6.663987e-02
3.683102e-01
7.658048e-01
5.894915e-01
4.385552e-01
3.175232e-01
2.452024e-01
2.880308e-01
2.098300e-01
1.935555e-01
1.617358e-01
9.275149e-02
2.374295e-02
-6.688222e-02
-3.275549e-02
1.746050e-01
4.478468e-01
7.460256e-01
9.558262e-01
-6.984409e-01
-2.218297e-01
-3.086474e-01
-2.587410e-01
-1.562638e-01
-2.339240e-01
-1.756817e-01
-1.428312e-01
-1.190822e-01
-7.817959e-02
-6.346790e-02
1.269565e-01
4.978683e-01
8.007144e-01
9.579131e-01
9.989854e-01
1 2 19 18
2 3 20 19
3 4 21 20
4 5 22 21
5 6 23 22
6 7 24 23
7 8 25 24
8 9 26 25
9 10 27 26
10 11 28 27
11 12 29 28
12 13 30 29
13 14 31 30
14 15 32 31
15 16 33 32
16 17 34 33
18 19 36 35
19 20 37 36
20 21 38 37
21 22 39 38
22 23 40 39
23 24 41 40
24 25 42 41
25 26 43 42
26 27 44 43
27 28 45 44
28 29 46 45
29 30 47 46
30 31 48 47
31 32 49 48
32 33 50 49
33 34 51 50
35 36 53 52
36 37 54 53
37 38 55 54
38 39 56 55
39 40 57 56
40 41 58 57
41 42 59 58
42 43 60 59
43 44 61 60
44 45 62 61
45 46 63 62
46 47 64 63
47 48 65 64
48 49 66 65
49 50 67 66
50 51 68 67
52 53 70 69
53 54 71 70
54 55 72 71
55 56 73 72
56 57 74 73
57 58 75 74
58 59 76 75
59 60 77 76
60 61 78 77
61 62 79 78
62 63 80 79
63 64 81 80
64 65 82 81
65 66 83 82
66 67 84 83
67 68 85 84
69 70 87 86
70 71 88 87
71 72 89 88
72 73 90 89
73 74 91 90
74 75 92 91
75 76 93 92
76 77 94 93
77 78 95 94
78 79 96 95
79 80 97 96
80 81 98 97
81 82 99 98
82 83 100 99
83 84 101 100
84 85 102 101
86 87 104 103
87 88 105 104
88 89 106 105
89 90 107 106
90 91 108 107
91 92 109 108
92 93 110 109
93 94 111 110
94 95 112 111
95 96 113 112
96 97 114 113
97 98 115 114
98 99 116 115
99 100 117 116
100 101 118 117
101 102 119 118
103 104 121 120
104 105 122 121
105 106 123 122
106 107 124 123
107 108 125 124
108 109 126 125
109 110 127 126
110 111 128 127
111 112 129 128
112 113 130 129
113 114 131 130
114 115 132 131
115 116 133 132
116 117 134 133
117 118 135 134
118 119 136 135
120 121 138 137
121 122 139 138
122 123 140 139
123 124 141 140
124 125 142 141
125 126 143 142
126 127 144 143
127 128 145 144
128 129 146 145
129 130 147 146
130 131 148 147
131 132 149 148
132 133 150 149
133 134 151 150
134 135 152 151
135 136 153 152
