TITLE = "Solution"
VARIABLES = x, y, u, v, psiu, psiv, t, stress
ZONE T="structure" N=561 E=512 F=FEBLOCK ET=QUADRILATERAL VARLOCATION=([7,8]=cellcentered)
0.000000e+00
6.250000e+00
1.250000e+01
1.875000e+01
2.500000e+01
3.125000e+01
3.750000e+01
4.375000e+01
5.000000e+01
5.625000e+01
6.250000e+01
6.875000e+01
7.500000e+01
8.125000e+01
8.750000e+01
9.375000e+01
1.000000e+02
1.062500e+02
1.125000e+02
1.187500e+02
1.250000e+02
1.312500e+02
1.375000e+02
1.437500e+02
1.500000e+02
1.562500e+02
1.625000e+02
1.687500e+02
1.750000e+02
1.812500e+02
1.875000e+02
1.937500e+02
2.000000e+02
0.000000e+00
6.250000e+00
1.250000e+01
1.875000e+01
2.500000e+01
3.125000e+01
3.750000e+01
4.375000e+01
5.000000e+01
5.625000e+01
6.250000e+01
6.875000e+01
7.500000e+01
8.125000e+01
8.750000e+01
9.375000e+01
1.000000e+02
1.062500e+02
1.125000e+02
1.187500e+02
1.250000e+02
1.312500e+02
1.375000e+02
1.437500e+02
1.500000e+02
1.562500e+02
1.625000e+02
1.687500e+02
1.750000e+02
1.812500e+02
1.875000e+02
1.937500e+02
2.000000e+02
0.000000e+00
6.250000e+00
1.250000e+01
1.875000e+01
2.500000e+01
3.125000e+01
3.750000e+01
4.375000e+01
5.000000e+01
5.625000e+01
6.250000e+01
6.875000e+01
7.500000e+01
8.125000e+01
8.750000e+01
9.375000e+01
1.000000e+02
1.062500e+02
1.125000e+02
1.187500e+02
1.250000e+02
1.312500e+02
1.375000e+02
1.437500e+02
1.500000e+02
1.562500e+02
1.625000e+02
1.687500e+02
1.750000e+02
1.812500e+02
1.875000e+02
1.937500e+02
2.000000e+02
0.000000e+00
6.250000e+00
1.250000e+01
1.875000e+01
2.500000e+01
3.125000e+01
3.750000e+01
4.375000e+01
5.000000e+01
5.625000e+01
6.250000e+01
6.875000e+01
7.500000e+01
8.125000e+01
8.750000e+01
9.375000e+01
1.000000e+02
1.062500e+02
1.125000e+02
1.187500e+02
1.250000e+02
1.312500e+02
1.375000e+02
1.437500e+02
1.500000e+02
1.562500e+02
1.625000e+02
1.687500e+02
1.750000e+02
1.812500e+02
1.875000e+02
1.937500e+02
2.000000e+02
0.000000e+00
6.250000e+00
1.250000e+01
1.875000e+01
2.500000e+01
3.125000e+01
3.750000e+01
4.375000e+01
5.000000e+01
5.625000e+01
6.250000e+01
6.875000e+01
7.500000e+01
8.125000e+01
8.750000e+01
9.375000e+01
1.000000e+02
1.062500e+02
1.125000e+02
1.187500e+02
1.250000e+02
1.312500e+02
1.375000e+02
1.437500e+02
1.500000e+02
1.562500e+02
1.625000e+02
1.687500e+02
1.750000e+02
1.812500e+02
1.875000e+02
1.937500e+02
2.000000e+02
0.000000e+00
6.250000e+00
1.250000e+01
1.875000e+01
2.500000e+01
3.125000e+01
3.750000e+01
4.375000e+01
5.000000e+01
5.625000e+01
6.250000e+01
6.875000e+01
7.500000e+01
8.125000e+01
8.750000e+01
9.375000e+01
1.000000e+02
1.062500e+02
1.125000e+02
1.187500e+02
1.250000e+02
1.312500e+02
1.375000e+02
1.437500e+02
1.500000e+02
1.562500e+02
1.625000e+02
1.687500e+02
1.750000e+02
1.812500e+02
1.875000e+02
1.937500e+02
2.000000e+02
0.000000e+00
6.250000e+00
1.250000e+01
1.875000e+01
2.500000e+01
3.125000e+01
3.750000e+01
4.375000e+01
5.000000e+01
5.625000e+01
6.250000e+01
6.875000e+01
7.500000e+01
8.125000e+01
8.750000e+01
9.375000e+01
1.000000e+02
1.062500e+02
1.125000e+02
1.187500e+02
1.250000e+02
1.312500e+02
1.375000e+02
1.437500e+02
1.500000e+02
1.562500e+02
1.625000e+02
1.687500e+02
1.750000e+02
1.812500e+02
1.875000e+02
1.937500e+02
2.000000e+02
0.000000e+00
6.250000e+00
1.250000e+01
1.875000e+01
2.500000e+01
3.125000e+01
3.750000e+01
4.375000e+01
5.000000e+01
5.625000e+01
6.250000e+01
6.875000e+01
7.500000e+01
8.125000e+01
8.750000e+01
9.375000e+01
1.000000e+02
1.062500e+02
1.125000e+02
1.187500e+02
1.250000e+02
1.312500e+02
1.375000e+02
1.437500e+02
1.500000e+02
1.562500e+02
1.625000e+02
1.687500e+02
1.750000e+02
1.812500e+02
1.875000e+02
1.937500e+02
2.000000e+02
0.000000e+00
6.250000e+00
1.250000e+01
1.875000e+01
2.500000e+01
3.125000e+01
3.750000e+01
4.375000e+01
5.000000e+01
5.625000e+01
6.250000e+01
6.875000e+01
7.500000e+01
8.125000e+01
8.750000e+01
9.375000e+01
1.000000e+02
1.062500e+02
1.125000e+02
1.187500e+02
1.250000e+02
1.312500e+02
1.375000e+02
1.437500e+02
1.500000e+02
1.562500e+02
1.625000e+02
1.687500e+02
1.750000e+02
1.812500e+02
1.875000e+02
1.937500e+02
2.000000e+02
0.000000e+00
6.250000e+00
1.250000e+01
1.875000e+01
2.500000e+01
3.125000e+01
3.750000e+01
4.375000e+01
5.000000e+01
5.625000e+01
6.250000e+01
6.875000e+01
7.500000e+01
8.125000e+01
8.750000e+01
9.375000e+01
1.000000e+02
1.062500e+02
1.125000e+02
1.187500e+02
1.250000e+02
1.312500e+02
1.375000e+02
1.437500e+02
1.500000e+02
1.562500e+02
1.625000e+02
1.687500e+02
1.750000e+02
1.812500e+02
1.875000e+02
1.937500e+02
2.000000e+02
0.000000e+00
6.250000e+00
1.250000e+01
1.875000e+01
2.500000e+01
3.125000e+01
3.750000e+01
4.375000e+01
5.000000e+01
5.625000e+01
6.250000e+01
6.875000e+01
7.500000e+01
8.125000e+01
8.750000e+01
9.375000e+01
1.000000e+02
1.062500e+02
1.125000e+02
1.187500e+02
1.250000e+02
1.312500e+02
1.375000e+02
1.437500e+02
1.500000e+02
1.562500e+02
1.625000e+02
1.687500e+02
1.750000e+02
1.812500e+02
1.875000e+02
1.937500e+02
2.000000e+02
0.000000e+00
6.250000e+00
1.250000e+01
1.875000e+01
2.500000e+01
3.125000e+01
3.750000e+01
4.375000e+01
5.000000e+01
5.625000e+01
6.250000e+01
6.875000e+01
7.500000e+01
8.125000e+01
8.750000e+01
9.375000e+01
1.000000e+02
1.062500e+02
1.125000e+02
1.187500e+02
1.250000e+02
1.312500e+02
1.375000e+02
1.437500e+02
1.500000e+02
1.562500e+02
1.625000e+02
1.687500e+02
1.750000e+02
1.812500e+02
1.875000e+02
1.937500e+02
2.000000e+02
0.000000e+00
6.250000e+00
1.250000e+01
1.875000e+01
2.500000e+01
3.125000e+01
3.750000e+01
4.375000e+01
5.000000e+01
5.625000e+01
6.250000e+01
6.875000e+01
7.500000e+01
8.125000e+01
8.750000e+01
9.375000e+01
1.000000e+02
1.062500e+02
1.125000e+02
1.187500e+02
1.250000e+02
1.312500e+02
1.375000e+02
1.437500e+02
1.500000e+02
1.562500e+02
1.625000e+02
1.687500e+02
1.750000e+02
1.812500e+02
1.875000e+02
1.937500e+02
2.000000e+02
0.000000e+00
6.250000e+00
1.250000e+01
1.875000e+01
2.500000e+01
3.125000e+01
3.750000e+01
4.375000e+01
5.000000e+01
5.625000e+01
6.250000e+01
6.875000e+01
7.500000e+01
8.125000e+01
8.750000e+01
9.375000e+01
1.000000e+02
1.062500e+02
1.125000e+02
1.187500e+02
1.250000e+02
1.312500e+02
1.375000e+02
1.437500e+02
1.500000e+02
1.562500e+02
1.625000e+02
1.687500e+02
1.750000e+02
1.812500e+02
1.875000e+02
1.937500e+02
2.000000e+02
0.000000e+00
6.250000e+00
1.250000e+01
1.875000e+01
2.500000e+01
3.125000e+01
3.750000e+01
4.375000e+01
5.000000e+01
5.625000e+01
6.250000e+01
6.875000e+01
7.500000e+01
8.125000e+01
8.750000e+01
9.375000e+01
1.000000e+02
1.062500e+02
1.125000e+02
1.187500e+02
1.250000e+02
1.312500e+02
1.375000e+02
1.437500e+02
1.500000e+02
1.562500e+02
1.625000e+02
1.687500e+02
1.750000e+02
1.812500e+02
1.875000e+02
1.937500e+02
2.000000e+02
0.000000e+00
6.250000e+00
1.250000e+01
1.875000e+01
2.500000e+01
3.125000e+01
3.750000e+01
4.375000e+01
5.000000e+01
5.625000e+01
6.250000e+01
6.875000e+01
7.500000e+01
8.125000e+01
8.750000e+01
9.375000e+01
1.000000e+02
1.062500e+02
1.125000e+02
1.187500e+02
1.250000e+02
1.312500e+02
1.375000e+02
1.437500e+02
1.500000e+02
1.562500e+02
1.625000e+02
1.687500e+02
1.750000e+02
1.812500e+02
1.875000e+02
1.937500e+02
2.000000e+02
0.000000e+00
6.250000e+00
1.250000e+01
1.875000e+01
2.500000e+01
3.125000e+01
3.750000e+01
4.375000e+01
5.000000e+01
5.625000e+01
6.250000e+01
6.875000e+01
7.500000e+01
8.125000e+01
8.750000e+01
9.375000e+01
1.000000e+02
1.062500e+02
1.125000e+02
1.187500e+02
1.250000e+02
1.312500e+02
1.375000e+02
1.437500e+02
1.500000e+02
1.562500e+02
1.625000e+02
1.687500e+02
1.750000e+02
1.812500e+02
1.875000e+02
1.937500e+02
2.000000e+02
0.000000e+00
0.000000e+00
0.000000e+00
0.000000e+00
0.000000e+00
0.000000e+00
0.000000e+00
0.000000e+00
0.000000e+00
0.000000e+00
0.000000e+00
0.000000e+00
0.000000e+00
0.000000e+00
0.000000e+00
0.000000e+00
0.000000e+00
0.000000e+00
0.000000e+00
0.000000e+00
0.000000e+00
0.000000e+00
0.000000e+00
0.000000e+00
0.000000e+00
0.000000e+00
0.000000e+00
0.000000e+00
0.000000e+00
0.000000e+00
0.000000e+00
0.000000e+00
0.000000e+00
6.250000e+00
6.250000e+00
6.250000e+00
6.250000e+00
6.250000e+00
6.250000e+00
6.250000e+00
6.250000e+00
6.250000e+00
6.250000e+00
6.250000e+00
6.250000e+00
6.250000e+00
6.250000e+00
6.250000e+00
6.250000e+00
6.250000e+00
6.250000e+00
6.250000e+00
6.250000e+00
6.250000e+00
6.250000e+00
6.250000e+00
6.250000e+00
6.250000e+00
6.250000e+00
6.250000e+00
6.250000e+00
6.250000e+00
6.250000e+00
6.250000e+00
6.250000e+00
6.250000e+00
1.250000e+01
1.250000e+01
1.250000e+01
1.250000e+01
1.250000e+01
1.250000e+01
1.250000e+01
1.250000e+01
1.250000e+01
1.250000e+01
1.250000e+01
1.250000e+01
1.250000e+01
1.250000e+01
1.250000e+01
1.250000e+01
1.250000e+01
1.250000e+01
1.250000e+01
1.250000e+01
1.250000e+01
1.250000e+01
1.250000e+01
1.250000e+01
1.250000e+01
1.250000e+01
1.250000e+01
1.250000e+01
1.250000e+01
1.250000e+01
1.250000e+01
1.250000e+01
1.250000e+01
1.875000e+01
1.875000e+01
1.875000e+01
1.875000e+01
1.875000e+01
1.875000e+01
1.875000e+01
1.875000e+01
1.875000e+01
1.875000e+01
1.875000e+01
1.875000e+01
1.875000e+01
1.875000e+01
1.875000e+01
1.875000e+01
1.875000e+01
1.875000e+01
1.875000e+01
1.875000e+01
1.875000e+01
1.875000e+01
1.875000e+01
1.875000e+01
1.875000e+01
1.875000e+01
1.875000e+01
1.875000e+01
1.875000e+01
1.875000e+01
1.875000e+01
1.875000e+01
1.875000e+01
2.500000e+01
2.500000e+01
2.500000e+01
2.500000e+01
2.500000e+01
2.500000e+01
2.500000e+01
2.500000e+01
2.500000e+01
2.500000e+01
2.500000e+01
2.500000e+01
2.500000e+01
2.500000e+01
2.500000e+01
2.500000e+01
2.500000e+01
2.500000e+01
2.500000e+01
2.500000e+01
2.500000e+01
2.500000e+01
2.500000e+01
2.500000e+01
2.500000e+01
2.500000e+01
2.500000e+01
2.500000e+01
2.500000e+01
2.500000e+01
2.500000e+01
2.500000e+01
2.500000e+01
3.125000e+01
3.125000e+01
3.125000e+01
3.125000e+01
3.125000e+01
3.125000e+01
3.125000e+01
3.125000e+01
3.125000e+01
3.125000e+01
3.125000e+01
3.125000e+01
3.125000e+01
3.125000e+01
3.125000e+01
3.125000e+01
3.125000e+01
3.125000e+01
3.125000e+01
3.125000e+01
3.125000e+01
3.125000e+01
3.125000e+01
3.125000e+01
3.125000e+01
3.125000e+01
3.125000e+01
3.125000e+01
3.125000e+01
3.125000e+01
3.125000e+01
3.125000e+01
3.125000e+01
3.750000e+01
3.750000e+01
3.750000e+01
3.750000e+01
3.750000e+01
3.750000e+01
3.750000e+01
3.750000e+01
3.750000e+01
3.750000e+01
3.750000e+01
3.750000e+01
3.750000e+01
3.750000e+01
3.750000e+01
3.750000e+01
3.750000e+01
3.750000e+01
3.750000e+01
3.750000e+01
3.750000e+01
3.750000e+01
3.750000e+01
3.750000e+01
3.750000e+01
3.750000e+01
3.750000e+01
3.750000e+01
3.750000e+01
3.750000e+01
3.750000e+01
3.750000e+01
3.750000e+01
4.375000e+01
4.375000e+01
4.375000e+01
4.375000e+01
4.375000e+01
4.375000e+01
4.375000e+01
4.375000e+01
4.375000e+01
4.375000e+01
4.375000e+01
4.375000e+01
4.375000e+01
4.375000e+01
4.375000e+01
4.375000e+01
4.375000e+01
4.375000e+01
4.375000e+01
4.375000e+01
4.375000e+01
4.375000e+01
4.375000e+01
4.375000e+01
4.375000e+01
4.375000e+01
4.375000e+01
4.375000e+01
4.375000e+01
4.375000e+01
4.375000e+01
4.375000e+01
4.375000e+01
5.000000e+01
5.000000e+01
5.000000e+01
5.000000e+01
5.000000e+01
5.000000e+01
5.000000e+01
5.000000e+01
5.000000e+01
5.000000e+01
5.000000e+01
5.000000e+01
5.000000e+01
5.000000e+01
5.000000e+01
5.000000e+01
5.000000e+01
5.000000e+01
5.000000e+01
5.000000e+01
5.000000e+01
5.000000e+01
5.000000e+01
5.000000e+01
5.000000e+01
5.000000e+01
5.000000e+01
5.000000e+01
5.000000e+01
5.000000e+01
5.000000e+01
5.000000e+01
5.000000e+01
5.625000e+01
5.625000e+01
5.625000e+01
5.625000e+01
5.625000e+01
5.625000e+01
5.625000e+01
5.625000e+01
5.625000e+01
5.625000e+01
5.625000e+01
5.625000e+01
5.625000e+01
5.625000e+01
5.625000e+01
5.625000e+01
5.625000e+01
5.625000e+01
5.625000e+01
5.625000e+01
5.625000e+01
5.625000e+01
5.625000e+01
5.625000e+01
5.625000e+01
5.625000e+01
5.625000e+01
5.625000e+01
5.625000e+01
5.625000e+01
5.625000e+01
5.625000e+01
5.625000e+01
6.250000e+01
6.250000e+01
6.250000e+01
6.250000e+01
6.250000e+01
6.250000e+01
6.250000e+01
6.250000e+01
6.250000e+01
6.250000e+01
6.250000e+01
6.250000e+01
6.250000e+01
6.250000e+01
6.250000e+01
6.250000e+01
6.250000e+01
6.250000e+01
6.250000e+01
6.250000e+01
6.250000e+01
6.250000e+01
6.250000e+01
6.250000e+01
6.250000e+01
6.250000e+01
6.250000e+01
6.250000e+01
6.250000e+01
6.250000e+01
6.250000e+01
6.250000e+01
6.250000e+01
6.875000e+01
6.875000e+01
6.875000e+01
6.875000e+01
6.875000e+01
6.875000e+01
6.875000e+01
6.875000e+01
6.875000e+01
6.875000e+01
6.875000e+01
6.875000e+01
6.875000e+01
6.875000e+01
6.875000e+01
6.875000e+01
6.875000e+01
6.875000e+01
6.875000e+01
6.875000e+01
6.875000e+01
6.875000e+01
6.875000e+01
6.875000e+01
6.875000e+01
6.875000e+01
6.875000e+01
6.875000e+01
6.875000e+01
6.875000e+01
6.875000e+01
6.875000e+01
6.875000e+01
7.500000e+01
7.500000e+01
7.500000e+01
7.500000e+01
7.500000e+01
7.500000e+01
7.500000e+01
7.500000e+01
7.500000e+01
7.500000e+01
7.500000e+01
7.500000e+01
7.500000e+01
7.500000e+01
7.500000e+01
7.500000e+01
7.500000e+01
7.500000e+01
7.500000e+01
7.500000e+01
7.500000e+01
7.500000e+01
7.500000e+01
7.500000e+01
7.500000e+01
7.500000e+01
7.500000e+01
7.500000e+01
7.500000e+01
7.500000e+01
7.500000e+01
7.500000e+01
7.500000e+01
8.125000e+01
8.125000e+01
8.125000e+01
8.125000e+01
8.125000e+01
8.125000e+01
8.125000e+01
8.125000e+01
8.125000e+01
8.125000e+01
8.125000e+01
8.125000e+01
8.125000e+01
8.125000e+01
8.125000e+01
8.125000e+01
8.125000e+01
8.125000e+01
8.125000e+01
8.125000e+01
8.125000e+01
8.125000e+01
8.125000e+01
8.125000e+01
8.125000e+01
8.125000e+01
8.125000e+01
8.125000e+01
8.125000e+01
8.125000e+01
8.125000e+01
8.125000e+01
8.125000e+01
8.750000e+01
8.750000e+01
8.750000e+01
8.750000e+01
8.750000e+01
8.750000e+01
8.750000e+01
8.750000e+01
8.750000e+01
8.750000e+01
8.750000e+01
8.750000e+01
8.750000e+01
8.750000e+01
8.750000e+01
8.750000e+01
8.750000e+01
8.750000e+01
8.750000e+01
8.750000e+01
8.750000e+01
8.750000e+01
8.750000e+01
8.750000e+01
8.750000e+01
8.750000e+01
8.750000e+01
8.750000e+01
8.750000e+01
8.750000e+01
8.750000e+01
8.750000e+01
8.750000e+01
9.375000e+01
9.375000e+01
9.375000e+01
9.375000e+01
9.375000e+01
9.375000e+01
9.375000e+01
9.375000e+01
9.375000e+01
9.375000e+01
9.375000e+01
9.375000e+01
9.375000e+01
9.375000e+01
9.375000e+01
9.375000e+01
9.375000e+01
9.375000e+01
9.375000e+01
9.375000e+01
9.375000e+01
9.375000e+01
9.375000e+01
9.375000e+01
9.375000e+01
9.375000e+01
9.375000e+01
9.375000e+01
9.375000e+01
9.375000e+01
9.375000e+01
9.375000e+01
9.375000e+01
1.000000e+02
1.000000e+02
1.000000e+02
1.000000e+02
1.000000e+02
1.000000e+02
1.000000e+02
1.000000e+02
1.000000e+02
1.000000e+02
1.000000e+02
1.000000e+02
1.000000e+02
1.000000e+02
1.000000e+02
1.000000e+02
1.000000e+02
1.000000e+02
1.000000e+02
1.000000e+02
1.000000e+02
1.000000e+02
1.000000e+02
1.000000e+02
1.000000e+02
1.000000e+02
1.000000e+02
1.000000e+02
1.000000e+02
1.000000e+02
1.000000e+02
1.000000e+02
1.000000e+02
0.000000e+00
-4.724301e-01
-7.828133e-01
-1.122859e+00
-1.424460e+00
-1.716313e+00
-2.028389e+00
-2.315585e+00
-2.615240e+00
-2.908789e+00
-3.205854e+00
-3.505015e+00
-3.804537e+00
-4.103923e+00
-4.404245e+00
-4.704928e+00
-5.007871e+00
-5.311296e+00
-5.613906e+00
-5.916534e+00
-6.218547e+00
-6.520493e+00
-6.822734e+00
-7.119920e+00
-7.413232e+00
-7.718200e+00
-8.017318e+00
-8.348569e+00
-8.667367e+00
-9.020556e+00
-9.509960e+00
-9.926363e+00
-1.013044e+01
0.000000e+00
-2.335661e-01
-4.701971e-01
-7.357504e-01
-1.001721e+00
-1.254429e+00
-1.524363e+00
-1.784600e+00
-2.047174e+00
-2.312102e+00
-2.572688e+00
-2.837729e+00
-3.098169e+00
-3.362066e+00
-3.623399e+00
-3.885693e+00
-4.148247e+00
-4.408685e+00
-4.671866e+00
-4.931613e+00
-5.194213e+00
-5.454314e+00
-5.715882e+00
-5.976181e+00
-6.237239e+00
-6.498466e+00
-6.757783e+00
-7.022090e+00
-7.276313e+00
-7.533104e+00
-7.787717e+00
-7.888917e+00
-7.994735e+00
0.000000e+00
-1.027368e-01
-2.375643e-01
-4.341260e-01
-6.529250e-01
-8.601935e-01
-1.085930e+00
-1.313555e+00
-1.541027e+00
-1.772618e+00
-1.996757e+00
-2.223678e+00
-2.445991e+00
-2.671155e+00
-2.894881e+00
-3.117563e+00
-3.339913e+00
-3.560001e+00
-3.783694e+00
-4.005599e+00
-4.230750e+00
-4.453945e+00
-4.678394e+00
-4.907924e+00
-5.137833e+00
-5.360910e+00
-5.573070e+00
-5.770439e+00
-5.949958e+00
-6.098913e+00
-6.186683e+00
-6.192344e+00
-6.285227e+00
0.000000e+00
-1.024737e-01
-1.858673e-01
-3.414451e-01
-4.644738e-01
-6.189087e-01
-7.959932e-01
-9.655989e-01
-1.159208e+00
-1.336782e+00
-1.521748e+00
-1.704381e+00
-1.886020e+00
-2.071979e+00
-2.255945e+00
-2.441547e+00
-2.626288e+00
-2.812855e+00
-3.002671e+00
-3.194027e+00
-3.388225e+00
-3.581826e+00
-3.776522e+00
-3.971925e+00
-4.157925e+00
-4.331813e+00
-4.481103e+00
-4.613363e+00
-4.714199e+00
-4.777724e+00
-4.792866e+00
-4.810251e+00
-4.890683e+00
0.000000e+00
-9.307889e-02
-1.846918e-01
-2.756905e-01
-3.893040e-01
-5.050048e-01
-6.372342e-01
-7.716494e-01
-9.167275e-01
-1.057707e+00
-1.203891e+00
-1.349345e+00
-1.492501e+00
-1.642435e+00
-1.784911e+00
-1.935594e+00
-2.080717e+00
-2.230246e+00
-2.379925e+00
-2.528312e+00
-2.679278e+00
-2.825290e+00
-2.970234e+00
-3.107606e+00
-3.236070e+00
-3.350123e+00
-3.447042e+00
-3.521005e+00
-3.569560e+00
-3.594041e+00
-3.597476e+00
-3.627199e+00
-3.698537e+00
0.000000e+00
-7.447410e-02
-1.459818e-01
-2.210195e-01
-3.025159e-01
-3.921202e-01
-4.869248e-01
-5.882003e-01
-6.919601e-01
-7.998431e-01
-9.072881e-01
-1.016092e+00
-1.124873e+00
-1.232825e+00
-1.342338e+00
-1.450215e+00
-1.559637e+00
-1.667575e+00
-1.775410e+00
-1.882016e+00
-1.985972e+00
-2.087054e+00
-2.181916e+00
-2.269627e+00
-2.347258e+00
-2.412935e+00
-2.464282e+00
-2.499118e+00
-2.521736e+00
-2.522166e+00
-2.517386e+00
-2.543780e+00
-2.609614e+00
0.000000e+00
-5.130535e-02
-1.020579e-01
-1.539346e-01
-2.094298e-01
-2.688185e-01
-3.322563e-01
-3.986821e-01
-4.679215e-01
-5.386199e-01
-6.103193e-01
-6.820946e-01
-7.536403e-01
-8.249974e-01
-8.957994e-01
-9.664623e-01
-1.036260e+00
-1.105224e+00
-1.172612e+00
-1.237881e+00
-1.300185e+00
-1.358103e+00
-1.410289e+00
-1.454843e+00
-1.490833e+00
-1.515988e+00
-1.530036e+00
-1.535631e+00
-1.519236e+00
-1.489151e+00
-1.477803e+00
-1.501027e+00
-1.565235e+00
0.000000e+00
-2.704733e-02
-5.394183e-02
-8.141489e-02
-1.101785e-01
-1.406807e-01
-1.727971e-01
-2.063841e-01
-2.410237e-01
-2.763883e-01
-3.119212e-01
-3.472599e-01
-3.821163e-01
-4.163196e-01
-4.498637e-01
-4.825573e-01
-5.142163e-01
-5.443850e-01
-5.727308e-01
-5.987262e-01
-6.217012e-01
-6.408462e-01
-6.548892e-01
-6.628729e-01
-6.631934e-01
-6.566625e-01
-6.408677e-01
-6.022836e-01
-5.525258e-01
-5.009009e-01
-4.737381e-01
-4.968127e-01
-5.637808e-01
0.000000e+00
-2.000689e-03
-4.049995e-03
-6.061547e-03
-7.920626e-03
-9.499784e-03
-1.073703e-02
-1.164329e-02
-1.227508e-02
-1.261113e-02
-1.253888e-02
-1.189703e-02
-1.053409e-02
-8.290207e-03
-4.922636e-03
-3.425879e-04
5.699041e-03
1.365753e-02
2.358126e-02
3.534362e-02
4.960551e-02
6.657181e-02
8.582331e-02
1.102376e-01
1.407121e-01
1.821765e-01
2.427880e-01
3.152744e-01
3.887614e-01
4.397015e-01
4.553978e-01
4.229456e-01
3.427625e-01
0.000000e+00
2.319784e-02
4.616617e-02
6.978155e-02
9.500817e-02
1.225582e-01
1.524704e-01
1.844781e-01
2.180212e-01
2.526587e-01
2.880324e-01
3.240236e-01
3.605988e-01
3.982486e-01
4.375217e-01
4.787574e-01
5.224886e-01
5.683388e-01
6.162640e-01
6.656829e-01
7.153741e-01
7.665703e-01
8.221736e-01
8.816553e-01
9.491677e-01
1.032404e+00
1.122381e+00
1.214122e+00
1.288644e+00
1.332487e+00
1.329282e+00
1.283084e+00
1.220182e+00
0.000000e+00
4.786431e-02
9.519139e-02
1.437414e-01
1.962315e-01
2.534013e-01
3.153922e-01
3.810776e-01
4.496899e-01
5.198740e-01
5.907960e-01
6.615437e-01
7.322593e-01
8.037161e-01
8.771286e-01
9.543717e-01
1.035689e+00
1.119670e+00
1.205304e+00
1.291990e+00
1.381864e+00
1.471253e+00
1.563403e+00
1.666464e+00
1.775155e+00
1.885943e+00
1.995471e+00
2.084176e+00
2.148077e+00
2.174519e+00
2.166898e+00
2.137008e+00
2.092888e+00
0.000000e+00
7.148266e-02
1.402772e-01
2.130025e-01
2.926371e-01
3.812537e-01
4.764617e-01
5.777302e-01
6.821509e-01
7.900307e-01
8.981736e-01
1.006850e+00
1.114823e+00
1.223428e+00
1.332911e+00
1.443053e+00
1.556969e+00
1.674372e+00
1.794214e+00
1.917368e+00
2.045951e+00
2.182432e+00
2.324554e+00
2.466849e+00
2.605096e+00
2.734357e+00
2.846632e+00
2.935519e+00
2.990937e+00
3.018862e+00
3.022353e+00
3.004329e+00
2.976798e+00
0.000000e+00
9.026686e-02
1.793123e-01
2.694178e-01
3.837508e-01
5.029305e-01
6.355069e-01
7.729890e-01
9.169158e-01
1.059853e+00
1.206844e+00
1.353103e+00
1.500331e+00
1.651568e+00
1.802277e+00
1.957410e+00
2.112333e+00
2.272407e+00
2.438317e+00
2.604916e+00
2.774067e+00
2.946204e+00
3.116317e+00
3.280953e+00
3.433935e+00
3.575125e+00
3.696122e+00
3.786859e+00
3.853335e+00
3.892483e+00
3.905392e+00
3.898865e+00
3.884355e+00
0.000000e+00
9.864809e-02
1.794907e-01
3.323350e-01
4.601795e-01
6.234187e-01
8.055126e-01
9.748486e-01
1.168618e+00
1.345501e+00
1.528045e+00
1.707987e+00
1.890770e+00
2.080516e+00
2.274629e+00
2.476519e+00
2.680672e+00
2.886120e+00
3.096359e+00
3.309661e+00
3.520020e+00
3.724898e+00
3.921066e+00
4.105733e+00
4.280443e+00
4.437808e+00
4.573039e+00
4.679947e+00
4.756493e+00
4.804258e+00
4.826451e+00
4.829257e+00
4.824518e+00
0.000000e+00
1.003803e-01
2.309782e-01
4.194701e-01
6.368027e-01
8.474567e-01
1.078754e+00
1.310060e+00
1.540074e+00
1.774664e+00
1.998122e+00
2.223863e+00
2.445545e+00
2.672222e+00
2.899959e+00
3.131536e+00
3.365916e+00
3.597213e+00
3.828601e+00
4.061081e+00
4.295393e+00
4.524259e+00
4.744641e+00
4.965901e+00
5.177070e+00
5.363661e+00
5.513219e+00
5.627887e+00
5.710356e+00
5.763224e+00
5.790914e+00
5.799964e+00
5.801074e+00
0.000000e+00
2.337956e-01
4.714796e-01
7.363540e-01
1.001641e+00
1.253863e+00
1.523025e+00
1.783730e+00
2.045611e+00
2.310308e+00
2.570206e+00
2.834436e+00
3.093753e+00
3.355816e+00
3.615573e+00
3.875209e+00
4.135281e+00
4.392648e+00
4.650522e+00
4.904347e+00
5.159783e+00
5.413046e+00
5.666311e+00
5.924918e+00
6.169133e+00
6.370014e+00
6.527494e+00
6.644280e+00
6.724461e+00
6.773656e+00
6.798794e+00
6.807898e+00
6.810136e+00
0.000000e+00
4.735876e-01
7.902044e-01
1.135634e+00
1.440143e+00
1.729664e+00
2.037764e+00
2.322418e+00
2.618911e+00
2.909995e+00
3.205729e+00
3.505397e+00
3.802937e+00
4.100296e+00
4.393997e+00
4.685057e+00
4.972223e+00
5.261237e+00
5.551814e+00
5.839677e+00
6.127504e+00
6.415314e+00
6.707312e+00
7.000096e+00
7.265840e+00
7.476658e+00
7.634793e+00
7.743645e+00
7.808494e+00
7.837608e+00
7.842703e+00
7.838086e+00
7.835534e+00
0.000000e+00
-2.792819e-01
-5.898057e-01
-9.869557e-01
-1.419464e+00
-1.889324e+00
-2.399836e+00
-2.940989e+00
-3.517620e+00
-4.125625e+00
-4.767510e+00
-5.445403e+00
-6.159843e+00
-6.912382e+00
-7.701738e+00
-8.529589e+00
-9.395804e+00
-1.030235e+01
-1.124892e+01
-1.223515e+01
-1.326152e+01
-1.432754e+01
-1.543503e+01
-1.658218e+01
-1.776678e+01
-1.899048e+01
-2.025758e+01
-2.157878e+01
-2.296047e+01
-2.442323e+01
-2.598404e+01
-2.779206e+01
-3.032922e+01
0.000000e+00
-1.802520e-01
-5.093621e-01
-8.991968e-01
-1.338559e+00
-1.804881e+00
-2.315272e+00
-2.858581e+00
-3.433422e+00
-4.042508e+00
-4.683345e+00
-5.361557e+00
-6.075735e+00
-6.828506e+00
-7.617856e+00
-8.445427e+00
-9.311738e+00
-1.021795e+01
-1.116495e+01
-1.215095e+01
-1.317751e+01
-1.424317e+01
-1.535078e+01
-1.649876e+01
-1.768304e+01
-1.890631e+01
-2.017185e+01
-2.149140e+01
-2.287470e+01
-2.432831e+01
-2.590844e+01
-2.770369e+01
-2.995448e+01
0.000000e+00
-1.593821e-01
-4.502191e-01
-8.427260e-01
-1.272014e+00
-1.735982e+00
-2.244374e+00
-2.785433e+00
-3.361725e+00
-3.969527e+00
-4.611565e+00
-5.289858e+00
-6.004202e+00
-6.757059e+00
-7.547020e+00
-8.374682e+00
-9.241610e+00
-1.014741e+01
-1.109438e+01
-1.208020e+01
-1.310654e+01
-1.417195e+01
-1.527785e+01
-1.642532e+01
-1.761058e+01
-1.883668e+01
-2.010411e+01
-2.142877e+01
-2.281584e+01
-2.428990e+01
-2.591299e+01
-2.759760e+01
-2.934586e+01
0.000000e+00
-2.048549e-01
-4.502590e-01
-8.393934e-01
-1.237432e+00
-1.690281e+00
-2.197191e+00
-2.725052e+00
-3.307991e+00
-3.909898e+00
-4.555016e+00
-5.233748e+00
-5.946091e+00
-6.702047e+00
-7.489255e+00
-8.320322e+00
-9.185549e+00
-1.009184e+01
-1.103845e+01
-1.202285e+01
-1.305031e+01
-1.411421e+01
-1.521935e+01
-1.636648e+01
-1.755427e+01
-1.878656e+01
-2.006014e+01
-2.139196e+01
-2.278775e+01
-2.428150e+01
-2.589712e+01
-2.744688e+01
-2.884607e+01
0.000000e+00
-2.209112e-01
-4.891622e-01
-8.345246e-01
-1.235220e+00
-1.670772e+00
-2.167986e+00
-2.690167e+00
-3.267988e+00
-3.869955e+00
-4.513970e+00
-5.194752e+00
-5.905254e+00
-6.664229e+00
-7.449044e+00
-8.282706e+00
-9.146791e+00
-1.005333e+01
-1.099989e+01
-1.198315e+01
-1.301129e+01
-1.407478e+01
-1.518142e+01
-1.632923e+01
-1.752075e+01
-1.875640e+01
-2.003819e+01
-2.137350e+01
-2.277185e+01
-2.426161e+01
-2.579667e+01
-2.724593e+01
-2.851322e+01
0.000000e+00
-2.278121e-01
-5.056199e-01
-8.405059e-01
-1.228568e+00
-1.663939e+00
-2.146343e+00
-2.671050e+00
-3.238246e+00
-3.843156e+00
-4.485295e+00
-5.165040e+00
-5.880265e+00
-6.634417e+00
-7.425083e+00
-8.254494e+00
-9.122019e+00
-1.002817e+01
-1.097464e+01
-1.196050e+01
-1.298744e+01
-1.405452e+01
-1.516271e+01
-1.631332e+01
-1.750695e+01
-1.874453e+01
-2.002893e+01
-2.136359e+01
-2.275108e+01
-2.420057e+01
-2.564180e+01
-2.700986e+01
-2.821521e+01
0.000000e+00
-2.315014e-01
-5.118391e-01
-8.437048e-01
-1.226469e+00
-1.657816e+00
-2.135601e+00
-2.657559e+00
-3.221632e+00
-3.825502e+00
-4.467768e+00
-5.147430e+00
-5.864280e+00
-6.618406e+00
-7.410096e+00
-8.239832e+00
-9.108056e+00
-1.001554e+01
-1.096285e+01
-1.195060e+01
-1.297914e+01
-1.404872e+01
-1.515976e+01
-1.631248e+01
-1.750744e+01
-1.874528e+01
-2.002576e+01
-2.135715e+01
-2.271208e+01
-2.411032e+01
-2.548717e+01
-2.678756e+01
-2.792944e+01
0.000000e+00
-2.329011e-01
-5.141615e-01
-8.451372e-01
-1.225846e+00
-1.655045e+00
-2.130908e+00
-2.651378e+00
-3.214391e+00
-3.818006e+00
-4.460616e+00
-5.141124e+00
-5.858896e+00
-6.613850e+00
-7.406207e+00
-8.236571e+00
-9.105721e+00
-1.001435e+01
-1.096311e+01
-1.195254e+01
-1.298307e+01
-1.405496e+01
-1.516821e+01
-1.632286e+01
-1.751673e+01
-1.875448e+01
-2.002721e+01
-2.133952e+01
-2.265980e+01
-2.400434e+01
-2.533579e+01
-2.657954e+01
-2.766575e+01
0.000000e+00
-2.331906e-01
-5.147551e-01
-8.457583e-01
-1.226323e+00
-1.655458e+00
-2.131417e+00
-2.652151e+00
-3.215635e+00
-3.820022e+00
-4.463717e+00
-5.145421e+00
-5.864328e+00
-6.620227e+00
-7.413316e+00
-8.244273e+00
-9.114370e+00
-1.002426e+01
-1.097422e+01
-1.196506e+01
-1.299731e+01
-1.407044e+01
-1.518498e+01
-1.634043e+01
-1.753323e+01
-1.876553e+01
-2.002402e+01
-2.130701e+01
-2.260349e+01
-2.389678e+01
-2.516820e+01
-2.633671e+01
-2.732776e+01
0.000000e+00
-2.327370e-01
-5.142168e-01
-8.458927e-01
-1.227914e+00
-1.658999e+00
-2.137054e+00
-2.659783e+00
-3.225101e+00
-3.831248e+00
-4.476695e+00
-5.159962e+00
-5.880078e+00
-6.637080e+00
-7.431129e+00
-8.262411e+00
-9.133757e+00
-1.004493e+01
-1.099594e+01
-1.198682e+01
-1.302081e+01
-1.409363e+01
-1.520653e+01
-1.636387e+01
-1.754943e+01
-1.876960e+01
-2.001104e+01
-2.127094e+01
-2.253820e+01
-2.379483e+01
-2.499986e+01
-2.610110e+01
-2.706007e+01
0.000000e+00
-2.312659e-01
-5.120170e-01
-8.451992e-01
-1.230643e+00
-1.665948e+00
-2.148252e+00
-2.674676e+00
-3.243106e+00
-3.851756e+00
-4.499390e+00
-5.184212e+00
-5.905186e+00
-6.663619e+00
-7.458611e+00
-8.291064e+00
-9.163958e+00
-1.007621e+01
-1.102852e+01
-1.201813e+01
-1.305156e+01
-1.412229e+01
-1.523287e+01
-1.638378e+01
-1.756069e+01
-1.876534e+01
-1.999569e+01
-2.123316e+01
-2.247481e+01
-2.369046e+01
-2.485001e+01
-2.591922e+01
-2.686778e+01
0.000000e+00
-2.276330e-01
-5.060941e-01
-8.427734e-01
-1.234795e+00
-1.676983e+00
-2.166190e+00
-2.697550e+00
-3.270712e+00
-3.882281e+00
-4.531905e+00
-5.217955e+00
-5.938977e+00
-6.698568e+00
-7.494642e+00
-8.329935e+00
-9.204285e+00
-1.011774e+01
-1.106985e+01
-1.205879e+01
-1.308708e+01
-1.415423e+01
-1.525897e+01
-1.639945e+01
-1.756718e+01
-1.876232e+01
-1.998076e+01
-2.120548e+01
-2.242023e+01
-2.360672e+01
-2.473681e+01
-2.579004e+01
-2.674256e+01
0.000000e+00
-2.206455e-01
-4.900604e-01
-8.379986e-01
-1.243387e+00
-1.690920e+00
-2.195207e+00
-2.727684e+00
-3.310681e+00
-3.922205e+00
-4.574673e+00
-5.261057e+00
-5.981430e+00
-6.743995e+00
-7.540317e+00
-8.379492e+00
-9.254708e+00
-1.016720e+01
-1.111786e+01
-1.210347e+01
-1.312646e+01
-1.418814e+01
-1.528472e+01
-1.641552e+01
-1.757608e+01
-1.876768e+01
-1.998041e+01
-2.119045e+01
-2.238539e+01
-2.354656e+01
-2.465806e+01
-2.570429e+01
-2.667155e+01
0.000000e+00
-2.035728e-01
-4.511436e-01
-8.436846e-01
-1.250689e+00
-1.717014e+00
-2.234764e+00
-2.770774e+00
-3.361294e+00
-3.972352e+00
-4.625295e+00
-5.311198e+00
-6.034223e+00
-6.798760e+00
-7.598706e+00
-8.439103e+00
-9.314591e+00
-1.022529e+01
-1.117238e+01
-1.215394e+01
-1.317186e+01
-1.422622e+01
-1.531395e+01
-1.643739e+01
-1.759948e+01
-1.879123e+01
-1.999666e+01
-2.119172e+01
-2.236768e+01
-2.351048e+01
-2.460846e+01
-2.565330e+01
-2.664081e+01
0.000000e+00
-1.565381e-01
-4.490077e-01
-8.466702e-01
-1.288255e+00
-1.766214e+00
-2.286515e+00
-2.835964e+00
-3.420288e+00
-4.035590e+00
-4.684305e+00
-5.371250e+00
-6.096164e+00
-6.861657e+00
-7.664832e+00
-8.505030e+00
-9.380425e+00
-1.028920e+01
-1.123379e+01
-1.221270e+01
-1.322633e+01
-1.427401e+01
-1.535464e+01
-1.647908e+01
-1.764413e+01
-1.883303e+01
-2.002405e+01
-2.120574e+01
-2.236629e+01
-2.349485e+01
-2.458286e+01
-2.562774e+01
-2.663560e+01
0.000000e+00
-1.768684e-01
-5.071011e-01
-9.035085e-01
-1.355741e+00
-1.836494e+00
-2.358495e+00
-2.910966e+00
-3.493455e+00
-4.109382e+00
-4.756617e+00
-5.443541e+00
-6.168723e+00
-6.934650e+00
-7.738215e+00
-8.578617e+00
-9.453051e+00
-1.036014e+01
-1.130350e+01
-1.228095e+01
-1.329290e+01
-1.433734e+01
-1.541859e+01
-1.654442e+01
-1.770604e+01
-1.888239e+01
-2.006013e+01
-2.122876e+01
-2.237688e+01
-2.349434e+01
-2.457456e+01
-2.561855e+01
-2.664027e+01
0.000000e+00
-2.767325e-01
-5.886951e-01
-9.921126e-01
-1.436804e+00
-1.920320e+00
-2.442648e+00
-2.993156e+00
-3.577370e+00
-4.192198e+00
-4.840797e+00
-5.527370e+00
-6.252492e+00
-7.017993e+00
-7.820890e+00
-8.660797e+00
-9.534247e+00
-1.044145e+01
-1.138387e+01
-1.236079e+01
-1.337233e+01
-1.441690e+01