TITLE = "Solution"
VARIABLES = x, y, u, v, psiu, psiv, t, stress
ZONE T="structure" N=153 E=128 F=FEBLOCK ET=QUADRILATERAL VARLOCATION=([7,8]=cellcentered)
0.000000e+00
1.250000e+01
2.500000e+01
3.750000e+01
5.000000e+01
6.250000e+01
7.500000e+01
8.750000e+01
1.000000e+02
1.125000e+02
1.250000e+02
1.375000e+02
1.500000e+02
1.625000e+02
1.750000e+02
1.875000e+02
2.000000e+02
0.000000e+00
1.250000e+01
2.500000e+01
3.750000e+01
5.000000e+01
6.250000e+01
7.500000e+01
8.750000e+01
1.000000e+02
1.125000e+02
1.250000e+02
1.375000e+02
1.500000e+02
1.625000e+02
1.750000e+02
1.875000e+02
2.000000e+02
0.000000e+00
1.250000e+01
2.500000e+01
3.750000e+01
5.000000e+01
6.250000e+01
7.500000e+01
8.750000e+01
1.000000e+02
1.125000e+02
1.250000e+02
1.375000e+02
1.500000e+02
1.625000e+02
1.750000e+02
1.875000e+02
2.000000e+02
0.000000e+00
1.250000e+01
2.500000e+01
3.750000e+01
5.000000e+01
6.250000e+01
7.500000e+01
8.750000e+01
1.000000e+02
1.125000e+02
1.250000e+02
1.375000e+02
1.500000e+02
1.625000e+02
1.750000e+02
1.875000e+02
2.000000e+02
0.000000e+00
1.250000e+01
2.500000e+01
3.750000e+01
5.000000e+01
6.250000e+01
7.500000e+01
8.750000e+01
1.000000e+02
1.125000e+02
1.250000e+02
1.375000e+02
1.500000e+02
1.625000e+02
1.750000e+02
1.875000e+02
2.000000e+02
0.000000e+00
1.250000e+01
2.500000e+01
3.750000e+01
5.000000e+01
6.250000e+01
7.500000e+01
8.750000e+01
1.000000e+02
1.125000e+02
1.250000e+02
1.375000e+02
1.500000e+02
1.625000e+02
1.750000e+02
1.875000e+02
2.000000e+02
0.000000e+00
1.250000e+01
2.500000e+01
3.750000e+01
5.000000e+01
6.250000e+01
7.500000e+01
8.750000e+01
1.000000e+02
1.125000e+02
1.250000e+02
1.375000e+02
1.500000e+02
1.625000e+02
1.750000e+02
1.875000e+02
2.000000e+02
0.000000e+00
1.250000e+01
2.500000e+01
3.750000e+01
5.000000e+01
6.250000e+01
7.500000e+01
8.750000e+01
1.000000e+02
1.125000e+02
1.250000e+02
1.375000e+02
1.500000e+02
1.625000e+02
1.750000e+02
1.875000e+02
2.000000e+02
0.000000e+00
1.250000e+01
2.500000e+01
3.750000e+01
5.000000e+01
6.250000e+01
7.500000e+01
8.750000e+01
1.000000e+02
1.125000e+02
1.250000e+02
1.375000e+02
1.500000e+02
1.625000e+02
1.750000e+02
1.875000e+02
2.000000e+02
0.000000e+00
0.000000e+00
0.000000e+00
0.000000e+00
0.000000e+00
0.000000e+00
0.000000e+00
0.000000e+00
0.000000e+00
0.000000e+00
0.000000e+00
0.000000e+00
0.000000e+00
0.000000e+00
0.000000e+00
0.000000e+00
0.000000e+00
1.250000e+01
1.250000e+01
1.250000e+01
1.250000e+01
1.250000e+01
1.250000e+01
1.250000e+01
1.250000e+01
1.250000e+01
1.250000e+01
1.250000e+01
1.250000e+01
1.250000e+01
1.250000e+01
1.250000e+01
1.250000e+01
1.250000e+01
2.500000e+01
2.500000e+01
2.500000e+01
2.500000e+01
2.500000e+01
2.500000e+01
2.500000e+01
2.500000e+01
2.500000e+01
2.500000e+01
2.500000e+01
2.500000e+01
2.500000e+01
2.500000e+01
2.500000e+01
2.500000e+01
2.500000e+01
3.750000e+01
3.750000e+01
3.750000e+01
3.750000e+01
3.750000e+01
3.750000e+01
3.750000e+01
3.750000e+01
3.750000e+01
3.750000e+01
3.750000e+01
3.750000e+01
3.750000e+01
3.750000e+01
3.750000e+01
3.750000e+01
3.750000e+01
5.000000e+01
5.000000e+01
5.000000e+01
5.000000e+01
5.000000e+01
5.000000e+01
5.000000e+01
5.000000e+01
5.000000e+01
5.000000e+01
5.000000e+01
5.000000e+01
5.000000e+01
5.000000e+01
5.000000e+01
5.000000e+01
5.000000e+01
6.250000e+01
6.250000e+01
6.250000e+01
6.250000e+01
6.250000e+01
6.250000e+01
6.250000e+01
6.250000e+01
6.250000e+01
6.250000e+01
6.250000e+01
6.250000e+01
6.250000e+01
6.250000e+01
6.250000e+01
6.250000e+01
6.250000e+01
7.500000e+01
7.500000e+01
7.500000e+01
7.500000e+01
7.500000e+01
7.500000e+01
7.500000e+01
7.500000e+01
7.500000e+01
7.500000e+01
7.500000e+01
7.500000e+01
7.500000e+01
7.500000e+01
7.500000e+01
7.500000e+01
7.500000e+01
8.750000e+01
8.750000e+01
8.750000e+01
8.750000e+01
8.750000e+01
8.750000e+01
8.750000e+01
8.750000e+01
8.750000e+01
8.750000e+01
8.750000e+01
8.750000e+01
8.750000e+01
8.750000e+01
8.750000e+01
8.750000e+01
8.750000e+01
1.000000e+02
1.000000e+02
1.000000e+02
1.000000e+02
1.000000e+02
1.000000e+02
1.000000e+02
1.000000e+02
1.000000e+02
1.000000e+02
1.000000e+02
1.000000e+02
1.000000e+02
1.000000e+02
1.000000e+02
1.000000e+02
1.000000e+02
0.000000e+00
-9.062375e-01
-1.592661e+00
-2.287589e+00
-2.975634e+00
-3.634673e+00
-4.306360e+00
-4.976216e+00
-5.637478e+00
-6.299733e+00
-6.967434e+00
-7.652864e+00
-8.360715e+00
-9.078031e+00
-9.794990e+00
-1.047382e+01
-1.091745e+01
0.000000e+00
-4.541947e-01
-9.405326e-01
-1.442041e+00
-1.958882e+00
-2.451988e+00
-2.954180e+00
-3.457231e+00
-3.952504e+00
-4.446126e+00
-4.939016e+00
-5.433962e+00
-5.924037e+00
-6.372672e+00
-6.690031e+00
-6.768700e+00
-6.930941e+00
0.000000e+00
-2.137019e-01
-4.681094e-01
-7.802395e-01
-1.118845e+00
-1.450512e+00
-1.791470e+00
-2.132339e+00
-2.467838e+00
-2.798424e+00
-3.118005e+00
-3.416538e+00
-3.672886e+00
-3.847497e+00
-3.892074e+00
-3.867232e+00
-4.020356e+00
0.000000e+00
-9.238223e-02
-1.995080e-01
-3.438582e-01
-4.999147e-01
-6.675035e-01
-8.384299e-01
-1.007289e+00
-1.172059e+00
-1.327532e+00
-1.464856e+00
-1.570093e+00
-1.624447e+00
-1.611768e+00
-1.550862e+00
-1.550374e+00
-1.680606e+00
0.000000e+00
-1.280941e-03
-2.545280e-03
-3.528156e-03
-3.805736e-03
-2.711020e-03
8.193492e-04
8.598371e-03
2.313577e-02
4.798353e-02
8.900715e-02
1.539828e-01
2.479771e-01
3.622109e-01
4.537228e-01
4.587957e-01
3.565819e-01
0.000000e+00
9.018749e-02
1.951926e-01
3.376608e-01
4.929218e-01
6.618180e-01
8.381088e-01
1.019333e+00
1.207475e+00
1.403780e+00
1.608745e+00
1.819372e+00
2.025658e+00
2.205162e+00
2.321211e+00
2.342157e+00
2.284180e+00
0.000000e+00
2.126293e-01
4.658699e-01
7.768368e-01
1.114369e+00
1.445567e+00
1.788088e+00
2.133491e+00
2.477118e+00
2.824225e+00
3.173913e+00
3.513612e+00
3.818285e+00
4.058837e+00
4.209845e+00
4.261419e+00
4.247814e+00
0.000000e+00
4.542980e-01
9.404122e-01
1.441721e+00
1.957974e+00
2.449395e+00
2.949821e+00
3.449841e+00
3.936459e+00
4.418882e+00
4.899983e+00
5.359640e+00
5.755930e+00
6.051688e+00
6.233432e+00
6.311893e+00
6.326491e+00
0.000000e+00
9.072888e-01
1.594625e+00
2.290917e+00
2.980243e+00
3.639025e+00
4.309813e+00
4.975902e+00
5.623545e+00
6.264638e+00
6.899850e+00
7.494222e+00
7.982151e+00
8.311062e+00
8.473374e+00
8.512889e+00
8.511587e+00
0.000000e+00
-5.624173e-01
-1.197840e+00
-2.042592e+00
-3.056098e+00
-4.236691e+00
-5.596418e+00
-7.128364e+00
-8.832723e+00
-1.071303e+01
-1.277130e+01
-1.501390e+01
-1.744635e+01
-2.007268e+01
-2.293494e+01
-2.623944e+01
-3.110646e+01
0.000000e+00
-3.643268e-01
-1.030120e+00
-1.862354e+00
-2.881283e+00
-4.062927e+00
-5.420692e+00
-6.954542e+00
-8.660556e+00
-1.054142e+01
-1.259916e+01
-1.484030e+01
-1.727563e+01
-1.992074e+01
-2.281978e+01
-2.613926e+01
-3.015705e+01
0.000000e+00
-3.170522e-01
-9.244162e-01
-1.748265e+00
-2.759494e+00
-3.939796e+00
-5.297512e+00
-6.832473e+00
-8.541518e+00
-1.042704e+01
-1.249195e+01
-1.474435e+01
-1.719822e+01
-1.987721e+01
-2.281112e+01
-2.596258e+01
-2.892385e+01
0.000000e+00
-3.356271e-01
-8.977328e-01
-1.697950e+00
-2.692523e+00
-3.869815e+00
-5.228160e+00
-6.764953e+00
-8.479341e+00
-1.037401e+01
-1.245368e+01
-1.472605e+01
-1.720007e+01
-1.988499e+01
-2.275782e+01
-2.563195e+01
-2.814256e+01
0.000000e+00
-3.445807e-01
-8.996073e-01
-1.685351e+00
-2.674974e+00
-3.850891e+00
-5.211701e+00
-6.752759e+00
-8.473500e+00
-1.037773e+01
-1.247184e+01
-1.476024e+01
-1.723887e+01
-1.988767e+01
-2.263053e+01
-2.528260e+01
-2.755338e+01
0.000000e+00
-3.355762e-01
-8.984742e-01
-1.700496e+00
-2.698207e+00
-3.879913e+00
-5.245053e+00
-6.791791e+00
-8.517804e+00
-1.042710e+01
-1.252816e+01
-1.482182e+01
-1.728867e+01
-1.988004e+01
-2.250048e+01
-2.499631e+01
-2.716583e+01
0.000000e+00
-3.170177e-01
-9.256448e-01
-1.752331e+00
-2.768598e+00
-3.956199e+00
-5.325067e+00
-6.876310e+00
-8.604698e+00
-1.051463e+01
-1.261527e+01
-1.490470e+01
-1.735103e+01
-1.988751e+01
-2.241603e+01
-2.481912e+01
-2.698532e+01
0.000000e+00
-3.643321e-01
-1.031465e+00
-1.866768e+00
-2.891220e+00
-4.081167e+00
-5.451481e+00
-7.003163e+00
-8.730974e+00
-1.063998e+01
-1.273718e+01
-1.501599e+01
-1.743725e+01
-1.992787e+01
-2.239368e+01
-2.474364e+01
-2.694335e+01
0.000000e+00
-5.626211e-01
-1.199376e+00
-2.047275e+00
-3.066132e+00
-4.254990e+00
-5.627234e+00
-7.175747e+00
-8.900379e+00
-1.080838e+01
-1.290116e+01
-1.516276e+01
-1.754969e+01
-1.999387e+01
-2.241199e+01
-2.472955e+01
-2.694454e+01


0.000000e+00
1.369867e-05
2.418009e-05
3.575102e-05
4.995981e-05
6.301463e-05
7.570167e-05
8.891057e-05
1.015298e-04
1.135915e-04
1.256928e-04
1.369484e-04
1.452814e-04
1.506566e-04
1.543879e-04
1.578452e-04
1.618308e-04
0.000000e+00
1.009392e-05
1.940159e-05
2.793835e-05
3.932841e-05
4.952656e-05
5.876843e-05
6.874920e-05
7.826063e-05
8.701037e-05
9.577893e-05
1.034690e-04
1.079327e-04
1.088979e-04
1.088876e-04
1.117444e-04
1.163509e-04
0.000000e+00
8.034944e-06
1.455896e-05
2.035474e-05
2.815791e-05
3.490114e-05
4.096425e-05
4.746499e-05
5.347733e-05
5.878801e-05
6.366994e-05
6.736327e-05
6.890135e-05
6.855043e-05
6.850063e-05
7.124114e-05
7.585384e-05
0.000000e+00
4.173908e-06
6.901793e-06
1.047522e-05
1.405557e-05
1.716486e-05
2.036152e-05
2.339745e-05
2.607122e-05
2.835031e-05
2.997927e-05
3.083212e-05
3.100845e-05
3.118321e-05
3.202649e-05
3.460866e-05
3.861010e-05
0.000000e+00
-3.112670e-08
-6.999190e-08
-1.141642e-07
-1.655030e-07
-2.221690e-07
-2.867127e-07
-3.797780e-07
-5.313872e-07
-8.250239e-07
-1.402177e-06
-2.191286e-06
-2.860941e-06
-2.906451e-06
-2.020758e-06
-5.063500e-07
1.662498e-06
0.000000e+00
-4.227199e-06
-7.015393e-06
-1.067301e-05
-1.434206e-05
-1.753645e-05
-2.084393e-05
-2.398412e-05
-2.675513e-05
-2.931944e-05
-3.153797e-05
-3.330334e-05
-3.458042e-05
-3.519659e-05
-3.545596e-05
-3.549782e-05
-3.488448e-05
0.000000e+00
-8.050371e-06
-1.461275e-05
-2.047149e-05
-2.832819e-05
-3.515241e-05
-4.131825e-05
-4.778714e-05
-5.373204e-05
-5.903623e-05
-6.346162e-05
-6.627870e-05
-6.782784e-05
-6.887216e-05
-6.966481e-05
-7.020986e-05
-7.026152e-05
0.000000e+00
-1.007957e-05
-1.939091e-05
-2.794501e-05
-3.932883e-05
-4.955553e-05
-5.886816e-05
-6.874508e-05
-7.819118e-05
-8.713128e-05
-9.509321e-05
-1.003615e-04
-1.030073e-04
-1.044910e-04
-1.054016e-04
-1.058605e-04
-1.059680e-04
0.000000e+00
-1.368644e-05
-2.413504e-05
-3.566412e-05
-4.979575e-05
-6.276201e-05
-7.538876e-05
-8.843015e-05
-1.009207e-04
-1.132126e-04
-1.247805e-04
-1.334146e-04
-1.385882e-04
-1.411772e-04
-1.421732e-04
-1.423729e-04
-1.423628e-04
0.000000e+00
1.156669e-05
1.911436e-05
2.999600e-05
4.429554e-05
6.026869e-05
8.002213e-05
1.036871e-04
1.301504e-04
1.599042e-04
1.930526e-04
2.283929e-04
2.652122e-04
3.049753e-04
3.514454e-04
4.048918e-04
4.588402e-04
0.000000e+00
6.542311e-06
1.478567e-05
2.432861e-05
3.811181e-05
5.465741e-05
7.436330e-05
9.793743e-05
1.247529e-04
1.546891e-04
1.880280e-04
2.243956e-04
2.629939e-04
3.038567e-04
3.484382e-04
3.993554e-04
4.517258e-04
0.000000e+00
3.206257e-06
1.079008e-05
2.003064e-05
3.327804e-05
5.029297e-05
7.026990e-05
9.380904e-05
1.209459e-04
1.512326e-04
1.849021e-04
2.220450e-04
2.618740e-04
3.031942e-04
3.445781e-04
3.917516e-04
4.420516e-04
0.000000e+00
1.983969e-06
8.709162e-06
1.815148e-05
3.134822e-05
4.840624e-05
6.858279e-05
9.225158e-05
1.195328e-04
1.501317e-04
1.840767e-04
2.213018e-04
2.613183e-04
3.022828e-04
3.414784e-04
3.843217e-04
4.310217e-04
0.000000e+00
1.653009e-06
8.084914e-06
1.756330e-05
3.085387e-05
4.780613e-05
6.805357e-05
9.182224e-05
1.191595e-04
1.499723e-04
1.841358e-04
2.212912e-04
2.610422e-04
3.018372e-04
3.403477e-04
3.798468e-04
4.220418e-04
0.000000e+00
2.003014e-06
8.726549e-06
1.816233e-05
3.133178e-05
4.833872e-05
6.849755e-05
9.215917e-05
1.194544e-04
1.503568e-04
1.847937e-04
2.220985e-04
2.616128e-04
3.018005e-04
3.406686e-04
3.787707e-04
4.170439e-04
0.000000e+00
3.234993e-06
1.082007e-05
2.005527e-05
3.325750e-05
5.018771e-05
7.013200e-05
9.362313e-05
1.207646e-04
1.516173e-04
1.862306e-04
2.236630e-04
2.627350e-04
3.022160e-04
3.408015e-04
3.784216e-04
4.151268e-04
0.000000e+00
6.574302e-06
1.483063e-05
2.436840e-05
3.811113e-05
5.457595e-05
7.420701e-05
9.769855e-05
1.245564e-04
1.550454e-04
1.891954e-04
2.258017e-04
2.638795e-04
3.026251e-04
3.408527e-04
3.782120e-04
4.147451e-04
0.000000e+00
1.159721e-05
1.916499e-05
3.004297e-05
4.430397e-05
6.021911e-05
7.987579e-05
1.034179e-04
1.300200e-04
1.602347e-04
1.934786e-04
2.284178e-04
2.651170e-04
3.030691e-04
3.409640e-04
3.781587e-04
4.147448e-04


2.851605e+00
2.724140e+00
2.786430e+00
2.782496e+00
2.813944e+00
3.073927e+00
3.330383e+00
3.647210e+00
4.099605e+00
4.700258e+00
5.508230e+00
6.372472e+00
6.950873e+00
6.828300e+00
5.837864e+00
4.888710e+00
4.500429e+00
4.374942e+00
4.360682e+00
4.324331e+00
4.309451e+00
4.473936e+00
4.639060e+00
4.842521e+00
5.145333e+00
5.552962e+00
6.103623e+00
6.696292e+00
7.051652e+00
6.703302e+00
5.505848e+00
4.352969e+00
6.433255e+00
6.363840e+00
6.333378e+00
6.268873e+00
6.238872e+00
6.295775e+00
6.341487e+00
6.403416e+00
6.504495e+00
6.639704e+00
6.832447e+00
7.048648e+00
7.135896e+00
6.705593e+00
5.597376e+00
4.632365e+00
7.376064e+00
7.346654e+00
7.324407e+00
7.271517e+00
7.250416e+00
7.250152e+00
7.235489e+00
7.215958e+00
7.191001e+00
7.153860e+00
7.118728e+00
7.104392e+00
7.081830e+00
6.835759e+00
6.263642e+00
5.775559e+00
7.375420e+00
7.345173e+00
7.321727e+00
7.267035e+00
7.243097e+00
7.238874e+00
7.216504e+00
7.180008e+00
7.131186e+00
7.072252e+00
7.015476e+00
6.989528e+00
7.017955e+00
7.015845e+00
6.910844e+00
6.799620e+00
6.430821e+00
6.358850e+00
6.324308e+00
6.253834e+00
6.215269e+00
6.262805e+00
6.289189e+00
6.310612e+00
6.379381e+00
6.516772e+00
6.701228e+00
6.887459e+00
7.067551e+00
7.225337e+00
7.322573e+00
7.362764e+00
4.497369e+00
4.368434e+00
4.349636e+00
4.306078e+00
4.282170e+00
4.442241e+00
4.593997e+00
4.773004e+00
5.117391e+00
5.654408e+00
6.278015e+00
6.808684e+00
7.172597e+00
7.406337e+00
7.544088e+00
7.604665e+00
2.849873e+00
2.719841e+00
2.779593e+00
2.771791e+00
2.799160e+00
3.065757e+00
3.328338e+00
3.655791e+00
4.230913e+00
5.080095e+00
6.021671e+00
6.780130e+00
7.250326e+00
7.506263e+00
7.635558e+00
7.688848e+00


-6.265945e-01
-2.195516e-01
-2.544628e-01
-2.729006e-01
-1.678938e-01
-2.120834e-01
-2.120015e-01
-1.812175e-01
-1.816879e-01
-1.925772e-01
-2.315866e-01
-2.607535e-01
-1.792023e-01
8.269914e-02
4.900973e-01
-6.973506e-01
5.559395e-01
4.163354e-01
3.251153e-01
2.610665e-01
3.035064e-01
2.653352e-01
2.515146e-01
2.595686e-01
2.570468e-01
2.661406e-01
2.952165e-01
3.780881e-01
5.577668e-01
7.905812e-01
7.400840e-01
-1.209576e+00
8.120477e-01
6.567355e-01
4.994189e-01
4.426790e-01
4.321238e-01
4.030797e-01
3.948792e-01
3.969419e-01
4.020012e-01
4.217812e-01
4.582022e-01
5.076092e-01
5.272588e-01
4.132940e-01
1.528756e-01
-3.146708e-01
8.583820e-01
7.242806e-01
5.573997e-01
4.702093e-01
4.269889e-01
4.055608e-01
4.003293e-01
4.020656e-01
4.026998e-01
3.930079e-01
3.599393e-01
2.836085e-01
1.306315e-01
-7.054090e-02
-7.344656e-02
3.945901e-02
8.592976e-01
7.253507e-01
5.581597e-01
4.687595e-01
4.214236e-01
3.918918e-01
3.733442e-01
3.563763e-01
3.276019e-01
2.702265e-01
1.746817e-01
4.600818e-02
-8.572260e-02
-1.110101e-01
9.961886e-02
4.607197e-01
8.142047e-01
6.594009e-01
5.017015e-01
4.413790e-01
4.234351e-01
3.785929e-01
3.438551e-01
3.080309e-01
2.473995e-01
1.584963e-01
5.777331e-02
-1.237615e-02
4.152003e-03
1.685025e-01
4.763716e-01
8.131018e-01
5.574196e-01
4.182945e-01
3.265121e-01
2.614298e-01
3.016228e-01
2.543027e-01
2.265629e-01
2.192101e-01
1.734812e-01
1.019625e-01
6.175996e-02
1.210778e-01
2.906238e-01
5.387290e-01
7.982971e-01
9.668541e-01
-6.289431e-01
-2.209946e-01
-2.570021e-01
-2.746500e-01
-1.648511e-01
-2.085315e-01
-2.016082e-01
-1.436072e-01
-1.311309e-01
-1.303108e-01
-2.931734e-02
2.435708e-01
5.841513e-01
8.418901e-01
9.686281e-01
9.993786e-01
1 2 19 18
2 3 20 19
3 4 21 20
4 5 22 21
5 6 23 22
6 7 24 23
7 8 25 24
8 9 26 25
9 10 27 26
10 11 28 27
11 12 29 28
12 13 30 29
13 14 31 30
14 15 32 31
15 16 33 32
16 17 34 33
18 19 36 35
19 20 37 36
20 21 38 37
21 22 39 38
22 23 40 39
23 24 41 40
24 25 42 41
25 26 43 42
26 27 44 43
27 28 45 44
28 29 46 45
29 30 47 46
30 31 48 47
31 32 49 48
32 33 50 49
33 34 51 50
35 36 53 52
36 37 54 53
37 38 55 54
38 39 56 55
39 40 57 56
40 41 58 57
41 42 59 58
42 43 60 59
43 44 61 60
44 45 62 61
45 46 63 62
46 47 64 63
47 48 65 64
48 49 66 65
49 50 67 66
50 51 68 67
52 53 70 69
53 54 71 70
54 55 72 71
55 56 73 72
56 57 74 73
57 58 75 74
58 59 76 75
59 60 77 76
60 61 78 77
61 62 79 78
62 63 80 79
63 64 81 80
64 65 82 81
65 66 83 82
66 67 84 83
67 68 85 84
69 70 87 86
70 71 88 87
71 72 89 88
72 73 90 89
73 74 91 90
74 75 92 91
75 76 93 92
76 77 94 93
77 78 95 94
78 79 96 95
79 80 97 96
80 81 98 97
81 82 99 98
82 83 100 99
83 84 101 100
84 85 102 101
86 87 104 103
87 88 105 104
88 89 106 105
89 90 107 106
90 91 108 107
91 92 109 108
92 93 110 109
93 94 111 110
94 95 112 111
95 96 113 112
96 97 114 113
97 98 115 114
98 99 116 115
99 100 117 116
100 101 118 117
101 102 119 118
103 104 121 120
104 105 122 121
105 106 123 122
106 107 124 123
107 108 125 124
108 109 126 125
109 110 127 126
110 111 128 127
111 112 129 128
112 113 130 129
113 114 131 130
114 115 132 131
115 116 133 132
116 117 134 133
117 118 135 134
118 119 136 135
120 121 138 137
121 122 139 138
122 123 140 139
123 124 141 140
124 125 142 141
125 126 143 142
126 127 144 143
127 128 145 144
128 129 146 145
129 130 147 146
130 131 148 147
131 132 149 148
132 133 150 149
133 134 151 150
134 135 152 151
135 136 153 152
