TITLE = "Solution"
VARIABLES = x, y, u, v, psiu, psiv, t, stress
ZONE T="structure" N=153 E=128 F=FEBLOCK ET=QUADRILATERAL VARLOCATION=([7,8]=cellcentered)
0.000000e+00
1.250000e+01
2.500000e+01
3.750000e+01
5.000000e+01
6.250000e+01
7.500000e+01
8.750000e+01
1.000000e+02
1.125000e+02
1.250000e+02
1.375000e+02
1.500000e+02
1.625000e+02
1.750000e+02
1.875000e+02
2.000000e+02
0.000000e+00
1.250000e+01
2.500000e+01
3.750000e+01
5.000000e+01
6.250000e+01
7.500000e+01
8.750000e+01
1.000000e+02
1.125000e+02
1.250000e+02
1.375000e+02
1.500000e+02
1.625000e+02
1.750000e+02
1.875000e+02
2.000000e+02
0.000000e+00
1.250000e+01
2.500000e+01
3.750000e+01
5.000000e+01
6.250000e+01
7.500000e+01
8.750000e+01
1.000000e+02
1.125000e+02
1.250000e+02
1.375000e+02
1.500000e+02
1.625000e+02
1.750000e+02
1.875000e+02
2.000000e+02
0.000000e+00
1.250000e+01
2.500000e+01
3.750000e+01
5.000000e+01
6.250000e+01
7.500000e+01
8.750000e+01
1.000000e+02
1.125000e+02
1.250000e+02
1.375000e+02
1.500000e+02
1.625000e+02
1.750000e+02
1.875000e+02
2.000000e+02
0.000000e+00
1.250000e+01
2.500000e+01
3.750000e+01
5.000000e+01
6.250000e+01
7.500000e+01
8.750000e+01
1.000000e+02
1.125000e+02
1.250000e+02
1.375000e+02
1.500000e+02
1.625000e+02
1.750000e+02
1.875000e+02
2.000000e+02
0.000000e+00
1.250000e+01
2.500000e+01
3.750000e+01
5.000000e+01
6.250000e+01
7.500000e+01
8.750000e+01
1.000000e+02
1.125000e+02
1.250000e+02
1.375000e+02
1.500000e+02
1.625000e+02
1.750000e+02
1.875000e+02
2.000000e+02
0.000000e+00
1.250000e+01
2.500000e+01
3.750000e+01
5.000000e+01
6.250000e+01
7.500000e+01
8.750000e+01
1.000000e+02
1.125000e+02
1.250000e+02
1.375000e+02
1.500000e+02
1.625000e+02
1.750000e+02
1.875000e+02
2.000000e+02
0.000000e+00
1.250000e+01
2.500000e+01
3.750000e+01
5.000000e+01
6.250000e+01
7.500000e+01
8.750000e+01
1.000000e+02
1.125000e+02
1.250000e+02
1.375000e+02
1.500000e+02
1.625000e+02
1.750000e+02
1.875000e+02
2.000000e+02
0.000000e+00
1.250000e+01
2.500000e+01
3.750000e+01
5.000000e+01
6.250000e+01
7.500000e+01
8.750000e+01
1.000000e+02
1.125000e+02
1.250000e+02
1.375000e+02
1.500000e+02
1.625000e+02
1.750000e+02
1.875000e+02
2.000000e+02
0.000000e+00
0.000000e+00
0.000000e+00
0.000000e+00
0.000000e+00
0.000000e+00
0.000000e+00
0.000000e+00
0.000000e+00
0.000000e+00
0.000000e+00
0.000000e+00
0.000000e+00
0.000000e+00
0.000000e+00
0.000000e+00
0.000000e+00
1.250000e+01
1.250000e+01
1.250000e+01
1.250000e+01
1.250000e+01
1.250000e+01
1.250000e+01
1.250000e+01
1.250000e+01
1.250000e+01
1.250000e+01
1.250000e+01
1.250000e+01
1.250000e+01
1.250000e+01
1.250000e+01
1.250000e+01
2.500000e+01
2.500000e+01
2.500000e+01
2.500000e+01
2.500000e+01
2.500000e+01
2.500000e+01
2.500000e+01
2.500000e+01
2.500000e+01
2.500000e+01
2.500000e+01
2.500000e+01
2.500000e+01
2.500000e+01
2.500000e+01
2.500000e+01
3.750000e+01
3.750000e+01
3.750000e+01
3.750000e+01
3.750000e+01
3.750000e+01
3.750000e+01
3.750000e+01
3.750000e+01
3.750000e+01
3.750000e+01
3.750000e+01
3.750000e+01
3.750000e+01
3.750000e+01
3.750000e+01
3.750000e+01
5.000000e+01
5.000000e+01
5.000000e+01
5.000000e+01
5.000000e+01
5.000000e+01
5.000000e+01
5.000000e+01
5.000000e+01
5.000000e+01
5.000000e+01
5.000000e+01
5.000000e+01
5.000000e+01
5.000000e+01
5.000000e+01
5.000000e+01
6.250000e+01
6.250000e+01
6.250000e+01
6.250000e+01
6.250000e+01
6.250000e+01
6.250000e+01
6.250000e+01
6.250000e+01
6.250000e+01
6.250000e+01
6.250000e+01
6.250000e+01
6.250000e+01
6.250000e+01
6.250000e+01
6.250000e+01
7.500000e+01
7.500000e+01
7.500000e+01
7.500000e+01
7.500000e+01
7.500000e+01
7.500000e+01
7.500000e+01
7.500000e+01
7.500000e+01
7.500000e+01
7.500000e+01
7.500000e+01
7.500000e+01
7.500000e+01
7.500000e+01
7.500000e+01
8.750000e+01
8.750000e+01
8.750000e+01
8.750000e+01
8.750000e+01
8.750000e+01
8.750000e+01
8.750000e+01
8.750000e+01
8.750000e+01
8.750000e+01
8.750000e+01
8.750000e+01
8.750000e+01
8.750000e+01
8.750000e+01
8.750000e+01
1.000000e+02
1.000000e+02
1.000000e+02
1.000000e+02
1.000000e+02
1.000000e+02
1.000000e+02
1.000000e+02
1.000000e+02
1.000000e+02
1.000000e+02
1.000000e+02
1.000000e+02
1.000000e+02
1.000000e+02
1.000000e+02
1.000000e+02
0.000000e+00
-8.551081e-01
-1.536457e+00
-2.204917e+00
-2.885393e+00
-3.546391e+00
-4.203559e+00
-4.861703e+00
-5.515426e+00
-6.165068e+00
-6.807816e+00
-7.433905e+00
-8.037436e+00
-8.627519e+00
-9.223727e+00
-9.850818e+00
-1.028009e+01
0.000000e+00
-4.593702e-01
-9.541492e-01
-1.448868e+00
-1.958200e+00
-2.453255e+00
-2.944509e+00
-3.436163e+00
-3.923697e+00
-4.406148e+00
-4.879362e+00
-5.331078e+00
-5.744914e+00
-6.097707e+00
-6.337469e+00
-6.392029e+00
-6.537623e+00
0.000000e+00
-2.472746e-01
-5.248271e-01
-8.432799e-01
-1.179073e+00
-1.511315e+00
-1.843675e+00
-2.175003e+00
-2.500872e+00
-2.817252e+00
-3.115777e+00
-3.381313e+00
-3.592647e+00
-3.721463e+00
-3.739813e+00
-3.708522e+00
-3.858937e+00
0.000000e+00
-1.073824e-01
-2.317540e-01
-3.823254e-01
-5.455409e-01
-7.129839e-01
-8.813956e-01
-1.047265e+00
-1.206754e+00
-1.354319e+00
-1.481032e+00
-1.574353e+00
-1.619945e+00
-1.608407e+00
-1.560985e+00
-1.566865e+00
-1.689564e+00
0.000000e+00
-6.917896e-04
-1.403766e-03
-2.000347e-03
-2.225181e-03
-1.615292e-03
6.345668e-04
5.866584e-03
1.633054e-02
3.565250e-02
6.893293e-02
1.216854e-01
1.962753e-01
2.831264e-01
3.473703e-01
3.413597e-01
2.523199e-01
0.000000e+00
1.062034e-01
2.293355e-01
3.787838e-01
5.413984e-01
7.095215e-01
8.811741e-01
1.055050e+00
1.230979e+00
1.409116e+00
1.588480e+00
1.765694e+00
1.932686e+00
2.072394e+00
2.158442e+00
2.169894e+00
2.122373e+00
0.000000e+00
2.466630e-01
5.234877e-01
8.411130e-01
1.176141e+00
1.507972e+00
1.840628e+00
2.173935e+00
2.505268e+00
2.832282e+00
3.147630e+00
3.437848e+00
3.686589e+00
3.876921e+00
3.993704e+00
4.032701e+00
4.021754e+00
0.000000e+00
4.594684e-01
9.542139e-01
1.448737e+00
1.957700e+00
2.452000e+00
2.941418e+00
3.429817e+00
3.912563e+00
4.385280e+00
4.834232e+00
5.234261e+00
5.559948e+00
5.795390e+00
5.937831e+00
5.998897e+00
6.010231e+00
0.000000e+00
8.557068e-01
1.537812e+00
2.207159e+00
2.888627e+00
3.550385e+00
4.207185e+00
4.863161e+00
5.511677e+00
6.145277e+00
6.741116e+00
7.259375e+00
7.660961e+00
7.923600e+00
8.051353e+00
8.082292e+00
8.081317e+00
0.000000e+00
-5.274075e-01
-1.096379e+00
-1.851517e+00
-2.774381e+00
-3.863796e+00
-5.127066e+00
-6.563614e+00
-8.171850e+00
-9.951192e+00
-1.189756e+01
-1.400384e+01
-1.626634e+01
-1.869451e+01
-2.134999e+01
-2.444713e+01
-2.901437e+01
0.000000e+00
-3.346921e-01
-9.290801e-01
-1.675446e+00
-2.599250e+00
-3.691607e+00
-4.955195e+00
-6.392576e+00
-8.002625e+00
-9.784480e+00
-1.173596e+01
-1.385136e+01
-1.612648e+01
-1.857354e+01
-2.124747e+01
-2.434103e+01
-2.815307e+01
0.000000e+00
-2.765607e-01
-8.193017e-01
-1.557926e+00
-2.477175e+00
-3.569341e+00
-4.834023e+00
-6.273463e+00
-7.887206e+00
-9.675320e+00
-1.163700e+01
-1.376796e+01
-1.606574e+01
-1.854295e+01
-2.123310e+01
-2.415200e+01
-2.692057e+01
0.000000e+00
-2.742590e-01
-7.787302e-01
-1.497110e+00
-2.407935e+00
-3.497765e+00
-4.763994e+00
-6.207002e+00
-7.827079e+00
-9.625356e+00
-1.160141e+01
-1.375062e+01
-1.606726e+01
-1.854914e+01
-2.117564e+01
-2.381699e+01
-2.615518e+01
0.000000e+00
-2.783759e-01
-7.715150e-01
-1.480703e+00
-2.387030e+00
-3.476494e+00
-4.744965e+00
-6.192104e+00
-7.818980e+00
-9.627458e+00
-1.161654e+01
-1.377835e+01
-1.609741e+01
-1.854701e+01
-2.106189e+01
-2.350063e+01
-2.563648e+01
0.000000e+00
-2.741119e-01
-7.789605e-01
-1.498308e+00
-2.410961e+00
-3.503898e+00
-4.774956e+00
-6.225266e+00
-7.856579e+00
-9.671366e+00
-1.166773e+01
-1.383264e+01
-1.613845e+01
-1.853800e+01
-2.095281e+01
-2.326489e+01
-2.532309e+01
0.000000e+00
-2.762950e-01
-8.196298e-01
-1.559782e+00
-2.481980e+00
-3.579205e+00
-4.851848e+00
-6.303457e+00
-7.936048e+00
-9.752104e+00
-1.174859e+01
-1.390757e+01
-1.619182e+01
-1.854352e+01
-2.088435e+01
-2.312482e+01
-2.518126e+01
0.000000e+00
-3.344256e-01
-9.294251e-01
-1.677470e+00
-2.604575e+00
-3.702580e+00
-4.975130e+00
-6.426428e+00
-8.058022e+00
-9.871292e+00
-1.186096e+01
-1.400564e+01
-1.626407e+01
-1.857584e+01
-2.086653e+01
-2.306593e+01
-2.514845e+01
0.000000e+00
-5.272974e-01
-1.096859e+00
-1.853710e+00
-2.779907e+00
-3.874891e+00
-5.146933e+00
-6.597261e+00
-8.226397e+00
-1.003396e+01
-1.201018e+01
-1.413080e+01
-1.635562e+01
-1.862815e+01
-2.088084e+01
-2.305499e+01
-2.514934e+01


0.000000e+00
1.163556e-05
2.192359e-05
3.217181e-05
4.372958e-05
5.500519e-05
6.544968e-05
7.538987e-05
8.470451e-05
9.283459e-05
9.921930e-05
1.037099e-04
1.067289e-04
1.090236e-04
1.110971e-04
1.137580e-04
1.170203e-04
0.000000e+00
8.573476e-06
1.769194e-05
2.536489e-05
3.430631e-05
4.300491e-05
5.077842e-05
5.814481e-05
6.508326e-05
7.099084e-05
7.534647e-05
7.804597e-05
7.935483e-05
7.960466e-05
7.978077e-05
8.194012e-05
8.558872e-05
0.000000e+00
6.562055e-06
1.278604e-05
1.808029e-05
2.410850e-05
2.979839e-05
3.489749e-05
3.966087e-05
4.398978e-05
4.752888e-05
5.001430e-05
5.140109e-05
5.185634e-05
5.177002e-05
5.199267e-05
5.397199e-05
5.734938e-05
0.000000e+00
3.303771e-06
6.009082e-06
9.106626e-06
1.202685e-05
1.473308e-05
1.728273e-05
1.959820e-05
2.157602e-05
2.314245e-05
2.422356e-05
2.481597e-05
2.506780e-05
2.529936e-05
2.585938e-05
2.720440e-05
2.932809e-05
0.000000e+00
-1.142752e-08
-2.361753e-08
-3.543630e-08
-4.682344e-08
-5.885899e-08
-7.356263e-08
-1.018057e-07
-1.677426e-07
-2.944478e-07
-4.695059e-07
-6.297213e-07
-6.619944e-07
-4.446462e-07
-4.587422e-08
4.734413e-07
1.400108e-06
0.000000e+00
-3.324489e-06
-6.049918e-06
-9.168725e-06
-1.211055e-05
-1.483509e-05
-1.739935e-05
-1.973840e-05
-2.178392e-05
-2.348622e-05
-2.477766e-05
-2.561048e-05
-2.600538e-05
-2.608284e-05
-2.607748e-05
-2.606149e-05
-2.577646e-05
0.000000e+00
-6.572932e-06
-1.280958e-05
-1.812323e-05
-2.417600e-05
-2.988033e-05
-3.498634e-05
-3.976159e-05
-4.405625e-05
-4.744260e-05
-4.971858e-05
-5.103783e-05
-5.172066e-05
-5.207141e-05
-5.230092e-05
-5.244079e-05
-5.238895e-05
0.000000e+00
-8.573870e-06
-1.769324e-05
-2.537484e-05
-3.433308e-05
-4.303455e-05
-5.080850e-05
-5.820598e-05
-6.509152e-05
-7.063607e-05
-7.434857e-05
-7.649890e-05
-7.768876e-05
-7.837192e-05
-7.877984e-05
-7.898604e-05
-7.902178e-05
0.000000e+00
-1.163426e-05
-2.191009e-05
-3.214551e-05
-4.369164e-05
-5.494103e-05
-6.535524e-05
-7.529070e-05
-8.453159e-05
-9.227055e-05
-9.791081e-05
-1.015607e-04
-1.037524e-04
-1.049952e-04
-1.056253e-04
-1.058534e-04
-1.058881e-04
0.000000e+00
1.004045e-05
1.699214e-05
2.599623e-05
3.801669e-05
5.207864e-05
6.867720e-05
8.807099e-05
1.097452e-04
1.331116e-04
1.577751e-04
1.835379e-04
2.103996e-04
2.388414e-04
2.712070e-04
3.088477e-04
3.472281e-04
0.000000e+00
5.360966e-06
1.271959e-05
2.119905e-05
3.282077e-05
4.718624e-05
6.414699e-05
8.377208e-05
1.058552e-04
1.299498e-04
1.555409e-04
1.821839e-04
2.096789e-04
2.382968e-04
2.689727e-04
3.042560e-04
3.414934e-04
0.000000e+00
2.419372e-06
9.088651e-06
1.765798e-05
2.903124e-05
4.362869e-05
6.093558e-05
8.080509e-05
1.032216e-04
1.278510e-04
1.540996e-04
1.813873e-04
2.093818e-04
2.378137e-04
2.663903e-04
2.986635e-04
3.339034e-04
0.000000e+00
1.406195e-06
7.317015e-06
1.600048e-05
2.749023e-05
4.213317e-05
5.957011e-05
7.962401e-05
1.022202e-04
1.270392e-04
1.535092e-04
1.810298e-04
2.091306e-04
2.372825e-04
2.647380e-04
2.945038e-04
3.271422e-04
0.000000e+00
1.188656e-06
6.795268e-06
1.543965e-05
2.706418e-05
4.168865e-05
5.915331e-05
7.929919e-05
1.019898e-04
1.268832e-04
1.534068e-04
1.809375e-04
2.089386e-04
2.368774e-04
2.642937e-04
2.927113e-04
3.226279e-04
0.000000e+00
1.408308e-06
7.314041e-06
1.598686e-05
2.746551e-05
4.209636e-05
5.952598e-05
7.961477e-05
1.023191e-04
1.272683e-04
1.537918e-04
1.812174e-04
2.090265e-04
2.368026e-04
2.643772e-04
2.922226e-04
3.202513e-04
0.000000e+00
2.422904e-06
9.084625e-06
1.763826e-05
2.899433e-05
4.357119e-05
6.086377e-05
8.079377e-05
1.034003e-04
1.282664e-04
1.546347e-04
1.818157e-04
2.093579e-04
2.369673e-04
2.645030e-04
2.920209e-04
3.192367e-04
0.000000e+00
5.366024e-06
1.271993e-05
2.118656e-05
3.278959e-05
4.712966e-05
6.408073e-05
8.377140e-05
1.060234e-04
1.303146e-04
1.560250e-04
1.826438e-04
2.097966e-04
2.371855e-04
2.646031e-04
2.919150e-04
3.189330e-04
0.000000e+00
1.004653e-05
1.699525e-05
2.599227e-05
3.799466e-05
5.202714e-05
6.862603e-05
8.808353e-05
1.098318e-04
1.332144e-04
1.578922e-04
1.836946e-04
2.103398e-04
2.374500e-04
2.647122e-04
2.919036e-04
3.188938e-04


2.290767e+00
2.205519e+00
2.336790e+00
2.525525e+00
2.668753e+00
2.929710e+00
3.258792e+00
3.637611e+00
4.102090e+00
4.614474e+00
5.077217e+00
5.409977e+00
5.541910e+00
5.280296e+00
4.608613e+00
4.054343e+00
3.270840e+00
3.186469e+00
3.253459e+00
3.369943e+00
3.459280e+00
3.643513e+00
3.881574e+00
4.158328e+00
4.504617e+00
4.893264e+00
5.247376e+00
5.499131e+00
5.573065e+00
5.260546e+00
4.566338e+00
3.995167e+00
4.634252e+00
4.577933e+00
4.589873e+00
4.618288e+00
4.640443e+00
4.719624e+00
4.823091e+00
4.946038e+00
5.109422e+00
5.301545e+00
5.481149e+00
5.607737e+00
5.621699e+00
5.347140e+00
4.778818e+00
4.337084e+00
5.440316e+00
5.409001e+00
5.395097e+00
5.376044e+00
5.370370e+00
5.385375e+00
5.404935e+00
5.430185e+00
5.472271e+00
5.530418e+00
5.591063e+00
5.638908e+00
5.642453e+00
5.500024e+00
5.202543e+00
4.971213e+00
5.440329e+00
5.408858e+00
5.394608e+00
5.375003e+00
5.368267e+00
5.380847e+00
5.396282e+00
5.416644e+00
5.453645e+00
5.505995e+00
5.561829e+00
5.612924e+00
5.648101e+00
5.626001e+00
5.536391e+00
5.461552e+00
4.634048e+00
4.577239e+00
4.588159e+00
4.615242e+00
4.634993e+00
4.708929e+00
4.805627e+00
4.925178e+00
5.087943e+00
5.274324e+00
5.442465e+00
5.570891e+00
5.661111e+00
5.710420e+00
5.720638e+00
5.716680e+00
3.270032e+00
3.184934e+00
3.250631e+00
3.365922e+00
3.453593e+00
3.634776e+00
3.874511e+00
4.167840e+00
4.539878e+00
4.940332e+00
5.282338e+00
5.523527e+00
5.674759e+00
5.762197e+00
5.806596e+00
5.823746e+00
2.289425e+00
2.203470e+00
2.333581e+00
2.521817e+00
2.665130e+00
2.927070e+00
3.267751e+00
3.682302e+00
4.196219e+00
4.736808e+00
5.189197e+00
5.499924e+00
5.685932e+00
5.788236e+00
5.839614e+00
5.860707e+00


-5.215332e-01
-2.215389e-01
-1.864291e-01
-2.409183e-01
-1.745047e-01
-1.604744e-01
-1.646082e-01
-1.492961e-01
-1.319954e-01
-9.924777e-02
-2.220026e-02
9.541978e-02
2.320365e-01
3.964455e-01
5.849411e-01
-5.244901e-01
5.253781e-01
4.008726e-01
3.506229e-01
3.009589e-01
3.219637e-01
3.191083e-01
3.095800e-01
3.138823e-01
3.280617e-01
3.661159e-01
4.501441e-01
5.826522e-01
7.448523e-01
8.854427e-01
7.589664e-01
-1.277354e+00
8.302817e-01
7.203596e-01
6.231040e-01
5.773401e-01
5.666352e-01
5.537541e-01
5.441799e-01
5.431528e-01
5.510657e-01
5.750429e-01
6.210699e-01
6.760263e-01
6.935625e-01
5.909617e-01
2.761083e-01
-2.782678e-01
9.133487e-01
8.183463e-01
7.229833e-01
6.687127e-01
6.457108e-01
6.339452e-01
6.256626e-01
6.172079e-01
6.046599e-01
5.859983e-01
5.584129e-01
5.087879e-01
4.127095e-01
2.812709e-01
2.295649e-01
2.532036e-01
9.139231e-01
8.190043e-01
7.234460e-01
6.680618e-01
6.424864e-01
6.259653e-01
6.092979e-01
5.862557e-01
5.496947e-01
4.958914e-01
4.265713e-01
3.479245e-01
2.801995e-01
2.844075e-01
4.235988e-01
6.476937e-01
8.316407e-01
7.219820e-01
6.244890e-01
5.768106e-01
5.614363e-01
5.395683e-01
5.131281e-01
4.816612e-01
4.391734e-01
3.893881e-01
3.451889e-01
3.250783e-01
3.587998e-01
4.796841e-01
6.782697e-01
8.849987e-01
5.263600e-01
4.021794e-01
3.520065e-01
3.016785e-01
3.207950e-01
3.144964e-01
2.965593e-01
2.828272e-01
2.694431e-01
2.750036e-01
3.237191e-01
4.184354e-01
5.516991e-01
7.158465e-01
8.774950e-01
9.798809e-01
-5.227509e-01
-2.229713e-01
-1.878364e-01
-2.423603e-01
-1.749370e-01
-1.571751e-01
-1.563586e-01
-1.348801e-01
-9.230383e-02
1.516310e-02
2.228786e-01
4.903528e-01
7.361849e-01
9.025494e-01
9.809297e-01
9.996210e-01
1 2 19 18
2 3 20 19
3 4 21 20
4 5 22 21
5 6 23 22
6 7 24 23
7 8 25 24
8 9 26 25
9 10 27 26
10 11 28 27
11 12 29 28
12 13 30 29
13 14 31 30
14 15 32 31
15 16 33 32
16 17 34 33
18 19 36 35
19 20 37 36
20 21 38 37
21 22 39 38
22 23 40 39
23 24 41 40
24 25 42 41
25 26 43 42
26 27 44 43
27 28 45 44
28 29 46 45
29 30 47 46
30 31 48 47
31 32 49 48
32 33 50 49
33 34 51 50
35 36 53 52
36 37 54 53
37 38 55 54
38 39 56 55
39 40 57 56
40 41 58 57
41 42 59 58
42 43 60 59
43 44 61 60
44 45 62 61
45 46 63 62
46 47 64 63
47 48 65 64
48 49 66 65
49 50 67 66
50 51 68 67
52 53 70 69
53 54 71 70
54 55 72 71
55 56 73 72
56 57 74 73
57 58 75 74
58 59 76 75
59 60 77 76
60 61 78 77
61 62 79 78
62 63 80 79
63 64 81 80
64 65 82 81
65 66 83 82
66 67 84 83
67 68 85 84
69 70 87 86
70 71 88 87
71 72 89 88
72 73 90 89
73 74 91 90
74 75 92 91
75 76 93 92
76 77 94 93
77 78 95 94
78 79 96 95
79 80 97 96
80 81 98 97
81 82 99 98
82 83 100 99
83 84 101 100
84 85 102 101
86 87 104 103
87 88 105 104
88 89 106 105
89 90 107 106
90 91 108 107
91 92 109 108
92 93 110 109
93 94 111 110
94 95 112 111
95 96 113 112
96 97 114 113
97 98 115 114
98 99 116 115
99 100 117 116
100 101 118 117
101 102 119 118
103 104 121 120
104 105 122 121
105 106 123 122
106 107 124 123
107 108 125 124
108 109 126 125
109 110 127 126
110 111 128 127
111 112 129 128
112 113 130 129
113 114 131 130
114 115 132 131
115 116 133 132
116 117 134 133
117 118 135 134
118 119 136 135
120 121 138 137
121 122 139 138
122 123 140 139
123 124 141 140
124 125 142 141
125 126 143 142
126 127 144 143
127 128 145 144
128 129 146 145
129 130 147 146
130 131 148 147
131 132 149 148
132 133 150 149
133 134 151 150
134 135 152 151
135 136 153 152
