TITLE = "Solution"
VARIABLES = x, y, u, v, psiu, psiv, t, stress
ZONE T="structure" N=153 E=128 F=FEBLOCK ET=QUADRILATERAL VARLOCATION=([7,8]=cellcentered)
0.000000e+00
1.250000e+01
2.500000e+01
3.750000e+01
5.000000e+01
6.250000e+01
7.500000e+01
8.750000e+01
1.000000e+02
1.125000e+02
1.250000e+02
1.375000e+02
1.500000e+02
1.625000e+02
1.750000e+02
1.875000e+02
2.000000e+02
0.000000e+00
1.250000e+01
2.500000e+01
3.750000e+01
5.000000e+01
6.250000e+01
7.500000e+01
8.750000e+01
1.000000e+02
1.125000e+02
1.250000e+02
1.375000e+02
1.500000e+02
1.625000e+02
1.750000e+02
1.875000e+02
2.000000e+02
0.000000e+00
1.250000e+01
2.500000e+01
3.750000e+01
5.000000e+01
6.250000e+01
7.500000e+01
8.750000e+01
1.000000e+02
1.125000e+02
1.250000e+02
1.375000e+02
1.500000e+02
1.625000e+02
1.750000e+02
1.875000e+02
2.000000e+02
0.000000e+00
1.250000e+01
2.500000e+01
3.750000e+01
5.000000e+01
6.250000e+01
7.500000e+01
8.750000e+01
1.000000e+02
1.125000e+02
1.250000e+02
1.375000e+02
1.500000e+02
1.625000e+02
1.750000e+02
1.875000e+02
2.000000e+02
0.000000e+00
1.250000e+01
2.500000e+01
3.750000e+01
5.000000e+01
6.250000e+01
7.500000e+01
8.750000e+01
1.000000e+02
1.125000e+02
1.250000e+02
1.375000e+02
1.500000e+02
1.625000e+02
1.750000e+02
1.875000e+02
2.000000e+02
0.000000e+00
1.250000e+01
2.500000e+01
3.750000e+01
5.000000e+01
6.250000e+01
7.500000e+01
8.750000e+01
1.000000e+02
1.125000e+02
1.250000e+02
1.375000e+02
1.500000e+02
1.625000e+02
1.750000e+02
1.875000e+02
2.000000e+02
0.000000e+00
1.250000e+01
2.500000e+01
3.750000e+01
5.000000e+01
6.250000e+01
7.500000e+01
8.750000e+01
1.000000e+02
1.125000e+02
1.250000e+02
1.375000e+02
1.500000e+02
1.625000e+02
1.750000e+02
1.875000e+02
2.000000e+02
0.000000e+00
1.250000e+01
2.500000e+01
3.750000e+01
5.000000e+01
6.250000e+01
7.500000e+01
8.750000e+01
1.000000e+02
1.125000e+02
1.250000e+02
1.375000e+02
1.500000e+02
1.625000e+02
1.750000e+02
1.875000e+02
2.000000e+02
0.000000e+00
1.250000e+01
2.500000e+01
3.750000e+01
5.000000e+01
6.250000e+01
7.500000e+01
8.750000e+01
1.000000e+02
1.125000e+02
1.250000e+02
1.375000e+02
1.500000e+02
1.625000e+02
1.750000e+02
1.875000e+02
2.000000e+02
0.000000e+00
0.000000e+00
0.000000e+00
0.000000e+00
0.000000e+00
0.000000e+00
0.000000e+00
0.000000e+00
0.000000e+00
0.000000e+00
0.000000e+00
0.000000e+00
0.000000e+00
0.000000e+00
0.000000e+00
0.000000e+00
0.000000e+00
1.250000e+01
1.250000e+01
1.250000e+01
1.250000e+01
1.250000e+01
1.250000e+01
1.250000e+01
1.250000e+01
1.250000e+01
1.250000e+01
1.250000e+01
1.250000e+01
1.250000e+01
1.250000e+01
1.250000e+01
1.250000e+01
1.250000e+01
2.500000e+01
2.500000e+01
2.500000e+01
2.500000e+01
2.500000e+01
2.500000e+01
2.500000e+01
2.500000e+01
2.500000e+01
2.500000e+01
2.500000e+01
2.500000e+01
2.500000e+01
2.500000e+01
2.500000e+01
2.500000e+01
2.500000e+01
3.750000e+01
3.750000e+01
3.750000e+01
3.750000e+01
3.750000e+01
3.750000e+01
3.750000e+01
3.750000e+01
3.750000e+01
3.750000e+01
3.750000e+01
3.750000e+01
3.750000e+01
3.750000e+01
3.750000e+01
3.750000e+01
3.750000e+01
5.000000e+01
5.000000e+01
5.000000e+01
5.000000e+01
5.000000e+01
5.000000e+01
5.000000e+01
5.000000e+01
5.000000e+01
5.000000e+01
5.000000e+01
5.000000e+01
5.000000e+01
5.000000e+01
5.000000e+01
5.000000e+01
5.000000e+01
6.250000e+01
6.250000e+01
6.250000e+01
6.250000e+01
6.250000e+01
6.250000e+01
6.250000e+01
6.250000e+01
6.250000e+01
6.250000e+01
6.250000e+01
6.250000e+01
6.250000e+01
6.250000e+01
6.250000e+01
6.250000e+01
6.250000e+01
7.500000e+01
7.500000e+01
7.500000e+01
7.500000e+01
7.500000e+01
7.500000e+01
7.500000e+01
7.500000e+01
7.500000e+01
7.500000e+01
7.500000e+01
7.500000e+01
7.500000e+01
7.500000e+01
7.500000e+01
7.500000e+01
7.500000e+01
8.750000e+01
8.750000e+01
8.750000e+01
8.750000e+01
8.750000e+01
8.750000e+01
8.750000e+01
8.750000e+01
8.750000e+01
8.750000e+01
8.750000e+01
8.750000e+01
8.750000e+01
8.750000e+01
8.750000e+01
8.750000e+01
8.750000e+01
1.000000e+02
1.000000e+02
1.000000e+02
1.000000e+02
1.000000e+02
1.000000e+02
1.000000e+02
1.000000e+02
1.000000e+02
1.000000e+02
1.000000e+02
1.000000e+02
1.000000e+02
1.000000e+02
1.000000e+02
1.000000e+02
1.000000e+02
0.000000e+00
-9.196095e-01
-1.606758e+00
-2.309337e+00
-2.996122e+00
-3.654108e+00
-4.329355e+00
-4.997231e+00
-5.657706e+00
-6.322077e+00
-6.986198e+00
-7.667723e+00
-8.384956e+00
-9.125547e+00
-9.873509e+00
-1.056616e+01
-1.101371e+01
0.000000e+00
-4.522759e-01
-9.358500e-01
-1.438639e+00
-1.955514e+00
-2.447511e+00
-2.952505e+00
-3.455400e+00
-3.951000e+00
-4.447824e+00
-4.940844e+00
-5.435538e+00
-5.934253e+00
-6.402249e+00
-6.740605e+00
-6.826049e+00
-6.992255e+00
0.000000e+00
-2.035959e-01
-4.510987e-01
-7.606821e-01
-1.099813e+00
-1.430977e+00
-1.774395e+00
-2.116785e+00
-2.454486e+00
-2.789241e+00
-3.112649e+00
-3.415824e+00
-3.679975e+00
-3.864957e+00
-3.917596e+00
-3.895153e+00
-4.047960e+00
0.000000e+00
-8.947725e-02
-1.922937e-01
-3.357954e-01
-4.896123e-01
-6.576732e-01
-8.292188e-01
-9.987262e-01
-1.165144e+00
-1.322947e+00
-1.463468e+00
-1.572375e+00
-1.629719e+00
-1.618245e+00
-1.555064e+00
-1.552546e+00
-1.682397e+00
0.000000e+00
-1.529043e-03
-3.070725e-03
-4.333674e-03
-4.881998e-03
-3.965569e-03
-4.995166e-04
7.357858e-03
2.225475e-02
4.755529e-02
8.885192e-02
1.542540e-01
2.494436e-01
3.667802e-01
4.637153e-01
4.726945e-01
3.693467e-01
0.000000e+00
8.686730e-02
1.871602e-01
3.282538e-01
4.808066e-01
6.498386e-01
8.265223e-01
1.008652e+00
1.199272e+00
1.399083e+00
1.608886e+00
1.824995e+00
2.036395e+00
2.220914e+00
2.341652e+00
2.364654e+00
2.304747e+00
0.000000e+00
2.024107e-01
4.486154e-01
7.568034e-01
1.094719e+00
1.425216e+00
1.769902e+00
2.117357e+00
2.464095e+00
2.815864e+00
3.171393e+00
3.519597e+00
3.833348e+00
4.081337e+00
4.237610e+00
4.291037e+00
4.276465e+00
0.000000e+00
4.524341e-01
9.357616e-01
1.438169e+00
1.954625e+00
2.444862e+00
2.947325e+00
3.447829e+00
3.935063e+00
4.418058e+00
4.899704e+00
5.365867e+00
5.773733e+00
6.080162e+00
6.269222e+00
6.351093e+00
6.366238e+00
0.000000e+00
9.207786e-01
1.608912e+00
2.312784e+00
3.001190e+00
3.659123e+00
4.332482e+00
4.997109e+00
5.643493e+00
6.281285e+00
6.912532e+00
7.511986e+00
8.013114e+00
8.354685e+00
8.525100e+00
8.567513e+00
8.566481e+00
0.000000e+00
-5.714044e-01
-1.224298e+00
-2.092987e+00
-3.130397e+00
-4.335277e+00
-5.719902e+00
-7.274904e+00
-9.002555e+00
-1.090574e+01
-1.298357e+01
-1.524477e+01
-1.769972e+01
-2.035329e+01
-2.324279e+01
-2.657219e+01
-3.148887e+01
0.000000e+00
-3.721545e-01
-1.056516e+00
-1.911949e+00
-2.956239e+00
-4.161046e+00
-5.543804e+00
-7.101354e+00
-8.829821e+00
-1.073386e+01
-1.281219e+01
-1.507046e+01
-1.752445e+01
-2.019404e+01
-2.312412e+01
-2.647393e+01
-3.051607e+01
0.000000e+00
-3.280364e-01
-9.518748e-01
-1.799155e+00
-2.834571e+00
-4.037768e+00
-5.420332e+00
-6.978645e+00
-8.709953e+00
-1.061859e+01
-1.270425e+01
-1.497366e+01
-1.744473e+01
-2.014706e+01
-2.311628e+01
-2.630087e+01
-2.928663e+01
0.000000e+00
-3.526964e-01
-9.290225e-01
-1.752143e+00
-2.767970e+00
-3.968420e+00
-5.350946e+00
-6.910590e+00
-8.647446e+00
-1.056472e+01
-1.266531e+01
-1.495607e+01
-1.744767e+01
-2.015474e+01
-2.306318e+01
-2.597400e+01
-2.851047e+01
0.000000e+00
-3.622368e-01
-9.336436e-01
-1.739855e+00
-2.751405e+00
-3.950024e+00
-5.334753e+00
-6.898843e+00
-8.642234e+00
-1.056858e+01
-1.268356e+01
-1.499148e+01
-1.748832e+01
-2.015849e+01
-2.293318e+01
-2.562131e+01
-2.791423e+01
0.000000e+00
-3.525878e-01
-9.298085e-01
-1.754821e+00
-2.774080e+00
-3.979432e+00
-5.368919e+00
-6.939150e+00
-8.688515e+00
-1.061959e+01
-1.274047e+01
-1.505319e+01
-1.753875e+01
-2.015154e+01
-2.280022e+01
-2.532644e+01
-2.751373e+01
0.000000e+00
-3.279774e-01
-9.532366e-01
-1.803493e+00
-2.844427e+00
-4.055712e+00
-5.449847e+00
-7.025532e+00
-8.777602e+00
-1.070936e+01
-1.282828e+01
-1.513543e+01
-1.760105e+01
-2.015942e+01
-2.271382e+01
-2.514223e+01
-2.732457e+01
0.000000e+00
-3.721631e-01
-1.057987e+00
-1.916680e+00
-2.966981e+00
-4.180865e+00
-5.576883e+00
-7.153445e+00
-8.904944e+00
-1.083576e+01
-1.295079e+01
-1.524708e+01
-1.768838e+01
-2.020126e+01
-2.269115e+01
-2.506344e+01
-2.727964e+01
0.000000e+00
-5.716376e-01
-1.225940e+00
-2.098020e+00
-3.141306e+00
-4.355027e+00
-5.753009e+00
-7.325955e+00
-9.074255e+00
-1.100350e+01
-1.311489e+01
-1.539605e+01
-1.780408e+01
-2.027007e+01
-2.271066e+01
-2.504881e+01
-2.728056e+01


0.000000e+00
1.401879e-05
2.439074e-05
3.613288e-05
5.070491e-05
6.390659e-05
7.696035e-05
9.068280e-05
1.037966e-04
1.164578e-04
1.293987e-04
1.422584e-04
1.524636e-04
1.589157e-04
1.630092e-04
1.665705e-04
1.708552e-04
0.000000e+00
1.032815e-05
1.951988e-05
2.814389e-05
3.992629e-05
5.026408e-05
5.969708e-05
7.012018e-05
8.001197e-05
8.905301e-05
9.837001e-05
1.072053e-04
1.129488e-04
1.143844e-04
1.142367e-04
1.171935e-04
1.219822e-04
0.000000e+00
8.304999e-06
1.475604e-05
2.056853e-05
2.872022e-05
3.556126e-05
4.170684e-05
4.849699e-05
5.470684e-05
6.012759e-05
6.524248e-05
6.939864e-05
7.133766e-05
7.089167e-05
7.065436e-05
7.338624e-05
7.807444e-05
0.000000e+00
4.357812e-06
7.001170e-06
1.061657e-05
1.432548e-05
1.742431e-05
2.070327e-05
2.379515e-05
2.648274e-05
2.876316e-05
3.025180e-05
3.083775e-05
3.059953e-05
3.047730e-05
3.133417e-05
3.423183e-05
3.864074e-05
0.000000e+00
-3.874282e-08
-8.954896e-08
-1.507603e-07
-2.246093e-07
-3.132713e-07
-4.160524e-07
-5.568375e-07
-7.825278e-07
-1.182765e-06
-1.971743e-06
-3.118438e-06
-4.372142e-06
-4.960275e-06
-4.091349e-06
-2.232271e-06
3.335609e-07
0.000000e+00
-4.422829e-06
-7.145602e-06
-1.086962e-05
-1.471578e-05
-1.794707e-05
-2.138908e-05
-2.468689e-05
-2.754262e-05
-3.016649e-05
-3.241308e-05
-3.421707e-05
-3.580588e-05
-3.694761e-05
-3.765523e-05
-3.785689e-05
-3.721182e-05
0.000000e+00
-8.321102e-06
-1.481010e-05
-2.070976e-05
-2.894707e-05
-3.587359e-05
-4.218333e-05
-4.901998e-05
-5.508994e-05
-6.051246e-05
-6.525765e-05
-6.822570e-05
-6.988592e-05
-7.129232e-05
-7.252739e-05
-7.342664e-05
-7.363222e-05
0.000000e+00
-1.031031e-05
-1.949507e-05
-2.814643e-05
-3.993837e-05
-5.026589e-05
-5.980547e-05
-7.020806e-05
-7.987343e-05
-8.916036e-05
-9.809423e-05
-1.043512e-04
-1.074396e-04
-1.092029e-04
-1.102607e-04
-1.107732e-04
-1.109274e-04
0.000000e+00
-1.401092e-05
-2.434093e-05
-3.602925e-05
-5.052369e-05
-6.358392e-05
-7.654140e-05
-9.014192e-05
-1.029775e-04
-1.158797e-04
-1.289745e-04
-1.392939e-04
-1.456088e-04
-1.485514e-04
-1.493633e-04
-1.493051e-04
-1.492057e-04
0.000000e+00
1.178435e-05
1.936544e-05
3.056849e-05
4.519584e-05
6.136774e-05
8.159454e-05
1.058868e-04
1.330024e-04
1.636827e-04
1.983176e-04
2.359208e-04
2.754007e-04
3.180105e-04
3.678802e-04
4.248515e-04
4.824230e-04
0.000000e+00
6.756721e-06
1.509013e-05
2.478018e-05
3.891289e-05
5.570126e-05
7.576885e-05
9.993532e-05
1.274265e-04
1.582352e-04
1.928333e-04
2.311611e-04
2.725564e-04
3.166827e-04
3.647457e-04
4.191319e-04
4.748581e-04
0.000000e+00
3.383466e-06
1.107446e-05
2.034598e-05
3.389495e-05
5.122111e-05
7.152421e-05
9.559544e-05
1.234674e-04
1.546090e-04
1.893790e-04
2.283109e-04
2.709997e-04
3.161134e-04
3.609075e-04
4.114490e-04
4.649923e-04
0.000000e+00
2.137510e-06
8.961702e-06
1.843370e-05
3.188794e-05
4.928008e-05
6.980439e-05
9.400267e-05
1.220124e-04
1.534907e-04
1.885376e-04
2.273318e-04
2.703065e-04
3.153020e-04
3.579052e-04
4.036113e-04
4.530820e-04
0.000000e+00
1.781215e-06
8.335454e-06
1.786063e-05
3.138814e-05
4.866668e-05
6.927234e-05
9.358185e-05
1.216279e-04
1.533251e-04
1.886253e-04
2.272668e-04
2.700215e-04
3.151809e-04
3.568951e-04
3.985123e-04
4.427968e-04
0.000000e+00
2.169535e-06
8.996390e-06
1.846439e-05
3.190242e-05
4.923038e-05
6.971199e-05
9.391853e-05
1.218940e-04
1.536006e-04
1.892482e-04
2.282425e-04
2.708974e-04
3.153362e-04
3.573987e-04
3.972728e-04
4.370079e-04
0.000000e+00
3.431719e-06
1.113037e-05
2.040527e-05
3.392762e-05
5.113788e-05
7.137662e-05
9.541804e-05
1.231622e-04
1.547510e-04
1.906966e-04
2.302122e-04
2.724775e-04
3.158125e-04
3.574117e-04
3.968806e-04
4.350698e-04
0.000000e+00
6.805027e-06
1.516611e-05
2.486571e-05
3.896611e-05
5.565258e-05
7.562509e-05
9.968187e-05
1.270586e-04
1.583362e-04
1.940180e-04
2.328996e-04
2.739531e-04
3.161970e-04
3.572583e-04
3.966615e-04
4.349120e-04
0.000000e+00
1.182862e-05
1.944643e-05
3.066843e-05
4.525520e-05
6.134628e-05
8.149546e-05
1.055991e-04
1.326580e-04
1.638941e-04
1.989783e-04
2.360687e-04
2.754660e-04
3.165873e-04
3.572614e-04
3.965681e-04
4.349995e-04


3.094405e+00
2.973158e+00
3.024386e+00
2.941706e+00
2.928046e+00
3.173157e+00
3.392077e+00
3.700130e+00
4.140336e+00
4.687931e+00
5.506864e+00
6.504361e+00
7.243850e+00
7.231289e+00
6.230007e+00
5.210076e+00
4.914518e+00
4.793358e+00
4.759330e+00
4.672759e+00
4.620795e+00
4.772137e+00
4.908708e+00
5.100073e+00
5.387783e+00
5.746190e+00
6.276772e+00
6.925884e+00
7.372177e+00
7.077833e+00
5.810880e+00
4.520832e+00
6.931500e+00
6.863915e+00
6.827254e+00
6.736142e+00
6.695339e+00
6.745325e+00
6.774635e+00
6.828229e+00
6.917331e+00
7.014493e+00
7.157900e+00
7.342827e+00
7.431119e+00
7.005172e+00
5.810352e+00
4.719158e+00
7.845176e+00
7.817827e+00
7.796134e+00
7.739113e+00
7.717573e+00
7.715014e+00
7.694481e+00
7.669841e+00
7.633518e+00
7.561284e+00
7.450803e+00
7.339311e+00
7.263315e+00
7.026248e+00
6.452543e+00
5.935663e+00
7.844272e+00
7.815780e+00
7.792372e+00
7.732991e+00
7.708003e+00
7.700248e+00
7.671516e+00
7.628464e+00
7.559615e+00
7.450153e+00
7.296038e+00
7.145720e+00
7.112969e+00
7.155857e+00
7.137955e+00
7.073345e+00
6.927885e+00
6.856528e+00
6.813351e+00
6.714114e+00
6.661215e+00
6.696710e+00
6.705291e+00
6.709691e+00
6.738466e+00
6.814795e+00
6.930819e+00
7.046778e+00
7.207919e+00
7.431613e+00
7.623830e+00
7.720371e+00
4.909709e+00
4.782891e+00
4.740966e+00
4.644630e+00
4.577766e+00
4.717532e+00
4.840954e+00
4.992065e+00
5.289600e+00
5.791677e+00
6.440136e+00
7.018005e+00
7.425921e+00
7.719682e+00
7.915479e+00
8.006498e+00
3.091254e+00
2.965589e+00
3.011458e+00
2.924340e+00
2.902200e+00
3.147567e+00
3.378014e+00
3.684818e+00
4.223011e+00
5.078029e+00
6.131506e+00
7.021929e+00
7.574688e+00
7.880348e+00
8.040429e+00
8.107244e+00


-6.530973e-01
-2.165467e-01
-2.727581e-01
-2.705957e-01
-1.637210e-01
-2.248294e-01
-2.078600e-01
-1.806663e-01
-1.927216e-01
-1.863230e-01
-2.246121e-01
-3.008323e-01
-2.686916e-01
-1.046071e-02
4.627776e-01
-7.444850e-01
5.654369e-01
4.223169e-01
3.199798e-01
2.533348e-01
2.993994e-01
2.495443e-01
2.411639e-01
2.465907e-01
2.348351e-01
2.484557e-01
2.763978e-01
3.421881e-01
5.116915e-01
7.606200e-01
7.353326e-01
-1.181105e+00
8.031648e-01
6.333841e-01
4.526275e-01
3.946348e-01
3.830628e-01
3.484267e-01
3.446253e-01
3.472593e-01
3.509271e-01
3.757184e-01
4.183458e-01
4.727204e-01
4.962703e-01
3.761629e-01
1.311826e-01
-2.976165e-01
8.409696e-01
6.976256e-01
5.075098e-01
4.129076e-01
3.620830e-01
3.380281e-01
3.359043e-01
3.408818e-01
3.463760e-01
3.450882e-01
3.224470e-01
2.552785e-01
1.002120e-01
-1.271167e-01
-1.290570e-01
1.323630e-02
8.420734e-01
6.989823e-01
5.088816e-01
4.119073e-01
3.566507e-01
3.242896e-01
3.076486e-01
2.927956e-01
2.698810e-01
2.214855e-01
1.359322e-01
1.669827e-02
-1.179128e-01
-1.650034e-01
3.886131e-02
4.243861e-01
8.057126e-01
6.367489e-01
4.564030e-01
3.946517e-01
3.752203e-01
3.246823e-01
2.913791e-01
2.535537e-01
1.925878e-01
1.055686e-01
4.489227e-03
-6.139434e-02
-4.190790e-02
1.194801e-01
4.362582e-01
7.968043e-01
5.670362e-01
4.245163e-01
3.220164e-01
2.535828e-01
2.976618e-01
2.394861e-01
2.129511e-01
2.019148e-01
1.510018e-01
7.465722e-02
1.613285e-02
6.580729e-02
2.435673e-01
5.039806e-01
7.802938e-01
9.633584e-01
-6.558503e-01
-2.180818e-01
-2.748264e-01
-2.734319e-01
-1.609208e-01
-2.178982e-01
-2.000394e-01
-1.428674e-01
-1.267624e-01
-1.254906e-01
-5.422820e-02
1.997997e-01
5.530083e-01
8.279241e-01
9.652883e-01
9.992777e-01
1 2 19 18
2 3 20 19
3 4 21 20
4 5 22 21
5 6 23 22
6 7 24 23
7 8 25 24
8 9 26 25
9 10 27 26
10 11 28 27
11 12 29 28
12 13 30 29
13 14 31 30
14 15 32 31
15 16 33 32
16 17 34 33
18 19 36 35
19 20 37 36
20 21 38 37
21 22 39 38
22 23 40 39
23 24 41 40
24 25 42 41
25 26 43 42
26 27 44 43
27 28 45 44
28 29 46 45
29 30 47 46
30 31 48 47
31 32 49 48
32 33 50 49
33 34 51 50
35 36 53 52
36 37 54 53
37 38 55 54
38 39 56 55
39 40 57 56
40 41 58 57
41 42 59 58
42 43 60 59
43 44 61 60
44 45 62 61
45 46 63 62
46 47 64 63
47 48 65 64
48 49 66 65
49 50 67 66
50 51 68 67
52 53 70 69
53 54 71 70
54 55 72 71
55 56 73 72
56 57 74 73
57 58 75 74
58 59 76 75
59 60 77 76
60 61 78 77
61 62 79 78
62 63 80 79
63 64 81 80
64 65 82 81
65 66 83 82
66 67 84 83
67 68 85 84
69 70 87 86
70 71 88 87
71 72 89 88
72 73 90 89
73 74 91 90
74 75 92 91
75 76 93 92
76 77 94 93
77 78 95 94
78 79 96 95
79 80 97 96
80 81 98 97
81 82 99 98
82 83 100 99
83 84 101 100
84 85 102 101
86 87 104 103
87 88 105 104
88 89 106 105
89 90 107 106
90 91 108 107
91 92 109 108
92 93 110 109
93 94 111 110
94 95 112 111
95 96 113 112
96 97 114 113
97 98 115 114
98 99 116 115
99 100 117 116
100 101 118 117
101 102 119 118
103 104 121 120
104 105 122 121
105 106 123 122
106 107 124 123
107 108 125 124
108 109 126 125
109 110 127 126
110 111 128 127
111 112 129 128
112 113 130 129
113 114 131 130
114 115 132 131
115 116 133 132
116 117 134 133
117 118 135 134
118 119 136 135
120 121 138 137
121 122 139 138
122 123 140 139
123 124 141 140
124 125 142 141
125 126 143 142
126 127 144 143
127 128 145 144
128 129 146 145
129 130 147 146
130 131 148 147
131 132 149 148
132 133 150 149
133 134 151 150
134 135 152 151
135 136 153 152
