TITLE = "Solution"
VARIABLES = x, y, u, v, psiu, psiv, t, stress
ZONE T="structure" N=153 E=128 F=FEBLOCK ET=QUADRILATERAL VARLOCATION=([7,8]=cellcentered)
0.000000e+00
1.250000e+01
2.500000e+01
3.750000e+01
5.000000e+01
6.250000e+01
7.500000e+01
8.750000e+01
1.000000e+02
1.125000e+02
1.250000e+02
1.375000e+02
1.500000e+02
1.625000e+02
1.750000e+02
1.875000e+02
2.000000e+02
0.000000e+00
1.250000e+01
2.500000e+01
3.750000e+01
5.000000e+01
6.250000e+01
7.500000e+01
8.750000e+01
1.000000e+02
1.125000e+02
1.250000e+02
1.375000e+02
1.500000e+02
1.625000e+02
1.750000e+02
1.875000e+02
2.000000e+02
0.000000e+00
1.250000e+01
2.500000e+01
3.750000e+01
5.000000e+01
6.250000e+01
7.500000e+01
8.750000e+01
1.000000e+02
1.125000e+02
1.250000e+02
1.375000e+02
1.500000e+02
1.625000e+02
1.750000e+02
1.875000e+02
2.000000e+02
0.000000e+00
1.250000e+01
2.500000e+01
3.750000e+01
5.000000e+01
6.250000e+01
7.500000e+01
8.750000e+01
1.000000e+02
1.125000e+02
1.250000e+02
1.375000e+02
1.500000e+02
1.625000e+02
1.750000e+02
1.875000e+02
2.000000e+02
0.000000e+00
1.250000e+01
2.500000e+01
3.750000e+01
5.000000e+01
6.250000e+01
7.500000e+01
8.750000e+01
1.000000e+02
1.125000e+02
1.250000e+02
1.375000e+02
1.500000e+02
1.625000e+02
1.750000e+02
1.875000e+02
2.000000e+02
0.000000e+00
1.250000e+01
2.500000e+01
3.750000e+01
5.000000e+01
6.250000e+01
7.500000e+01
8.750000e+01
1.000000e+02
1.125000e+02
1.250000e+02
1.375000e+02
1.500000e+02
1.625000e+02
1.750000e+02
1.875000e+02
2.000000e+02
0.000000e+00
1.250000e+01
2.500000e+01
3.750000e+01
5.000000e+01
6.250000e+01
7.500000e+01
8.750000e+01
1.000000e+02
1.125000e+02
1.250000e+02
1.375000e+02
1.500000e+02
1.625000e+02
1.750000e+02
1.875000e+02
2.000000e+02
0.000000e+00
1.250000e+01
2.500000e+01
3.750000e+01
5.000000e+01
6.250000e+01
7.500000e+01
8.750000e+01
1.000000e+02
1.125000e+02
1.250000e+02
1.375000e+02
1.500000e+02
1.625000e+02
1.750000e+02
1.875000e+02
2.000000e+02
0.000000e+00
1.250000e+01
2.500000e+01
3.750000e+01
5.000000e+01
6.250000e+01
7.500000e+01
8.750000e+01
1.000000e+02
1.125000e+02
1.250000e+02
1.375000e+02
1.500000e+02
1.625000e+02
1.750000e+02
1.875000e+02
2.000000e+02
0.000000e+00
0.000000e+00
0.000000e+00
0.000000e+00
0.000000e+00
0.000000e+00
0.000000e+00
0.000000e+00
0.000000e+00
0.000000e+00
0.000000e+00
0.000000e+00
0.000000e+00
0.000000e+00
0.000000e+00
0.000000e+00
0.000000e+00
1.250000e+01
1.250000e+01
1.250000e+01
1.250000e+01
1.250000e+01
1.250000e+01
1.250000e+01
1.250000e+01
1.250000e+01
1.250000e+01
1.250000e+01
1.250000e+01
1.250000e+01
1.250000e+01
1.250000e+01
1.250000e+01
1.250000e+01
2.500000e+01
2.500000e+01
2.500000e+01
2.500000e+01
2.500000e+01
2.500000e+01
2.500000e+01
2.500000e+01
2.500000e+01
2.500000e+01
2.500000e+01
2.500000e+01
2.500000e+01
2.500000e+01
2.500000e+01
2.500000e+01
2.500000e+01
3.750000e+01
3.750000e+01
3.750000e+01
3.750000e+01
3.750000e+01
3.750000e+01
3.750000e+01
3.750000e+01
3.750000e+01
3.750000e+01
3.750000e+01
3.750000e+01
3.750000e+01
3.750000e+01
3.750000e+01
3.750000e+01
3.750000e+01
5.000000e+01
5.000000e+01
5.000000e+01
5.000000e+01
5.000000e+01
5.000000e+01
5.000000e+01
5.000000e+01
5.000000e+01
5.000000e+01
5.000000e+01
5.000000e+01
5.000000e+01
5.000000e+01
5.000000e+01
5.000000e+01
5.000000e+01
6.250000e+01
6.250000e+01
6.250000e+01
6.250000e+01
6.250000e+01
6.250000e+01
6.250000e+01
6.250000e+01
6.250000e+01
6.250000e+01
6.250000e+01
6.250000e+01
6.250000e+01
6.250000e+01
6.250000e+01
6.250000e+01
6.250000e+01
7.500000e+01
7.500000e+01
7.500000e+01
7.500000e+01
7.500000e+01
7.500000e+01
7.500000e+01
7.500000e+01
7.500000e+01
7.500000e+01
7.500000e+01
7.500000e+01
7.500000e+01
7.500000e+01
7.500000e+01
7.500000e+01
7.500000e+01
8.750000e+01
8.750000e+01
8.750000e+01
8.750000e+01
8.750000e+01
8.750000e+01
8.750000e+01
8.750000e+01
8.750000e+01
8.750000e+01
8.750000e+01
8.750000e+01
8.750000e+01
8.750000e+01
8.750000e+01
8.750000e+01
8.750000e+01
1.000000e+02
1.000000e+02
1.000000e+02
1.000000e+02
1.000000e+02
1.000000e+02
1.000000e+02
1.000000e+02
1.000000e+02
1.000000e+02
1.000000e+02
1.000000e+02
1.000000e+02
1.000000e+02
1.000000e+02
1.000000e+02
1.000000e+02
0.000000e+00
-8.885161e-01
-1.573693e+00
-2.259159e+00
-2.947114e+00
-3.607473e+00
-4.274750e+00
-4.944123e+00
-5.604486e+00
-6.264208e+00
-6.932791e+00
-7.612954e+00
-8.297259e+00
-8.977635e+00
-9.653671e+00
-1.031430e+01
-1.075188e+01
0.000000e+00
-4.565233e-01
-9.462535e-01
-1.445894e+00
-1.961590e+00
-2.455931e+00
-2.954697e+00
-3.456077e+00
-3.949722e+00
-4.440122e+00
-4.931840e+00
-5.421785e+00
-5.893861e+00
-6.313174e+00
-6.603187e+00
-6.673092e+00
-6.829498e+00
0.000000e+00
-2.263990e-01
-4.894559e-01
-8.044489e-01
-1.142341e+00
-1.474520e+00
-1.812621e+00
-2.151171e+00
-2.483922e+00
-2.810250e+00
-3.125338e+00
-3.416683e+00
-3.660726e+00
-3.820451e+00
-3.855027e+00
-3.827459e+00
-3.980632e+00
0.000000e+00
-9.692533e-02
-2.099882e-01
-3.561518e-01
-5.150975e-01
-6.825348e-01
-8.528682e-01
-1.021185e+00
-1.184521e+00
-1.337876e+00
-1.472344e+00
-1.574143e+00
-1.625640e+00
-1.612743e+00
-1.555887e+00
-1.557800e+00
-1.687214e+00
0.000000e+00
-1.019468e-03
-2.017197e-03
-2.766102e-03
-2.904230e-03
-1.846807e-03
1.429282e-03
8.569781e-03
2.194400e-02
4.527165e-02
8.440865e-02
1.464421e-01
2.354012e-01
3.416916e-01
4.241992e-01
4.246972e-01
3.255691e-01
0.000000e+00
9.517038e-02
2.065218e-01
3.512406e-01
5.096431e-01
6.784177e-01
8.537165e-01
1.033216e+00
1.217903e+00
1.409189e+00
1.607195e+00
1.808741e+00
2.004164e+00
2.172131e+00
2.278884e+00
2.296459e+00
2.241538e+00
0.000000e+00
2.254757e-01
4.875602e-01
8.015446e-01
1.138458e+00
1.470379e+00
1.809848e+00
2.151816e+00
2.491780e+00
2.833470e+00
3.174705e+00
3.501246e+00
3.790098e+00
4.015997e+00
4.156710e+00
4.204457e+00
4.191780e+00
0.000000e+00
4.565443e-01
9.462167e-01
1.445678e+00
1.960611e+00
2.453802e+00
2.951111e+00
3.448496e+00
3.934619e+00
4.416437e+00
4.892976e+00
5.338835e+00
5.715331e+00
5.993101e+00
6.162821e+00
6.235880e+00
6.249489e+00
0.000000e+00
8.893163e-01
1.575498e+00
2.262194e+00
2.950964e+00
3.611608e+00
4.278547e+00
4.943502e+00
5.593178e+00
6.236946e+00
6.869077e+00
7.447053e+00
7.910972e+00
8.219846e+00
8.371143e+00
8.407667e+00
8.406375e+00
0.000000e+00
-5.503808e-01
-1.162605e+00
-1.975924e+00
-2.957958e+00
-4.106876e+00
-5.433790e+00
-6.934318e+00
-8.607075e+00
-1.045591e+01
-1.248362e+01
-1.469154e+01
-1.707988e+01
-1.965386e+01
-2.246314e+01
-2.571732e+01
-3.049858e+01
0.000000e+00
-3.539720e-01
-9.949466e-01
-1.796882e+00
-2.782584e+00
-3.933591e+00
-5.258881e+00
-6.760799e+00
-8.435681e+00
-1.028480e+01
-1.231207e+01
-1.452171e+01
-1.691749e+01
-1.951202e+01
-2.235228e+01
-2.561475e+01
-2.958293e+01
0.000000e+00
-3.026651e-01
-8.877547e-01
-1.681319e+00
-2.660634e+00
-3.810627e+00
-5.136153e+00
-6.639546e+00
-8.317598e+00
-1.017155e+01
-1.220643e+01
-1.442846e+01
-1.684473e+01
-1.947294e+01
-2.234149e+01
-2.543296e+01
-2.834682e+01
0.000000e+00
-3.135271e-01
-8.560250e-01
-1.626968e+00
-2.592968e+00
-3.739889e+00
-5.066538e+00
-6.572279e+00
-8.255715e+00
-1.011940e+01
-1.216909e+01
-1.441017e+01
-1.684613e+01
-1.948017e+01
-2.228622e+01
-2.509750e+01
-2.756293e+01
0.000000e+00
-3.212265e-01
-8.545026e-01
-1.613398e+00
-2.574124e+00
-3.720144e+00
-5.049319e+00
-6.559066e+00
-8.248847e+00
-1.012271e+01
-1.218678e+01
-1.444267e+01
-1.688223e+01
-1.948088e+01
-2.216230e+01
-2.475497e+01
-2.699010e+01
0.000000e+00
-3.134547e-01
-8.566274e-01
-1.629139e+00
-2.597739e+00
-3.748634e+00
-5.081602e+00
-6.596143e+00
-8.290708e+00
-1.017028e+01
-1.224207e+01
-1.450293e+01
-1.692984e+01
-1.947239e+01
-2.203792e+01
-2.448328e+01
-2.662449e+01
0.000000e+00
-3.025401e-01
-8.886991e-01
-1.684735e+00
-2.668250e+00
-3.824748e+00
-5.160592e+00
-6.678478e+00
-8.375098e+00
-1.025567e+01
-1.232802e+01
-1.458473e+01
-1.699034e+01
-1.947922e+01
-2.195788e+01
-2.431744e+01
-2.645625e+01
0.000000e+00
-3.538631e-01
-9.959738e-01
-1.800571e+00
-2.790962e+00
-3.949346e+00
-5.286079e+00
-6.804095e+00
-8.500236e+00
-1.037977e+01
-1.244827e+01
-1.469340e+01
-1.707310e+01
-1.951718e+01
-2.193674e+01
-2.424714e+01
-2.641745e+01
0.000000e+00
-5.504673e-01
-1.163834e+00
-1.979794e+00
-2.966456e+00
-4.122829e+00
-5.460855e+00
-6.976487e+00
-8.669944e+00
-1.054810e+01
-1.260987e+01
-1.483492e+01
-1.717961e+01
-1.957897e+01
-2.195369e+01
-2.423400e+01
-2.641864e+01


0.000000e+00
1.309403e-05
2.360665e-05
3.481114e-05
4.827988e-05
6.095392e-05
7.302798e-05
8.525854e-05
9.700839e-05
1.081471e-04
1.186485e-04
1.273714e-04
1.334266e-04
1.375519e-04
1.407228e-04
1.439993e-04
1.477432e-04
0.000000e+00
9.650330e-06
1.899937e-05
2.730648e-05
3.797041e-05
4.784626e-05
5.672524e-05
6.588371e-05
7.472358e-05
8.292676e-05
9.047483e-05
9.624224e-05
9.920716e-05
9.978258e-05
9.988358e-05
1.025774e-04
1.069636e-04
0.000000e+00
7.576135e-06
1.409379e-05
1.978011e-05
2.701652e-05
3.352633e-05
3.937794e-05
4.534563e-05
5.093905e-05
5.590632e-05
6.012391e-05
6.295569e-05
6.399218e-05
6.375235e-05
6.385295e-05
6.646280e-05
7.085447e-05
0.000000e+00
3.887351e-06
6.664989e-06
1.012374e-05
1.349510e-05
1.653754e-05
1.957185e-05
2.243450e-05
2.496347e-05
2.709321e-05
2.866368e-05
2.955097e-05
2.990522e-05
3.019606e-05
3.098509e-05
3.316503e-05
3.655780e-05
0.000000e+00
-2.271493e-08
-4.928244e-08
-7.730707e-08
-1.067046e-07
-1.361153e-07
-1.700821e-07
-2.201029e-07
-3.137346e-07
-5.214730e-07
-9.062661e-07
-1.357539e-06
-1.623990e-06
-1.404584e-06
-6.601754e-07
4.395520e-07
2.126398e-06
0.000000e+00
-3.927343e-06
-6.747692e-06
-1.026024e-05
-1.367974e-05
-1.677115e-05
-1.985846e-05
-2.275376e-05
-2.534353e-05
-2.769432e-05
-2.966298e-05
-3.113634e-05
-3.200984e-05
-3.228307e-05
-3.232776e-05
-3.230828e-05
-3.181161e-05
0.000000e+00
-7.594005e-06
-1.414135e-05
-1.986272e-05
-2.713958e-05
-3.371017e-05
-3.959080e-05
-4.551490e-05
-5.110741e-05
-5.598102e-05
-5.972259e-05
-6.202672e-05
-6.326251e-05
-6.396180e-05
-6.443916e-05
-6.475401e-05
-6.472391e-05
0.000000e+00
-9.646216e-06
-1.900131e-05
-2.731064e-05
-3.798043e-05
-4.790016e-05
-5.678020e-05
-6.585311e-05
-7.476801e-05
-8.291015e-05
-8.937363e-05
-9.334874e-05
-9.541284e-05
-9.656848e-05
-9.727226e-05
-9.763276e-05
-9.770442e-05
0.000000e+00
-1.308560e-05
-2.357576e-05
-3.474457e-05
-4.815958e-05
-6.079660e-05
-7.280453e-05
-8.490160e-05
-9.667230e-05
-1.078073e-04
-1.172518e-04
-1.238472e-04
-1.277686e-04
-1.298579e-04
-1.308132e-04
-1.311079e-04
-1.311399e-04
0.000000e+00
1.113177e-05
1.854143e-05
2.885198e-05
4.251894e-05
5.803529e-05
7.688686e-05
9.934146e-05
1.245907e-04
1.526471e-04
1.831875e-04
2.152471e-04
2.486898e-04
2.847133e-04
3.265351e-04
3.749909e-04
4.239336e-04
0.000000e+00
6.175199e-06
1.419016e-05
2.343208e-05
3.657414e-05
5.256617e-05
7.154613e-05
9.399585e-05
1.195238e-04
1.479090e-04
1.790522e-04
2.123405e-04
2.471627e-04
2.838346e-04
3.237140e-04
3.696248e-04
4.172256e-04
0.000000e+00
2.937062e-06
1.027857e-05
1.937041e-05
3.205104e-05
4.841378e-05
6.771314e-05
9.022274e-05
1.160096e-04
1.447963e-04
1.764809e-04
2.106390e-04
2.464636e-04
2.831717e-04
3.200957e-04
3.623633e-04
4.078892e-04
0.000000e+00
1.771623e-06
8.276724e-06
1.755320e-05
3.024839e-05
4.663498e-05
6.609986e-05
8.876385e-05
1.147232e-04
1.437723e-04
1.757065e-04
2.100523e-04
2.460293e-04
2.823413e-04
3.173328e-04
3.558354e-04
3.981417e-04
0.000000e+00
1.480281e-06
7.673912e-06
1.695862e-05
2.977318e-05
4.607830e-05
6.558834e-05
8.835007e-05
1.144070e-04
1.436353e-04
1.757037e-04
2.100048e-04
2.457540e-04
2.817787e-04
3.163950e-04
3.523594e-04
3.907900e-04
0.000000e+00
1.780429e-06
8.282367e-06
1.754579e-05
3.021220e-05
4.657074e-05
6.602321e-05
8.867751e-05
1.147242e-04
1.440827e-04
1.763126e-04
2.105948e-04
2.460547e-04
2.816532e-04
3.165847e-04
3.515242e-04
3.867870e-04
0.000000e+00
2.950805e-06
1.028986e-05
1.936284e-05
3.199801e-05
4.831534e-05
6.758667e-05
9.006061e-05
1.160058e-04
1.453462e-04
1.776017e-04
2.117430e-04
2.467763e-04
2.819530e-04
3.167532e-04
3.512391e-04
3.851360e-04
0.000000e+00
6.193089e-06
1.420918e-05
2.343434e-05
3.653844e-05
5.247500e-05
7.139528e-05
9.381817e-05
1.195301e-04
1.484115e-04
1.800005e-04
2.133049e-04
2.475987e-04
2.823048e-04
3.168758e-04
3.510693e-04
3.847019e-04
0.000000e+00
1.115085e-05
1.856317e-05
2.885859e-05
4.249916e-05
5.796416e-05
7.672277e-05
9.916956e-05
1.246492e-04
1.529386e-04
1.833567e-04
2.152589e-04
2.485457e-04
2.827122e-04
3.170218e-04
3.510411e-04
3.846617e-04


2.597377e+00
2.476411e+00
2.564220e+00
2.644275e+00
2.720797e+00
2.992447e+00
3.288002e+00
3.619760e+00
4.092766e+00
4.729605e+00
5.468485e+00
6.137896e+00
6.520040e+00
6.292468e+00
5.356686e+00
4.515710e+00
4.013953e+00
3.895276e+00
3.911267e+00
3.935024e+00
3.960008e+00
4.138528e+00
4.337192e+00
4.560293e+00
4.889376e+00
5.341676e+00
5.872649e+00
6.354276e+00
6.588192e+00
6.207539e+00
5.144590e+00
4.183132e+00
5.788564e+00
5.719815e+00
5.701992e+00
5.670800e+00
5.655951e+00
5.722265e+00
5.790176e+00
5.867147e+00
5.991842e+00
6.173637e+00
6.398223e+00
6.605915e+00
6.667428e+00
6.266336e+00
5.323939e+00
4.542037e+00
6.725333e+00
6.693367e+00
6.671434e+00
6.626707e+00
6.607471e+00
6.611306e+00
6.606751e+00
6.597553e+00
6.593855e+00
6.602220e+00
6.628884e+00
6.667969e+00
6.668834e+00
6.446132e+00
5.949860e+00
5.543098e+00
6.724980e+00
6.692583e+00
6.669930e+00
6.623922e+00
6.602809e+00
6.603638e+00
6.591904e+00
6.569759e+00
6.552421e+00
6.549704e+00
6.565457e+00
6.603564e+00
6.652033e+00
6.630796e+00
6.503274e+00
6.387436e+00
5.787178e+00
5.717297e+00
5.697204e+00
5.662129e+00
5.642703e+00
5.702465e+00
5.753135e+00
5.805769e+00
5.923159e+00
6.112949e+00
6.328322e+00
6.522184e+00
6.680607e+00
6.787279e+00
6.830595e+00
6.839699e+00
4.011855e+00
3.891994e+00
3.905527e+00
3.924785e+00
3.946584e+00
4.122604e+00
4.309534e+00
4.531979e+00
4.918073e+00
5.456167e+00
6.007536e+00
6.441183e+00
6.727436e+00
6.899950e+00
6.992712e+00
7.030666e+00
2.595447e+00
2.474024e+00
2.560528e+00
2.637788e+00
2.715003e+00
2.992329e+00
3.290314e+00
3.653118e+00
4.245944e+00
5.036525e+00
5.817332e+00
6.404512e+00
6.763860e+00
6.959424e+00
7.056710e+00
7.096352e+00


-5.911923e-01
-2.223314e-01
-2.312894e-01
-2.700385e-01
-1.727325e-01
-1.963024e-01
-2.073523e-01
-1.757384e-01
-1.697395e-01
-1.908327e-01
-2.080909e-01
-1.724294e-01
-4.710163e-02
1.979677e-01
5.248301e-01
-6.284448e-01
5.439623e-01
4.096217e-01
3.326768e-01
2.727514e-01
3.090913e-01
2.841152e-01
2.674546e-01
2.766958e-01
2.804318e-01
2.882826e-01
3.292018e-01
4.373897e-01
6.230215e-01
8.276004e-01
7.452586e-01
-1.244785e+00
8.210399e-01
6.833293e-01
5.510395e-01
4.970469e-01
4.868432e-01
4.636194e-01
4.521759e-01
4.531618e-01
4.584471e-01
4.743530e-01
5.095929e-01
5.605564e-01
5.800935e-01
4.703719e-01
1.835248e-01
-3.285351e-01
8.796428e-01
7.587364e-01
6.195283e-01
5.433818e-01
5.086778e-01
4.907251e-01
4.833200e-01
4.815587e-01
4.765627e-01
4.591561e-01
4.213040e-01
3.480173e-01
2.111134e-01
3.693786e-02
1.610047e-02
9.219051e-02
8.803986e-01
7.595481e-01
6.199203e-01
5.419735e-01
5.035311e-01
4.784092e-01
4.596374e-01
4.404781e-01
4.065637e-01
3.440757e-01
2.491386e-01
1.301512e-01
1.825300e-02
9.651262e-03
2.035111e-01
5.201742e-01
8.228605e-01
6.853625e-01
5.524453e-01
4.955014e-01
4.784002e-01
4.413148e-01
4.075544e-01
3.726845e-01
3.144514e-01
2.312903e-01
1.437420e-01
8.743852e-02
1.108989e-01
2.664211e-01
5.428617e-01
8.372991e-01
5.453683e-01
4.111225e-01
3.339291e-01
2.735768e-01
3.067308e-01
2.743063e-01
2.482892e-01
2.396374e-01
2.001043e-01
1.452152e-01
1.351722e-01
2.122276e-01
3.734752e-01
5.966241e-01
8.250211e-01
9.713869e-01
-5.927510e-01
-2.242764e-01
-2.335152e-01
-2.704378e-01
-1.717264e-01
-1.942019e-01
-1.934655e-01
-1.458969e-01
-1.338157e-01
-1.126356e-01
3.087911e-02
3.176719e-01
6.333519e-01
8.622500e-01
9.729111e-01
9.994714e-01
1 2 19 18
2 3 20 19
3 4 21 20
4 5 22 21
5 6 23 22
6 7 24 23
7 8 25 24
8 9 26 25
9 10 27 26
10 11 28 27
11 12 29 28
12 13 30 29
13 14 31 30
14 15 32 31
15 16 33 32
16 17 34 33
18 19 36 35
19 20 37 36
20 21 38 37
21 22 39 38
22 23 40 39
23 24 41 40
24 25 42 41
25 26 43 42
26 27 44 43
27 28 45 44
28 29 46 45
29 30 47 46
30 31 48 47
31 32 49 48
32 33 50 49
33 34 51 50
35 36 53 52
36 37 54 53
37 38 55 54
38 39 56 55
39 40 57 56
40 41 58 57
41 42 59 58
42 43 60 59
43 44 61 60
44 45 62 61
45 46 63 62
46 47 64 63
47 48 65 64
48 49 66 65
49 50 67 66
50 51 68 67
52 53 70 69
53 54 71 70
54 55 72 71
55 56 73 72
56 57 74 73
57 58 75 74
58 59 76 75
59 60 77 76
60 61 78 77
61 62 79 78
62 63 80 79
63 64 81 80
64 65 82 81
65 66 83 82
66 67 84 83
67 68 85 84
69 70 87 86
70 71 88 87
71 72 89 88
72 73 90 89
73 74 91 90
74 75 92 91
75 76 93 92
76 77 94 93
77 78 95 94
78 79 96 95
79 80 97 96
80 81 98 97
81 82 99 98
82 83 100 99
83 84 101 100
84 85 102 101
86 87 104 103
87 88 105 104
88 89 106 105
89 90 107 106
90 91 108 107
91 92 109 108
92 93 110 109
93 94 111 110
94 95 112 111
95 96 113 112
96 97 114 113
97 98 115 114
98 99 116 115
99 100 117 116
100 101 118 117
101 102 119 118
103 104 121 120
104 105 122 121
105 106 123 122
106 107 124 123
107 108 125 124
108 109 126 125
109 110 127 126
110 111 128 127
111 112 129 128
112 113 130 129
113 114 131 130
114 115 132 131
115 116 133 132
116 117 134 133
117 118 135 134
118 119 136 135
120 121 138 137
121 122 139 138
122 123 140 139
123 124 141 140
124 125 142 141
125 126 143 142
126 127 144 143
127 128 145 144
128 129 146 145
129 130 147 146
130 131 148 147
131 132 149 148
132 133 150 149
133 134 151 150
134 135 152 151
135 136 153 152
