TITLE = "Solution"
VARIABLES = x, y, u, v, psiu, psiv, t, stress
ZONE T="structure" N=153 E=128 F=FEBLOCK ET=QUADRILATERAL VARLOCATION=([7,8]=cellcentered)
0.000000e+00
1.250000e+01
2.500000e+01
3.750000e+01
5.000000e+01
6.250000e+01
7.500000e+01
8.750000e+01
1.000000e+02
1.125000e+02
1.250000e+02
1.375000e+02
1.500000e+02
1.625000e+02
1.750000e+02
1.875000e+02
2.000000e+02
0.000000e+00
1.250000e+01
2.500000e+01
3.750000e+01
5.000000e+01
6.250000e+01
7.500000e+01
8.750000e+01
1.000000e+02
1.125000e+02
1.250000e+02
1.375000e+02
1.500000e+02
1.625000e+02
1.750000e+02
1.875000e+02
2.000000e+02
0.000000e+00
1.250000e+01
2.500000e+01
3.750000e+01
5.000000e+01
6.250000e+01
7.500000e+01
8.750000e+01
1.000000e+02
1.125000e+02
1.250000e+02
1.375000e+02
1.500000e+02
1.625000e+02
1.750000e+02
1.875000e+02
2.000000e+02
0.000000e+00
1.250000e+01
2.500000e+01
3.750000e+01
5.000000e+01
6.250000e+01
7.500000e+01
8.750000e+01
1.000000e+02
1.125000e+02
1.250000e+02
1.375000e+02
1.500000e+02
1.625000e+02
1.750000e+02
1.875000e+02
2.000000e+02
0.000000e+00
1.250000e+01
2.500000e+01
3.750000e+01
5.000000e+01
6.250000e+01
7.500000e+01
8.750000e+01
1.000000e+02
1.125000e+02
1.250000e+02
1.375000e+02
1.500000e+02
1.625000e+02
1.750000e+02
1.875000e+02
2.000000e+02
0.000000e+00
1.250000e+01
2.500000e+01
3.750000e+01
5.000000e+01
6.250000e+01
7.500000e+01
8.750000e+01
1.000000e+02
1.125000e+02
1.250000e+02
1.375000e+02
1.500000e+02
1.625000e+02
1.750000e+02
1.875000e+02
2.000000e+02
0.000000e+00
1.250000e+01
2.500000e+01
3.750000e+01
5.000000e+01
6.250000e+01
7.500000e+01
8.750000e+01
1.000000e+02
1.125000e+02
1.250000e+02
1.375000e+02
1.500000e+02
1.625000e+02
1.750000e+02
1.875000e+02
2.000000e+02
0.000000e+00
1.250000e+01
2.500000e+01
3.750000e+01
5.000000e+01
6.250000e+01
7.500000e+01
8.750000e+01
1.000000e+02
1.125000e+02
1.250000e+02
1.375000e+02
1.500000e+02
1.625000e+02
1.750000e+02
1.875000e+02
2.000000e+02
0.000000e+00
1.250000e+01
2.500000e+01
3.750000e+01
5.000000e+01
6.250000e+01
7.500000e+01
8.750000e+01
1.000000e+02
1.125000e+02
1.250000e+02
1.375000e+02
1.500000e+02
1.625000e+02
1.750000e+02
1.875000e+02
2.000000e+02
0.000000e+00
0.000000e+00
0.000000e+00
0.000000e+00
0.000000e+00
0.000000e+00
0.000000e+00
0.000000e+00
0.000000e+00
0.000000e+00
0.000000e+00
0.000000e+00
0.000000e+00
0.000000e+00
0.000000e+00
0.000000e+00
0.000000e+00
1.250000e+01
1.250000e+01
1.250000e+01
1.250000e+01
1.250000e+01
1.250000e+01
1.250000e+01
1.250000e+01
1.250000e+01
1.250000e+01
1.250000e+01
1.250000e+01
1.250000e+01
1.250000e+01
1.250000e+01
1.250000e+01
1.250000e+01
2.500000e+01
2.500000e+01
2.500000e+01
2.500000e+01
2.500000e+01
2.500000e+01
2.500000e+01
2.500000e+01
2.500000e+01
2.500000e+01
2.500000e+01
2.500000e+01
2.500000e+01
2.500000e+01
2.500000e+01
2.500000e+01
2.500000e+01
3.750000e+01
3.750000e+01
3.750000e+01
3.750000e+01
3.750000e+01
3.750000e+01
3.750000e+01
3.750000e+01
3.750000e+01
3.750000e+01
3.750000e+01
3.750000e+01
3.750000e+01
3.750000e+01
3.750000e+01
3.750000e+01
3.750000e+01
5.000000e+01
5.000000e+01
5.000000e+01
5.000000e+01
5.000000e+01
5.000000e+01
5.000000e+01
5.000000e+01
5.000000e+01
5.000000e+01
5.000000e+01
5.000000e+01
5.000000e+01
5.000000e+01
5.000000e+01
5.000000e+01
5.000000e+01
6.250000e+01
6.250000e+01
6.250000e+01
6.250000e+01
6.250000e+01
6.250000e+01
6.250000e+01
6.250000e+01
6.250000e+01
6.250000e+01
6.250000e+01
6.250000e+01
6.250000e+01
6.250000e+01
6.250000e+01
6.250000e+01
6.250000e+01
7.500000e+01
7.500000e+01
7.500000e+01
7.500000e+01
7.500000e+01
7.500000e+01
7.500000e+01
7.500000e+01
7.500000e+01
7.500000e+01
7.500000e+01
7.500000e+01
7.500000e+01
7.500000e+01
7.500000e+01
7.500000e+01
7.500000e+01
8.750000e+01
8.750000e+01
8.750000e+01
8.750000e+01
8.750000e+01
8.750000e+01
8.750000e+01
8.750000e+01
8.750000e+01
8.750000e+01
8.750000e+01
8.750000e+01
8.750000e+01
8.750000e+01
8.750000e+01
8.750000e+01
8.750000e+01
1.000000e+02
1.000000e+02
1.000000e+02
1.000000e+02
1.000000e+02
1.000000e+02
1.000000e+02
1.000000e+02
1.000000e+02
1.000000e+02
1.000000e+02
1.000000e+02
1.000000e+02
1.000000e+02
1.000000e+02
1.000000e+02
1.000000e+02
0.000000e+00
-9.660941e-01
-1.655519e+00
-2.387592e+00
-3.068942e+00
-3.722094e+00
-4.406558e+00
-5.063794e+00
-5.718207e+00
-6.377388e+00
-7.037208e+00
-7.692534e+00
-8.390647e+00
-9.173159e+00
-1.002571e+01
-1.075837e+01
-1.121067e+01
0.000000e+00
-4.460790e-01
-9.188022e-01
-1.425020e+00
-1.939925e+00
-2.426029e+00
-2.937886e+00
-3.439433e+00
-3.931978e+00
-4.434422e+00
-4.932858e+00
-5.422907e+00
-5.921564e+00
-6.435066e+00
-6.848299e+00
-6.956752e+00
-7.132153e+00
0.000000e+00
-1.665431e-01
-3.871206e-01
-6.843213e-01
-1.024816e+00
-1.352248e+00
-1.704613e+00
-2.053430e+00
-2.397901e+00
-2.747504e+00
-3.085622e+00
-3.404165e+00
-3.687758e+00
-3.904783e+00
-3.987710e+00
-3.975542e+00
-4.126149e+00
0.000000e+00
-8.163233e-02
-1.709503e-01
-3.149730e-01
-4.612972e-01
-6.338112e-01
-8.086839e-01
-9.810816e-01
-1.155298e+00
-1.320525e+00
-1.474817e+00
-1.601018e+00
-1.674336e+00
-1.670396e+00
-1.600298e+00
-1.588851e+00
-1.713975e+00
0.000000e+00
-2.432062e-03
-5.161216e-03
-7.610295e-03
-9.591499e-03
-1.013090e-02
-7.821811e-03
-1.380003e-03
1.114824e-02
3.315893e-02
6.752401e-02
1.238000e-01
2.117164e-01
3.286392e-01
4.404619e-01
4.670756e-01
3.657437e-01
0.000000e+00
7.747301e-02
1.626750e-01
3.018063e-01
4.443509e-01
6.153251e-01
7.935781e-01
9.766661e-01
1.174521e+00
1.379163e+00
1.598080e+00
1.825094e+00
2.043063e+00
2.232781e+00
2.361886e+00
2.391125e+00
2.326891e+00
0.000000e+00
1.648797e-01
3.838612e-01
6.786575e-01
1.015919e+00
1.342476e+00
1.695092e+00
2.049211e+00
2.410630e+00
2.785235e+00
3.157311e+00
3.528234e+00
3.862815e+00
4.123342e+00
4.288362e+00
4.343278e+00
4.324326e+00
0.000000e+00
4.458956e-01
9.194982e-01
1.425345e+00
1.938208e+00
2.424857e+00
2.933832e+00
3.428784e+00
3.918988e+00
4.408558e+00
4.884191e+00
5.358244e+00
5.794298e+00
6.127184e+00
6.334796e+00
6.425333e+00
6.441523e+00
0.000000e+00
9.666642e-01
1.659203e+00
2.393536e+00
3.075987e+00
3.733174e+00
4.417441e+00
5.062859e+00
5.704561e+00
6.325961e+00
6.922898e+00
7.516831e+00
8.048702e+00
8.427371e+00
8.623306e+00
8.676251e+00
8.676855e+00
0.000000e+00
-6.015565e-01
-1.313742e+00
-2.267052e+00
-3.391260e+00
-4.685206e+00
-6.161392e+00
-7.800232e+00
-9.609453e+00
-1.159040e+01
-1.373539e+01
-1.604622e+01
-1.854411e+01
-2.125388e+01
-2.419624e+01
-2.756029e+01
-3.256501e+01
0.000000e+00
-3.988932e-01
-1.145533e+00
-2.083179e+00
-3.220015e+00
-4.509888e+00
-5.984712e+00
-7.628759e+00
-9.436560e+00
-1.141824e+01
-1.356577e+01
-1.587682e+01
-1.836439e+01
-2.107265e+01
-2.406552e+01
-2.747032e+01
-3.153640e+01
0.000000e+00
-3.662602e-01
-1.043758e+00
-1.975940e+00
-3.098998e+00
-4.386184e+00
-5.860476e+00
-7.504038e+00
-9.314839e+00
-1.129979e+01
-1.345646e+01
-1.577914e+01
-1.828034e+01
-2.101420e+01
-2.405832e+01
-2.731014e+01
-3.033478e+01
0.000000e+00
-4.131317e-01
-1.033510e+00
-1.942493e+00
-3.032793e+00
-4.319033e+00
-5.790945e+00
-7.433213e+00
-9.252357e+00
-1.124440e+01
-1.341671e+01
-1.576448e+01
-1.828906e+01
-2.102054e+01
-2.399897e+01
-2.699524e+01
-2.958585e+01
0.000000e+00
-4.223588e-01
-1.048950e+00
-1.928479e+00
-3.019818e+00
-4.301665e+00
-5.774989e+00
-7.422908e+00
-9.248427e+00
-1.125167e+01
-1.343513e+01
-1.580255e+01
-1.833327e+01
-2.102377e+01
-2.385501e+01
-2.663501e+01
-2.898404e+01
0.000000e+00
-4.121676e-01
-1.033839e+00
-1.945289e+00
-3.039293e+00
-4.332212e+00
-5.814241e+00
-7.466509e+00
-9.302882e+00
-1.131129e+01
-1.349493e+01
-1.585991e+01
-1.837855e+01
-2.101619e+01
-2.371660e+01
-2.632135e+01
-2.855835e+01
0.000000e+00
-3.650990e-01
-1.044445e+00
-1.980748e+00
-3.109791e+00
-4.408915e+00
-5.900323e+00
-7.563114e+00
-9.401728e+00
-1.141269e+01
-1.358512e+01
-1.593312e+01
-1.843216e+01
-2.102288e+01
-2.362891e+01
-2.611983e+01
-2.834470e+01
0.000000e+00
-3.979051e-01
-1.146229e+00
-2.088126e+00
-3.232090e+00
-4.535009e+00
-6.029340e+00
-7.697004e+00
-9.534502e+00
-1.154388e+01
-1.370745e+01
-1.603864e+01
-1.851603e+01
-2.106735e+01
-2.360737e+01
-2.603246e+01
-2.828913e+01
0.000000e+00
-6.011018e-01
-1.314996e+00
-2.272051e+00
-3.403982e+00
-4.711071e+00
-6.205300e+00
-7.867569e+00
-9.704540e+00
-1.170698e+01
-1.386636e+01
-1.618903e+01
-1.863846e+01
-2.114464e+01
-2.363135e+01
-2.601686e+01
-2.828839e+01


0.000000e+00
1.493388e-05
2.487117e-05
3.698335e-05
5.233692e-05
6.564292e-05
8.004272e-05
9.476544e-05
1.085344e-04
1.235201e-04
1.380344e-04
1.522910e-04
1.690878e-04
1.814286e-04
1.877940e-04
1.922869e-04
1.983884e-04
0.000000e+00
1.105057e-05
1.974023e-05
2.850930e-05
4.112167e-05
5.167429e-05
6.193714e-05
7.309357e-05
8.330801e-05
9.402398e-05
1.039275e-04
1.135291e-04
1.242459e-04
1.304252e-04
1.300756e-04
1.334479e-04
1.390240e-04
0.000000e+00
9.168380e-06
1.518941e-05
2.093215e-05
3.004379e-05
3.699602e-05
4.347278e-05
5.080469e-05
5.700006e-05
6.322973e-05
6.854485e-05
7.295993e-05
7.693954e-05
7.758107e-05
7.655659e-05
7.898940e-05
8.343550e-05
0.000000e+00
4.977213e-06
7.200609e-06
1.077614e-05
1.499180e-05
1.768309e-05
2.125100e-05
2.435113e-05
2.661918e-05
2.893433e-05
3.017345e-05
2.996469e-05
2.870861e-05
2.720981e-05
2.756014e-05
3.080856e-05
3.616787e-05
0.000000e+00
-7.113519e-08
-1.799296e-07
-3.266970e-07
-5.235119e-07
-7.718110e-07
-1.092302e-06
-1.526632e-06
-2.168012e-06
-3.336427e-06
-5.304486e-06
-8.261890e-06
-1.112412e-05
-1.279461e-05
-1.224112e-05
-9.805513e-06
-6.207692e-06
0.000000e+00
-5.083841e-06
-7.472917e-06
-1.130240e-05
-1.583836e-05
-1.897885e-05
-2.302858e-05
-2.665294e-05
-2.979691e-05
-3.269842e-05
-3.568372e-05
-3.933078e-05
-4.273077e-05
-4.431366e-05
-4.525631e-05
-4.575292e-05
-4.462286e-05
0.000000e+00
-9.173407e-06
-1.524088e-05
-2.109944e-05
-3.044864e-05
-3.767844e-05
-4.434676e-05
-5.209351e-05
-5.810803e-05
-6.333644e-05
-6.827501e-05
-7.237779e-05
-7.569876e-05
-7.832192e-05
-8.023440e-05
-8.193923e-05
-8.256692e-05
0.000000e+00
-1.101622e-05
-1.968669e-05
-2.842635e-05
-4.109038e-05
-5.170161e-05
-6.186897e-05
-7.331064e-05
-8.341319e-05
-9.348695e-05
-1.036386e-04
-1.115446e-04
-1.166208e-04
-1.204392e-04
-1.228221e-04
-1.236883e-04
-1.238463e-04
0.000000e+00
-1.496147e-05
-2.485363e-05
-3.682408e-05
-5.200630e-05
-6.512262e-05
-7.912922e-05
-9.356420e-05
-1.074203e-04
-1.223150e-04
-1.388304e-04
-1.528861e-04
-1.621286e-04
-1.665483e-04
-1.679901e-04
-1.678450e-04
-1.676104e-04
0.000000e+00
1.238081e-05
1.992421e-05
3.195356e-05
4.737087e-05
6.406100e-05
8.562747e-05
1.111186e-04
1.400617e-04
1.738839e-04
2.115203e-04
2.543849e-04
3.031639e-04
3.541937e-04
4.130416e-04
4.804992e-04
5.495980e-04
0.000000e+00
7.393153e-06
1.586487e-05
2.591190e-05
4.097109e-05
5.824357e-05
7.935374e-05
1.050053e-04
1.340264e-04
1.676955e-04
2.057253e-04
2.482393e-04
2.972753e-04
3.510698e-04
4.090002e-04
4.736647e-04
5.398505e-04
0.000000e+00
3.966734e-06
1.186363e-05
2.113664e-05
3.546869e-05
5.336541e-05
7.466948e-05
1.001928e-04
1.295641e-04
1.634574e-04
2.016090e-04
2.444772e-04
2.940314e-04
3.498120e-04
4.054787e-04
4.662513e-04
5.298588e-04
0.000000e+00
2.695882e-06
9.752425e-06
1.910486e-05
3.324001e-05
5.131658e-05
7.280102e-05
9.851129e-05
1.280749e-04
1.619096e-04
2.002744e-04
2.434029e-04
2.935072e-04
3.488116e-04
4.030289e-04
4.584126e-04
5.159317e-04
0.000000e+00
2.265943e-06
9.175990e-06
1.862498e-05
3.270874e-05
5.075282e-05
7.226474e-05
9.805416e-05
1.277728e-04
1.614518e-04
1.996054e-04
2.437448e-04
2.939018e-04
3.491675e-04
4.021001e-04
4.521973e-04
5.016116e-04
0.000000e+00
2.784788e-06
9.884749e-06
1.925496e-05
3.336210e-05
5.138668e-05
7.271804e-05
9.830164e-05
1.279355e-04
1.613795e-04
1.999745e-04
2.454471e-04
2.961545e-04
3.496316e-04
4.023954e-04
4.501478e-04
4.926670e-04
0.000000e+00
4.089572e-06
1.207618e-05
2.138991e-05
3.568758e-05
5.347733e-05
7.444065e-05
9.974019e-05
1.288193e-04
1.623296e-04
2.018680e-04
2.485926e-04
2.994000e-04
3.510406e-04
4.016587e-04
4.484816e-04
4.902079e-04
0.000000e+00
7.506948e-06
1.609858e-05
2.622656e-05
4.127177e-05
5.838670e-05
7.920942e-05
1.044358e-04
1.328465e-04
1.662829e-04
2.061693e-04
2.523073e-04
3.021781e-04
3.523829e-04
4.012816e-04
4.473286e-04
4.906526e-04
0.000000e+00
1.249350e-05
2.014953e-05
3.227467e-05
4.770528e-05
6.421214e-05
8.553294e-05
1.106472e-04
1.388385e-04
1.726060e-04
2.124227e-04
2.564544e-04
3.044022e-04
3.531937e-04
4.012988e-04
4.469787e-04
4.909296e-04


4.358918e+00
4.443269e+00
4.670341e+00
4.151684e+00
3.787606e+00
3.927914e+00
4.042210e+00
4.262075e+00
4.605461e+00
5.025137e+00
5.587036e+00
6.665498e+00
7.992478e+00
8.597228e+00
7.757409e+00
6.587360e+00
6.698623e+00
6.747741e+00
6.750834e+00
6.497860e+00
6.214086e+00
6.310369e+00
6.382775e+00
6.474256e+00
6.689625e+00
6.897757e+00
7.192662e+00
7.752047e+00
8.438663e+00
8.491386e+00
7.121506e+00
5.399215e+00
8.730558e+00
8.695643e+00
8.715403e+00
8.548266e+00
8.488709e+00
8.515633e+00
8.511995e+00
8.535208e+00
8.568046e+00
8.605839e+00
8.597026e+00
8.612150e+00
8.624342e+00
8.214660e+00
6.779849e+00
5.254161e+00
9.295964e+00
9.283948e+00
9.276178e+00
9.234801e+00
9.219685e+00
9.215770e+00
9.199095e+00
9.177964e+00
9.134156e+00
9.029561e+00
8.771625e+00
8.278406e+00
7.868989e+00
7.584089e+00
7.078063e+00
6.573393e+00
9.294727e+00
9.281340e+00
9.271597e+00
9.225509e+00
9.205948e+00
9.196598e+00
9.168788e+00
9.131121e+00
9.031392e+00
8.774679e+00
8.252048e+00
7.493205e+00
7.018600e+00
7.226106e+00
7.714026e+00
7.948222e+00
8.722959e+00
8.684781e+00
8.690859e+00
8.500281e+00
8.417200e+00
8.415233e+00
8.372303e+00
8.330154e+00
8.137862e+00
7.822229e+00
7.521006e+00
7.207872e+00
7.262760e+00
7.827552e+00
8.503741e+00
8.872825e+00
6.682559e+00
6.729435e+00
6.715834e+00
6.426885e+00
6.112790e+00
6.165190e+00
6.194817e+00
6.203660e+00
6.168299e+00
6.264900e+00
6.809144e+00
7.552836e+00
8.154908e+00
8.712471e+00
9.091150e+00
9.251762e+00
4.337072e+00
4.430690e+00
4.650546e+00
4.107559e+00
3.729424e+00
3.846946e+00
3.945995e+00
4.168440e+00
4.418031e+00
5.103237e+00
6.518157e+00
7.891733e+00
8.718351e+00
9.115069e+00
9.292584e+00
9.362797e+00


-7.475188e-01
-2.026030e-01
-3.410452e-01
-2.559727e-01
-1.424666e-01
-2.570127e-01
-1.838740e-01
-1.625535e-01
-1.950002e-01
-1.893865e-01
-1.645565e-01
-2.667289e-01
-4.671695e-01
-3.668200e-01
3.760025e-01
-8.340642e-01
5.983703e-01
4.510915e-01
3.087195e-01
2.301488e-01
2.895194e-01
1.936578e-01
1.993768e-01
2.025503e-01
1.574957e-01
1.681242e-01
2.125420e-01
2.709411e-01
3.739481e-01
6.342252e-01
7.142109e-01
-1.048843e+00
7.591913e-01
5.336500e-01
2.293475e-01
1.665410e-01
1.404354e-01
7.607670e-02
9.523775e-02
1.011635e-01
1.144073e-01
1.518802e-01
2.256275e-01
3.290884e-01
3.886444e-01
2.390774e-01
4.220599e-02
-2.273891e-01
7.728482e-01
6.040704e-01
3.132820e-01
1.992379e-01
1.135781e-01
8.100736e-02
9.602539e-02
1.102705e-01
1.416376e-01
1.633769e-01
1.822344e-01
1.877713e-01
7.352646e-02
-2.579111e-01
-3.052366e-01
-3.643796e-02
7.750018e-01
6.065833e-01
3.172963e-01
2.013808e-01
1.103094e-01
6.712900e-02
7.221745e-02
6.388590e-02
7.701762e-02
7.944880e-02
5.527522e-02
2.780262e-02
-5.856959e-02
-1.952793e-01
-9.131751e-02
3.472401e-01
7.640487e-01
5.399653e-01
2.403032e-01
1.771583e-01
1.381150e-01
5.466541e-02
4.859763e-02
-7.418844e-04
-3.196377e-02
-5.540060e-02
-1.214873e-01
-1.227680e-01
-5.921831e-02
6.230826e-02
3.491808e-01
7.535489e-01
6.016013e-01
4.527797e-01
3.130406e-01
2.371101e-01
2.845799e-01
1.836796e-01
1.732238e-01
1.243085e-01
4.258533e-02
-1.412109e-03
-1.011481e-01
-7.707855e-02
1.395564e-01
4.209702e-01
7.309643e-01
9.522570e-01
-7.476964e-01
-2.106298e-01
-3.450379e-01
-2.545199e-01
-1.522370e-01
-2.525696e-01
-1.521890e-01
-1.416286e-01
-1.119853e-01
-5.425742e-02
-6.973728e-02
8.806213e-02
4.647599e-01
7.866970e-01
9.545435e-01
9.988316e-01
1 2 19 18
2 3 20 19
3 4 21 20
4 5 22 21
5 6 23 22
6 7 24 23
7 8 25 24
8 9 26 25
9 10 27 26
10 11 28 27
11 12 29 28
12 13 30 29
13 14 31 30
14 15 32 31
15 16 33 32
16 17 34 33
18 19 36 35
19 20 37 36
20 21 38 37
21 22 39 38
22 23 40 39
23 24 41 40
24 25 42 41
25 26 43 42
26 27 44 43
27 28 45 44
28 29 46 45
29 30 47 46
30 31 48 47
31 32 49 48
32 33 50 49
33 34 51 50
35 36 53 52
36 37 54 53
37 38 55 54
38 39 56 55
39 40 57 56
40 41 58 57
41 42 59 58
42 43 60 59
43 44 61 60
44 45 62 61
45 46 63 62
46 47 64 63
47 48 65 64
48 49 66 65
49 50 67 66
50 51 68 67
52 53 70 69
53 54 71 70
54 55 72 71
55 56 73 72
56 57 74 73
57 58 75 74
58 59 76 75
59 60 77 76
60 61 78 77
61 62 79 78
62 63 80 79
63 64 81 80
64 65 82 81
65 66 83 82
66 67 84 83
67 68 85 84
69 70 87 86
70 71 88 87
71 72 89 88
72 73 90 89
73 74 91 90
74 75 92 91
75 76 93 92
76 77 94 93
77 78 95 94
78 79 96 95
79 80 97 96
80 81 98 97
81 82 99 98
82 83 100 99
83 84 101 100
84 85 102 101
86 87 104 103
87 88 105 104
88 89 106 105
89 90 107 106
90 91 108 107
91 92 109 108
92 93 110 109
93 94 111 110
94 95 112 111
95 96 113 112
96 97 114 113
97 98 115 114
98 99 116 115
99 100 117 116
100 101 118 117
101 102 119 118
103 104 121 120
104 105 122 121
105 106 123 122
106 107 124 123
107 108 125 124
108 109 126 125
109 110 127 126
110 111 128 127
111 112 129 128
112 113 130 129
113 114 131 130
114 115 132 131
115 116 133 132
116 117 134 133
117 118 135 134
118 119 136 135
120 121 138 137
121 122 139 138
122 123 140 139
123 124 141 140
124 125 142 141
125 126 143 142
126 127 144 143
127 128 145 144
128 129 146 145
129 130 147 146
130 131 148 147
131 132 149 148
132 133 150 149
133 134 151 150
134 135 152 151
135 136 153 152
