TITLE = "Solution"
VARIABLES = x, y, u, v, psiu, psiv, t, stress
ZONE T="structure" N=153 E=128 F=FEBLOCK ET=QUADRILATERAL VARLOCATION=([7,8]=cellcentered)
0.000000e+00
1.250000e+01
2.500000e+01
3.750000e+01
5.000000e+01
6.250000e+01
7.500000e+01
8.750000e+01
1.000000e+02
1.125000e+02
1.250000e+02
1.375000e+02
1.500000e+02
1.625000e+02
1.750000e+02
1.875000e+02
2.000000e+02
0.000000e+00
1.250000e+01
2.500000e+01
3.750000e+01
5.000000e+01
6.250000e+01
7.500000e+01
8.750000e+01
1.000000e+02
1.125000e+02
1.250000e+02
1.375000e+02
1.500000e+02
1.625000e+02
1.750000e+02
1.875000e+02
2.000000e+02
0.000000e+00
1.250000e+01
2.500000e+01
3.750000e+01
5.000000e+01
6.250000e+01
7.500000e+01
8.750000e+01
1.000000e+02
1.125000e+02
1.250000e+02
1.375000e+02
1.500000e+02
1.625000e+02
1.750000e+02
1.875000e+02
2.000000e+02
0.000000e+00
1.250000e+01
2.500000e+01
3.750000e+01
5.000000e+01
6.250000e+01
7.500000e+01
8.750000e+01
1.000000e+02
1.125000e+02
1.250000e+02
1.375000e+02
1.500000e+02
1.625000e+02
1.750000e+02
1.875000e+02
2.000000e+02
0.000000e+00
1.250000e+01
2.500000e+01
3.750000e+01
5.000000e+01
6.250000e+01
7.500000e+01
8.750000e+01
1.000000e+02
1.125000e+02
1.250000e+02
1.375000e+02
1.500000e+02
1.625000e+02
1.750000e+02
1.875000e+02
2.000000e+02
0.000000e+00
1.250000e+01
2.500000e+01
3.750000e+01
5.000000e+01
6.250000e+01
7.500000e+01
8.750000e+01
1.000000e+02
1.125000e+02
1.250000e+02
1.375000e+02
1.500000e+02
1.625000e+02
1.750000e+02
1.875000e+02
2.000000e+02
0.000000e+00
1.250000e+01
2.500000e+01
3.750000e+01
5.000000e+01
6.250000e+01
7.500000e+01
8.750000e+01
1.000000e+02
1.125000e+02
1.250000e+02
1.375000e+02
1.500000e+02
1.625000e+02
1.750000e+02
1.875000e+02
2.000000e+02
0.000000e+00
1.250000e+01
2.500000e+01
3.750000e+01
5.000000e+01
6.250000e+01
7.500000e+01
8.750000e+01
1.000000e+02
1.125000e+02
1.250000e+02
1.375000e+02
1.500000e+02
1.625000e+02
1.750000e+02
1.875000e+02
2.000000e+02
0.000000e+00
1.250000e+01
2.500000e+01
3.750000e+01
5.000000e+01
6.250000e+01
7.500000e+01
8.750000e+01
1.000000e+02
1.125000e+02
1.250000e+02
1.375000e+02
1.500000e+02
1.625000e+02
1.750000e+02
1.875000e+02
2.000000e+02
0.000000e+00
0.000000e+00
0.000000e+00
0.000000e+00
0.000000e+00
0.000000e+00
0.000000e+00
0.000000e+00
0.000000e+00
0.000000e+00
0.000000e+00
0.000000e+00
0.000000e+00
0.000000e+00
0.000000e+00
0.000000e+00
0.000000e+00
1.250000e+01
1.250000e+01
1.250000e+01
1.250000e+01
1.250000e+01
1.250000e+01
1.250000e+01
1.250000e+01
1.250000e+01
1.250000e+01
1.250000e+01
1.250000e+01
1.250000e+01
1.250000e+01
1.250000e+01
1.250000e+01
1.250000e+01
2.500000e+01
2.500000e+01
2.500000e+01
2.500000e+01
2.500000e+01
2.500000e+01
2.500000e+01
2.500000e+01
2.500000e+01
2.500000e+01
2.500000e+01
2.500000e+01
2.500000e+01
2.500000e+01
2.500000e+01
2.500000e+01
2.500000e+01
3.750000e+01
3.750000e+01
3.750000e+01
3.750000e+01
3.750000e+01
3.750000e+01
3.750000e+01
3.750000e+01
3.750000e+01
3.750000e+01
3.750000e+01
3.750000e+01
3.750000e+01
3.750000e+01
3.750000e+01
3.750000e+01
3.750000e+01
5.000000e+01
5.000000e+01
5.000000e+01
5.000000e+01
5.000000e+01
5.000000e+01
5.000000e+01
5.000000e+01
5.000000e+01
5.000000e+01
5.000000e+01
5.000000e+01
5.000000e+01
5.000000e+01
5.000000e+01
5.000000e+01
5.000000e+01
6.250000e+01
6.250000e+01
6.250000e+01
6.250000e+01
6.250000e+01
6.250000e+01
6.250000e+01
6.250000e+01
6.250000e+01
6.250000e+01
6.250000e+01
6.250000e+01
6.250000e+01
6.250000e+01
6.250000e+01
6.250000e+01
6.250000e+01
7.500000e+01
7.500000e+01
7.500000e+01
7.500000e+01
7.500000e+01
7.500000e+01
7.500000e+01
7.500000e+01
7.500000e+01
7.500000e+01
7.500000e+01
7.500000e+01
7.500000e+01
7.500000e+01
7.500000e+01
7.500000e+01
7.500000e+01
8.750000e+01
8.750000e+01
8.750000e+01
8.750000e+01
8.750000e+01
8.750000e+01
8.750000e+01
8.750000e+01
8.750000e+01
8.750000e+01
8.750000e+01
8.750000e+01
8.750000e+01
8.750000e+01
8.750000e+01
8.750000e+01
8.750000e+01
1.000000e+02
1.000000e+02
1.000000e+02
1.000000e+02
1.000000e+02
1.000000e+02
1.000000e+02
1.000000e+02
1.000000e+02
1.000000e+02
1.000000e+02
1.000000e+02
1.000000e+02
1.000000e+02
1.000000e+02
1.000000e+02
1.000000e+02
0.000000e+00
-3.402474e-01
-6.264902e-01
-8.899788e-01
-1.135553e+00
-1.362651e+00
-1.570727e+00
-1.759573e+00
-1.929428e+00
-2.081047e+00
-2.215916e+00
-2.336658e+00
-2.447802e+00
-2.557174e+00
-2.678277e+00
-2.826984e+00
-2.938562e+00
0.000000e+00
-2.031290e-01
-4.219780e-01
-6.241626e-01
-8.105913e-01
-9.819356e-01
-1.138502e+00
-1.280461e+00
-1.408042e+00
-1.521615e+00
-1.621744e+00
-1.709143e+00
-1.784362e+00
-1.846624e+00
-1.890539e+00
-1.900164e+00
-1.934664e+00
0.000000e+00
-1.269939e-01
-2.611600e-01
-3.950915e-01
-5.202128e-01
-6.351770e-01
-7.398609e-01
-8.343568e-01
-9.186683e-01
-9.926405e-01
-1.055866e+00
-1.107454e+00
-1.145563e+00
-1.166838e+00
-1.167431e+00
-1.158937e+00
-1.194126e+00
0.000000e+00
-6.128401e-02
-1.261819e-01
-1.915357e-01
-2.540747e-01
-3.117178e-01
-3.639965e-01
-4.107460e-01
-4.516882e-01
-4.862829e-01
-5.136406e-01
-5.324665e-01
-5.412175e-01
-5.391731e-01
-5.307735e-01
-5.330695e-01
-5.592735e-01
0.000000e+00
-5.701548e-05
-1.295308e-04
-2.018046e-04
-2.403111e-04
-1.702723e-04
1.567598e-04
1.007172e-03
2.818012e-03
6.240290e-03
1.212333e-02
2.132037e-02
3.406204e-02
4.846107e-02
5.840807e-02
5.568191e-02
3.833108e-02
0.000000e+00
6.119618e-02
1.259782e-01
1.912099e-01
2.536693e-01
3.113870e-01
3.641201e-01
4.121145e-01
4.557766e-01
4.956060e-01
5.321186e-01
5.655813e-01
5.954111e-01
6.193323e-01
6.334045e-01
6.345216e-01
6.257145e-01
0.000000e+00
1.269791e-01
2.611153e-01
3.950029e-01
5.200749e-01
6.350053e-01
7.397177e-01
8.343988e-01
9.192253e-01
9.943338e-01
1.059780e+00
1.115398e+00
1.160544e+00
1.193923e+00
1.213959e+00
1.220465e+00
1.218411e+00
0.000000e+00
2.032120e-01
4.221586e-01
6.244506e-01
8.109777e-01
9.823490e-01
1.138732e+00
1.280031e+00
1.406001e+00
1.516258e+00
1.610264e+00
1.687360e+00
1.746923e+00
1.788754e+00
1.813708e+00
1.824349e+00
1.826304e+00
0.000000e+00
3.403866e-01
6.268577e-01
8.906677e-01
1.136654e+00
1.364200e+00
1.572577e+00
1.761129e+00
1.929189e+00
2.075856e+00
2.199840e+00
2.299475e+00
2.373117e+00
2.420184e+00
2.442946e+00
2.448564e+00
2.448455e+00
0.000000e+00
-2.059769e-01
-4.044516e-01
-6.616800e-01
-9.774141e-01
-1.351077e+00
-1.778601e+00
-2.255219e+00
-2.775872e+00
-3.335562e+00
-3.929666e+00
-4.554504e+00
-5.208568e+00
-5.895354e+00
-6.632705e+00
-7.476515e+00
-8.689338e+00
0.000000e+00
-1.268122e-01
-3.338434e-01
-5.942159e-01
-9.150603e-01
-1.293787e+00
-1.726469e+00
-2.208218e+00
-2.733914e+00
-3.298465e+00
-3.897118e+00
-4.526024e+00
-5.183439e+00
-5.872769e+00
-6.609836e+00
-7.448524e+00
-8.476213e+00
0.000000e+00
-9.571358e-02
-2.848984e-01
-5.462031e-01
-8.700472e-01
-1.252646e+00
-1.689288e+00
-2.175036e+00
-2.704804e+00
-3.273570e+00
-3.876673e+00
-4.510391e+00
-5.173149e+00
-5.867789e+00
-6.605494e+00
-7.400128e+00
-8.169124e+00
0.000000e+00
-8.251415e-02
-2.605726e-01
-5.180252e-01
-8.430218e-01
-1.227960e+00
-1.667313e+00
-2.155958e+00
-2.688901e+00
-3.261257e+00
-3.868464e+00
-4.506728e+00
-5.173724e+00
-5.869134e+00
-6.592059e+00
-7.322131e+00
-7.994603e+00
0.000000e+00
-7.871754e-02
-2.532136e-01
-5.090378e-01
-8.341170e-01
-1.220009e+00
-1.660622e+00
-2.150839e+00
-2.685762e+00
-3.260584e+00
-3.870642e+00
-4.511541e+00
-5.179131e+00
-5.868479e+00
-6.569246e+00
-7.257423e+00
-7.891309e+00
0.000000e+00
-8.246498e-02
-2.605376e-01
-5.180874e-01
-8.433274e-01
-1.228765e+00
-1.669035e+00
-2.159219e+00
-2.694524e+00
-3.270119e+00
-3.881040e+00
-4.521970e+00
-5.186698e+00
-5.866748e+00
-6.549030e+00
-7.213569e+00
-7.833899e+00
0.000000e+00
-9.563337e-02
-2.848404e-01
-5.463069e-01
-8.705620e-01
-1.254008e+00
-1.692207e+00
-2.180573e+00
-2.714363e+00
-3.288666e+00
-3.898181e+00
-4.536775e+00
-5.196741e+00
-5.867864e+00
-6.536896e+00
-7.188659e+00
-7.808576e+00
0.000000e+00
-1.267369e-01
-3.337928e-01
-5.943536e-01
-9.156782e-01
-1.295388e+00
-1.729866e+00
-2.214617e+00
-2.744894e+00
-3.315698e+00
-3.921513e+00
-4.555769e+00
-5.210102e+00
-5.873740e+00
-6.533857e+00
-7.178359e+00
-7.802632e+00
0.000000e+00
-2.059455e-01
-4.044556e-01
-6.618930e-01
-9.781302e-01
-1.352788e+00
-1.782078e+00
-2.261563e+00
-2.786448e+00
-3.351651e+00
-3.951522e+00
-4.579350e+00
-5.226713e+00
-5.883078e+00
-6.536439e+00
-7.176475e+00
-7.802725e+00


0.000000e+00
1.460384e-07
3.018653e-07
4.385828e-07
5.525038e-07
6.438040e-07
7.147596e-07
7.685269e-07
8.082845e-07
8.369743e-07
8.572133e-07
8.712945e-07
8.812657e-07
8.889991e-07
8.962342e-07
9.052591e-07
9.161698e-07
0.000000e+00
1.003216e-07
2.352145e-07
3.436026e-07
4.291777e-07
4.957842e-07
5.464956e-07
5.842529e-07
6.116661e-07
6.309857e-07
6.441101e-07
6.525732e-07
6.575095e-07
6.599006e-07
6.623428e-07
6.697099e-07
6.809358e-07
0.000000e+00
7.463132e-08
1.630108e-07
2.359910e-07
2.938384e-07
3.378442e-07
3.705004e-07
3.941867e-07
4.108758e-07
4.221556e-07
4.292950e-07
4.333042e-07
4.350588e-07
4.357148e-07
4.374534e-07
4.432388e-07
4.523133e-07
0.000000e+00
3.964082e-08
8.072367e-08
1.172548e-07
1.468342e-07
1.691605e-07
1.854261e-07
1.969496e-07
2.048069e-07
2.098380e-07
2.127258e-07
2.140936e-07
2.146421e-07
2.152552e-07
2.168120e-07
2.203171e-07
2.258710e-07
0.000000e+00
-4.565622e-11
-1.045701e-10
-1.836793e-10
-2.944019e-10
-4.524766e-10
-6.781007e-10
-9.945193e-10
-1.421494e-09
-1.959523e-09
-2.560101e-09
-3.083071e-09
-3.275645e-09
-2.891885e-09
-1.927364e-09
-2.503210e-10
2.619456e-09
0.000000e+00
-3.972069e-08
-8.090449e-08
-1.175713e-07
-1.473347e-07
-1.699141e-07
-1.865294e-07
-1.985319e-07
-2.070310e-07
-2.128843e-07
-2.167427e-07
-2.190864e-07
-2.202748e-07
-2.206527e-07
-2.206214e-07
-2.202129e-07
-2.189951e-07
0.000000e+00
-7.467751e-08
-1.631328e-07
-2.362097e-07
-2.941762e-07
-3.383234e-07
-3.711423e-07
-3.950113e-07
-4.119088e-07
-4.234471e-07
-4.309531e-07
-4.355358e-07
-4.381294e-07
-4.395130e-07
-4.402612e-07
-4.405222e-07
-4.401809e-07
0.000000e+00
-1.003426e-07
-2.353025e-07
-3.437554e-07
-4.293898e-07
-4.960354e-07
-5.467403e-07
-5.844134e-07
-6.116348e-07
-6.306469e-07
-6.433906e-07
-6.515341e-07
-6.564806e-07
-6.593478e-07
-6.609304e-07
-6.616534e-07
-6.617548e-07
0.000000e+00
-1.461081e-07
-3.019875e-07
-4.387329e-07
-5.526468e-07
-6.438802e-07
-7.146730e-07
-7.681405e-07
-8.074202e-07
-8.354173e-07
-8.547099e-07
-8.675067e-07
-8.756223e-07
-8.804577e-07
-8.830087e-07
-8.839852e-07
-8.841540e-07
0.000000e+00
1.325546e-07
2.367100e-07
3.454094e-07
4.759627e-07
6.296744e-07
8.032400e-07
9.924446e-07
1.193327e-06
1.402677e-06
1.618061e-06
1.837830e-06
2.061300e-06
2.289819e-06
2.529229e-06
2.782660e-06
3.039275e-06
0.000000e+00
7.077567e-08
1.730578e-07
2.899634e-07
4.311440e-07
5.948168e-07
7.769335e-07
9.730789e-07
1.179455e-06
1.393040e-06
1.611597e-06
1.833652e-06
2.058593e-06
2.287061e-06
2.521840e-06
2.768492e-06
3.021106e-06
0.000000e+00
3.452852e-08
1.233762e-07
2.468982e-07
3.966692e-07
5.684704e-07
7.573398e-07
9.588768e-07
1.169474e-06
1.386317e-06
1.607338e-06
1.831190e-06
2.057170e-06
2.284898e-06
2.514613e-06
2.753465e-06
2.999598e-06
0.000000e+00
1.968715e-08
1.002355e-07
2.244461e-07
3.786076e-07
5.548351e-07
7.473630e-07
9.517713e-07
1.164601e-06
1.383174e-06
1.605508e-06
1.830240e-06
2.056434e-06
2.283154e-06
2.510152e-06
2.742846e-06
2.980859e-06
0.000000e+00
1.600261e-08
9.398356e-08
2.176346e-07
3.730247e-07
5.506527e-07
7.443595e-07
9.497004e-07
1.163273e-06
1.382440e-06
1.605208e-06
1.830129e-06
2.056115e-06
2.282206e-06
2.508083e-06
2.736843e-06
2.967601e-06
0.000000e+00
1.971121e-08
1.002678e-07
2.244893e-07
3.786697e-07
5.549365e-07
7.475390e-07
9.520705e-07
1.165074e-06
1.383844e-06
1.606306e-06
1.830911e-06
2.056496e-06
2.282181e-06
2.507633e-06
2.733978e-06
2.960009e-06
0.000000e+00
3.456734e-08
1.234361e-07
2.469864e-07
3.968009e-07
5.686846e-07
7.577019e-07
9.594759e-07
1.170404e-06
1.387628e-06
1.608938e-06
1.832665e-06
2.057569e-06
2.282767e-06
2.507794e-06
2.732714e-06
2.956474e-06
0.000000e+00
7.083443e-08
1.731657e-07
2.901195e-07
4.313672e-07
5.951511e-07
7.774509e-07
9.738756e-07
1.180633e-06
1.394659e-06
1.613570e-06
1.835549e-06
2.059234e-06
2.283642e-06
2.508121e-06
2.732231e-06
2.955296e-06
0.000000e+00
1.326555e-07
2.368775e-07
3.456373e-07
4.762647e-07
6.300834e-07
8.038106e-07
9.932494e-07
1.194442e-06
1.404139e-06
1.619776e-06
1.839372e-06
2.061412e-06
2.284760e-06
2.508580e-06
2.732198e-06
2.955116e-06


9.933892e-01
9.933852e-01
9.939223e-01
9.948587e-01
9.957086e-01
9.963800e-01
9.968877e-01
9.972576e-01
9.975166e-01
9.976901e-01
9.977998e-01
9.978609e-01
9.978713e-01
9.977919e-01
9.976345e-01
9.975167e-01
9.943160e-01
9.942997e-01
9.947133e-01
9.954673e-01
9.961563e-01
9.966991e-01
9.971084e-01
9.974049e-01
9.976115e-01
9.977490e-01
9.978348e-01
9.978804e-01
9.978810e-01
9.977955e-01
9.976397e-01
9.975249e-01
9.958774e-01
9.958464e-01
9.960772e-01
9.965117e-01
9.969119e-01
9.972315e-01
9.974711e-01
9.976427e-01
9.977607e-01
9.978377e-01
9.978838e-01
9.979052e-01
9.978958e-01
9.978221e-01
9.976955e-01
9.976060e-01
9.969944e-01
9.969681e-01
9.970622e-01
9.972529e-01
9.974437e-01
9.976009e-01
9.977185e-01
9.978009e-01
9.978559e-01
9.978900e-01
9.979085e-01
9.979147e-01
9.979050e-01
9.978606e-01
9.977875e-01
9.977369e-01
9.969939e-01
9.969674e-01
9.970613e-01
9.972516e-01
9.974418e-01
9.975983e-01
9.977149e-01
9.977961e-01
9.978499e-01
9.978832e-01
9.979019e-01
9.979103e-01
9.979093e-01
9.978924e-01
9.978630e-01
9.978429e-01
9.958756e-01
9.958442e-01
9.960745e-01
9.965084e-01
9.969077e-01
9.972260e-01
9.974640e-01
9.976337e-01
9.977497e-01
9.978252e-01
9.978717e-01
9.978985e-01
9.979118e-01
9.979139e-01
9.979087e-01
9.979043e-01
9.943127e-01
9.942958e-01
9.947091e-01
9.954630e-01
9.961521e-01
9.966950e-01
9.971045e-01
9.974011e-01
9.976074e-01
9.977447e-01
9.978314e-01
9.978830e-01
9.979116e-01
9.979256e-01
9.979310e-01
9.979327e-01
9.933849e-01
9.933804e-01
9.939174e-01
9.948544e-01
9.957054e-01
9.963783e-01
9.968882e-01
9.972603e-01
9.975211e-01
9.976960e-01
9.978073e-01
9.978739e-01
9.979112e-01
9.979304e-01
9.979393e-01
9.979428e-01


7.395993e-01
7.765236e-01
8.105227e-01
8.365807e-01
8.608453e-01
8.833055e-01
9.038306e-01
9.221530e-01
9.380592e-01
9.513773e-01
9.619750e-01
9.697422e-01
9.745729e-01
9.763011e-01
9.775515e-01
9.009266e-01
9.015328e-01
8.845766e-01
8.953593e-01
9.094357e-01
9.226018e-01
9.346136e-01
9.455217e-01
9.554255e-01
9.644083e-01
9.725548e-01
9.799521e-01
9.866535e-01
9.925017e-01
9.963323e-01
9.866549e-01
8.554745e-01
9.657896e-01
9.560391e-01
9.533592e-01
9.569933e-01
9.618111e-01
9.664973e-01
9.708629e-01
9.749996e-01
9.790146e-01
9.829349e-01
9.865989e-01
9.894370e-01
9.900297e-01
9.849193e-01
9.663815e-01
9.330412e-01
9.930218e-01
9.859125e-01
9.815099e-01
9.803775e-01
9.808042e-01
9.815366e-01
9.822722e-01
9.829952e-01
9.837076e-01
9.843054e-01
9.844708e-01
9.835759e-01
9.807398e-01
9.756510e-01
9.713378e-01
9.702474e-01
9.930480e-01
9.859499e-01
9.815432e-01
9.803708e-01
9.806934e-01
9.812168e-01
9.815791e-01
9.816966e-01
9.815184e-01
9.809617e-01
9.799296e-01
9.784442e-01
9.770306e-01
9.773118e-01
9.813075e-01
9.882230e-01
9.658391e-01
9.561139e-01
9.534311e-01
9.569943e-01
9.616218e-01
9.659119e-01
9.695522e-01
9.724848e-01
9.746844e-01
9.761670e-01
9.771051e-01
9.780239e-01
9.799574e-01
9.840121e-01
9.901031e-01
9.964008e-01
9.015241e-01
8.845704e-01
8.953451e-01
9.093954e-01
9.224978e-01
9.343753e-01
9.450275e-01
9.544816e-01
9.627336e-01
9.697957e-01
9.757791e-01
9.810075e-01
9.860441e-01
9.913254e-01
9.962642e-01
9.993747e-01
7.394222e-01
7.762459e-01
8.101817e-01
8.361974e-01
8.605003e-01
8.831800e-01
9.042568e-01
9.236556e-01
9.413605e-01
9.573231e-01
9.713430e-01
9.829781e-01
9.916356e-01
9.969775e-01
9.994077e-01
9.999874e-01
1 2 19 18
2 3 20 19
3 4 21 20
4 5 22 21
5 6 23 22
6 7 24 23
7 8 25 24
8 9 26 25
9 10 27 26
10 11 28 27
11 12 29 28
12 13 30 29
13 14 31 30
14 15 32 31
15 16 33 32
16 17 34 33
18 19 36 35
19 20 37 36
20 21 38 37
21 22 39 38
22 23 40 39
23 24 41 40
24 25 42 41
25 26 43 42
26 27 44 43
27 28 45 44
28 29 46 45
29 30 47 46
30 31 48 47
31 32 49 48
32 33 50 49
33 34 51 50
35 36 53 52
36 37 54 53
37 38 55 54
38 39 56 55
39 40 57 56
40 41 58 57
41 42 59 58
42 43 60 59
43 44 61 60
44 45 62 61
45 46 63 62
46 47 64 63
47 48 65 64
48 49 66 65
49 50 67 66
50 51 68 67
52 53 70 69
53 54 71 70
54 55 72 71
55 56 73 72
56 57 74 73
57 58 75 74
58 59 76 75
59 60 77 76
60 61 78 77
61 62 79 78
62 63 80 79
63 64 81 80
64 65 82 81
65 66 83 82
66 67 84 83
67 68 85 84
69 70 87 86
70 71 88 87
71 72 89 88
72 73 90 89
73 74 91 90
74 75 92 91
75 76 93 92
76 77 94 93
77 78 95 94
78 79 96 95
79 80 97 96
80 81 98 97
81 82 99 98
82 83 100 99
83 84 101 100
84 85 102 101
86 87 104 103
87 88 105 104
88 89 106 105
89 90 107 106
90 91 108 107
91 92 109 108
92 93 110 109
93 94 111 110
94 95 112 111
95 96 113 112
96 97 114 113
97 98 115 114
98 99 116 115
99 100 117 116
100 101 118 117
101 102 119 118
103 104 121 120
104 105 122 121
105 106 123 122
106 107 124 123
107 108 125 124
108 109 126 125
109 110 127 126
110 111 128 127
111 112 129 128
112 113 130 129
113 114 131 130
114 115 132 131
115 116 133 132
116 117 134 133
117 118 135 134
118 119 136 135
120 121 138 137
121 122 139 138
122 123 140 139
123 124 141 140
124 125 142 141
125 126 143 142
126 127 144 143
127 128 145 144
128 129 146 145
129 130 147 146
130 131 148 147
131 132 149 148
132 133 150 149
133 134 151 150
134 135 152 151
135 136 153 152
