TITLE = "Solution"
VARIABLES = x, y, u, v, psiu, psiv, t, stress
ZONE T="structure" N=153 E=128 F=FEBLOCK ET=QUADRILATERAL VARLOCATION=([7,8]=cellcentered)
0.000000e+00
1.250000e+01
2.500000e+01
3.750000e+01
5.000000e+01
6.250000e+01
7.500000e+01
8.750000e+01
1.000000e+02
1.125000e+02
1.250000e+02
1.375000e+02
1.500000e+02
1.625000e+02
1.750000e+02
1.875000e+02
2.000000e+02
0.000000e+00
1.250000e+01
2.500000e+01
3.750000e+01
5.000000e+01
6.250000e+01
7.500000e+01
8.750000e+01
1.000000e+02
1.125000e+02
1.250000e+02
1.375000e+02
1.500000e+02
1.625000e+02
1.750000e+02
1.875000e+02
2.000000e+02
0.000000e+00
1.250000e+01
2.500000e+01
3.750000e+01
5.000000e+01
6.250000e+01
7.500000e+01
8.750000e+01
1.000000e+02
1.125000e+02
1.250000e+02
1.375000e+02
1.500000e+02
1.625000e+02
1.750000e+02
1.875000e+02
2.000000e+02
0.000000e+00
1.250000e+01
2.500000e+01
3.750000e+01
5.000000e+01
6.250000e+01
7.500000e+01
8.750000e+01
1.000000e+02
1.125000e+02
1.250000e+02
1.375000e+02
1.500000e+02
1.625000e+02
1.750000e+02
1.875000e+02
2.000000e+02
0.000000e+00
1.250000e+01
2.500000e+01
3.750000e+01
5.000000e+01
6.250000e+01
7.500000e+01
8.750000e+01
1.000000e+02
1.125000e+02
1.250000e+02
1.375000e+02
1.500000e+02
1.625000e+02
1.750000e+02
1.875000e+02
2.000000e+02
0.000000e+00
1.250000e+01
2.500000e+01
3.750000e+01
5.000000e+01
6.250000e+01
7.500000e+01
8.750000e+01
1.000000e+02
1.125000e+02
1.250000e+02
1.375000e+02
1.500000e+02
1.625000e+02
1.750000e+02
1.875000e+02
2.000000e+02
0.000000e+00
1.250000e+01
2.500000e+01
3.750000e+01
5.000000e+01
6.250000e+01
7.500000e+01
8.750000e+01
1.000000e+02
1.125000e+02
1.250000e+02
1.375000e+02
1.500000e+02
1.625000e+02
1.750000e+02
1.875000e+02
2.000000e+02
0.000000e+00
1.250000e+01
2.500000e+01
3.750000e+01
5.000000e+01
6.250000e+01
7.500000e+01
8.750000e+01
1.000000e+02
1.125000e+02
1.250000e+02
1.375000e+02
1.500000e+02
1.625000e+02
1.750000e+02
1.875000e+02
2.000000e+02
0.000000e+00
1.250000e+01
2.500000e+01
3.750000e+01
5.000000e+01
6.250000e+01
7.500000e+01
8.750000e+01
1.000000e+02
1.125000e+02
1.250000e+02
1.375000e+02
1.500000e+02
1.625000e+02
1.750000e+02
1.875000e+02
2.000000e+02
0.000000e+00
0.000000e+00
0.000000e+00
0.000000e+00
0.000000e+00
0.000000e+00
0.000000e+00
0.000000e+00
0.000000e+00
0.000000e+00
0.000000e+00
0.000000e+00
0.000000e+00
0.000000e+00
0.000000e+00
0.000000e+00
0.000000e+00
1.250000e+01
1.250000e+01
1.250000e+01
1.250000e+01
1.250000e+01
1.250000e+01
1.250000e+01
1.250000e+01
1.250000e+01
1.250000e+01
1.250000e+01
1.250000e+01
1.250000e+01
1.250000e+01
1.250000e+01
1.250000e+01
1.250000e+01
2.500000e+01
2.500000e+01
2.500000e+01
2.500000e+01
2.500000e+01
2.500000e+01
2.500000e+01
2.500000e+01
2.500000e+01
2.500000e+01
2.500000e+01
2.500000e+01
2.500000e+01
2.500000e+01
2.500000e+01
2.500000e+01
2.500000e+01
3.750000e+01
3.750000e+01
3.750000e+01
3.750000e+01
3.750000e+01
3.750000e+01
3.750000e+01
3.750000e+01
3.750000e+01
3.750000e+01
3.750000e+01
3.750000e+01
3.750000e+01
3.750000e+01
3.750000e+01
3.750000e+01
3.750000e+01
5.000000e+01
5.000000e+01
5.000000e+01
5.000000e+01
5.000000e+01
5.000000e+01
5.000000e+01
5.000000e+01
5.000000e+01
5.000000e+01
5.000000e+01
5.000000e+01
5.000000e+01
5.000000e+01
5.000000e+01
5.000000e+01
5.000000e+01
6.250000e+01
6.250000e+01
6.250000e+01
6.250000e+01
6.250000e+01
6.250000e+01
6.250000e+01
6.250000e+01
6.250000e+01
6.250000e+01
6.250000e+01
6.250000e+01
6.250000e+01
6.250000e+01
6.250000e+01
6.250000e+01
6.250000e+01
7.500000e+01
7.500000e+01
7.500000e+01
7.500000e+01
7.500000e+01
7.500000e+01
7.500000e+01
7.500000e+01
7.500000e+01
7.500000e+01
7.500000e+01
7.500000e+01
7.500000e+01
7.500000e+01
7.500000e+01
7.500000e+01
7.500000e+01
8.750000e+01
8.750000e+01
8.750000e+01
8.750000e+01
8.750000e+01
8.750000e+01
8.750000e+01
8.750000e+01
8.750000e+01
8.750000e+01
8.750000e+01
8.750000e+01
8.750000e+01
8.750000e+01
8.750000e+01
8.750000e+01
8.750000e+01
1.000000e+02
1.000000e+02
1.000000e+02
1.000000e+02
1.000000e+02
1.000000e+02
1.000000e+02
1.000000e+02
1.000000e+02
1.000000e+02
1.000000e+02
1.000000e+02
1.000000e+02
1.000000e+02
1.000000e+02
1.000000e+02
1.000000e+02
0.000000e+00
-8.084004e-01
-1.474374e+00
-2.116286e+00
-2.767221e+00
-3.409007e+00
-4.038662e+00
-4.655105e+00
-5.250538e+00
-5.814440e+00
-6.338774e+00
-6.822152e+00
-7.273534e+00
-7.715817e+00
-8.188936e+00
-8.740222e+00
-9.140628e+00
0.000000e+00
-4.562883e-01
-9.502603e-01
-1.432674e+00
-1.921072e+00
-2.402162e+00
-2.873414e+00
-3.334463e+00
-3.779709e+00
-4.200606e+00
-4.588940e+00
-4.938694e+00
-5.245630e+00
-5.501401e+00
-5.678604e+00
-5.717620e+00
-5.845079e+00
0.000000e+00
-2.660827e-01
-5.568306e-01
-8.738579e-01
-1.199583e+00
-1.522057e+00
-1.838305e+00
-2.145990e+00
-2.440035e+00
-2.713290e+00
-2.957448e+00
-3.163222e+00
-3.319003e+00
-3.408266e+00
-3.414051e+00
-3.383479e+00
-3.515380e+00
0.000000e+00
-1.219108e-01
-2.586050e-01
-4.123797e-01
-5.745479e-01
-7.366826e-01
-8.955694e-01
-1.048227e+00
-1.190648e+00
-1.317466e+00
-1.421875e+00
-1.495792e+00
-1.530750e+00
-1.522304e+00
-1.487944e+00
-1.495732e+00
-1.597035e+00
0.000000e+00
-4.304496e-04
-9.185583e-04
-1.388166e-03
-1.692279e-03
-1.530622e-03
-3.172495e-04
3.017265e-03
1.027169e-02
2.417382e-02
4.832041e-02
8.637361e-02
1.394752e-01
2.000087e-01
2.427317e-01
2.337002e-01
1.646659e-01
0.000000e+00
1.211905e-01
2.570472e-01
4.099719e-01
5.714910e-01
7.336535e-01
8.941663e-01
1.051720e+00
1.205117e+00
1.353297e+00
1.495323e+00
1.629664e+00
1.751966e+00
1.851484e+00
1.910915e+00
1.916746e+00
1.881146e+00
0.000000e+00
2.657370e-01
5.560330e-01
8.725041e-01
1.197611e+00
1.519570e+00
1.835735e+00
2.144267e+00
2.440787e+00
2.719175e+00
2.972794e+00
3.195082e+00
3.379120e+00
3.516833e+00
3.600108e+00
3.627424e+00
3.619166e+00
0.000000e+00
4.564006e-01
9.504269e-01
1.432822e+00
1.921054e+00
2.401707e+00
2.872025e+00
3.330867e+00
3.770707e+00
4.179463e+00
4.543786e+00
4.851561e+00
5.093659e+00
5.265386e+00
5.368325e+00
5.412304e+00
5.420415e+00
0.000000e+00
8.087484e-01
1.475302e+00
2.117984e+00
2.769862e+00
3.412697e+00
4.043239e+00
4.659104e+00
5.248842e+00
5.794563e+00
6.276022e+00
6.673867e+00
6.972712e+00
7.165221e+00
7.258484e+00
7.281332e+00
7.280785e+00
0.000000e+00
-4.953699e-01
-1.007838e+00
-1.686107e+00
-2.525150e+00
-3.526529e+00
-4.691502e+00
-6.017269e+00
-7.496730e+00
-9.119933e+00
-1.087535e+01
-1.275251e+01
-1.474709e+01
-1.687110e+01
-1.918800e+01
-2.189940e+01
-2.594993e+01
0.000000e+00
-3.097063e-01
-8.432289e-01
-1.516656e+00
-2.355755e+00
-3.359998e+00
-4.528416e+00
-5.858848e+00
-7.345634e+00
-8.979099e+00
-1.074694e+01
-1.263728e+01
-1.464430e+01
-1.678025e+01
-1.910139e+01
-2.179874e+01
-2.517486e+01
0.000000e+00
-2.452496e-01
-7.318808e-01
-1.399584e+00
-2.236419e+00
-3.242029e+00
-4.413587e+00
-5.748800e+00
-7.242677e+00
-8.886173e+00
-1.066726e+01
-1.257415e+01
-1.460139e+01
-1.675940e+01
-1.908618e+01
-2.162228e+01
-2.405072e+01
0.000000e+00
-2.288450e-01
-6.824924e-01
-1.333906e+00
-2.166935e+00
-3.172676e+00
-4.347161e+00
-5.687395e+00
-7.188555e+00
-8.842201e+00
-1.063674e+01
-1.255998e+01
-1.460330e+01
-1.676457e+01
-1.903544e+01
-2.132867e+01
-2.339079e+01
0.000000e+00
-2.269432e-01
-6.696015e-01
-1.314191e+00
-2.144793e+00
-3.151125e+00
-4.327964e+00
-5.672306e+00
-7.179583e+00
-8.841697e+00
-1.064669e+01
-1.257993e+01
-1.462532e+01
-1.676205e+01
-1.894536e+01
-2.107520e+01
-2.298311e+01
0.000000e+00
-2.286360e-01
-6.824077e-01
-1.334322e+00
-2.168416e+00
-3.176157e+00
-4.354193e+00
-5.700412e+00
-7.210920e+00
-8.877612e+00
-1.068730e+01
-1.262157e+01
-1.465586e+01
-1.675491e+01
-1.886345e+01
-2.089819e+01
-2.275035e+01
0.000000e+00
-2.449012e-01
-7.317201e-01
-1.400215e+00
-2.238792e+00
-3.247719e+00
-4.425215e+00
-5.770515e+00
-7.280243e+00
-8.945991e+00
-1.075319e+01
-1.268014e+01
-1.469622e+01
-1.675916e+01
-1.881353e+01
-2.079607e+01
-2.264671e+01
0.000000e+00
-3.093557e-01
-8.430521e-01
-1.517348e+00
-2.358416e+00
-3.366457e+00
-4.541691e+00
-5.883652e+00
-7.388431e+00
-9.046925e+00
-1.084376e+01
-1.275583e+01
-1.475030e+01
-1.678304e+01
-1.880084e+01
-2.075358e+01
-2.262251e+01
0.000000e+00
-4.951335e-01
-1.007777e+00
-1.686946e+00
-2.528006e+00
-3.533248e+00
-4.705041e+00
-6.041977e+00
-7.538131e+00
-9.183281e+00
-1.096176e+01
-1.285069e+01
-1.481797e+01
-1.682128e+01
-1.881136e+01
-2.074576e+01
-2.262299e+01


0.000000e+00
8.693947e-06
1.729907e-05
2.527277e-05
3.317791e-05
4.066664e-05
4.727592e-05
5.278588e-05
5.711690e-05
6.030770e-05
6.252527e-05
6.401255e-05
6.503032e-05
6.583283e-05
6.664019e-05
6.780522e-05
6.935360e-05
0.000000e+00
6.370084e-06
1.391384e-05
1.998301e-05
2.593502e-05
3.159126e-05
3.650843e-05
4.050903e-05
4.356875e-05
4.573649e-05
4.715637e-05
4.801545e-05
4.846462e-05
4.860262e-05
4.875358e-05
4.969525e-05
5.129464e-05
0.000000e+00
4.753766e-06
9.718551e-06
1.386106e-05
1.788251e-05
2.156985e-05
2.473781e-05
2.729706e-05
2.923121e-05
3.056827e-05
3.139482e-05
3.182628e-05
3.197546e-05
3.198560e-05
3.213813e-05
3.290549e-05
3.419618e-05
0.000000e+00
2.371448e-06
4.543574e-06
6.801787e-06
8.847603e-06
1.064673e-05
1.219073e-05
1.345429e-05
1.441196e-05
1.506797e-05
1.545749e-05
1.564325e-05
1.571696e-05
1.580042e-05
1.599916e-05
1.644377e-05
1.717482e-05
0.000000e+00
-4.874971e-09
-1.031816e-08
-1.619995e-08
-2.291367e-08
-3.175254e-08
-4.565506e-08
-6.888118e-08
-1.052006e-07
-1.550056e-07
-2.118350e-07
-2.574761e-07
-2.592188e-07
-1.867593e-07
-6.139106e-08
1.128387e-07
4.341962e-07
0.000000e+00
-2.380197e-06
-4.561481e-06
-6.830387e-06
-8.888177e-06
-1.070182e-05
-1.226621e-05
-1.356118e-05
-1.456641e-05
-1.528900e-05
-1.576084e-05
-1.602892e-05
-1.614462e-05
-1.616504e-05
-1.616004e-05
-1.614001e-05
-1.602422e-05
0.000000e+00
-4.758333e-06
-9.729802e-06
-1.388126e-05
-1.791495e-05
-2.161689e-05
-2.479755e-05
-2.735989e-05
-2.928385e-05
-3.060522e-05
-3.142894e-05
-3.189429e-05
-3.213442e-05
-3.225720e-05
-3.233370e-05
-3.237277e-05
-3.234452e-05
0.000000e+00
-6.370870e-06
-1.391817e-05
-1.999278e-05
-2.595535e-05
-3.162670e-05
-3.655350e-05
-4.053690e-05
-4.353613e-05
-4.560791e-05
-4.692618e-05
-4.771555e-05
-4.817285e-05
-4.843716e-05
-4.859060e-05
-4.866571e-05
-4.867735e-05
0.000000e+00
-8.697045e-06
-1.730151e-05
-2.527457e-05
-3.318187e-05
-4.067527e-05
-4.728142e-05
-5.275813e-05
-5.700654e-05
-6.006841e-05
-6.213090e-05
-6.344876e-05
-6.425703e-05
-6.473042e-05
-6.498009e-05
-6.507565e-05
-6.509172e-05
0.000000e+00
7.663624e-06
1.322360e-05
1.977444e-05
2.831251e-05
3.850077e-05
5.015489e-05
6.313149e-05
7.719295e-05
9.209357e-05
1.076370e-04
1.236716e-04
1.401170e-04
1.571269e-04
1.756033e-04
1.962262e-04
2.174078e-04
0.000000e+00
3.933684e-06
9.635887e-06
1.625029e-05
2.483253e-05
3.530727e-05
4.744678e-05
6.097360e-05
7.558759e-05
9.098553e-05
1.069242e-04
1.232408e-04
1.398665e-04
1.568830e-04
1.746573e-04
1.942077e-04
2.147718e-04
0.000000e+00
1.714089e-06
6.793206e-06
1.366738e-05
2.234623e-05
3.305093e-05
4.553651e-05
5.945516e-05
7.445888e-05
9.021492e-05
1.064498e-04
1.229889e-04
1.397529e-04
1.566845e-04
1.737121e-04
1.920683e-04
2.116854e-04
0.000000e+00
9.819063e-07
5.512384e-06
1.240924e-05
2.125110e-05
3.207946e-05
4.469026e-05
5.875683e-05
7.392189e-05
8.984032e-05
1.062233e-04
1.228741e-04
1.396712e-04
1.564807e-04
1.731784e-04
1.906734e-04
2.091533e-04
0.000000e+00
8.411521e-07
5.162032e-06
1.199523e-05
2.092662e-05
3.179963e-05
4.444309e-05
5.855106e-05
7.376712e-05
8.973938e-05
1.061698e-04
1.228434e-04
1.396134e-04
1.563529e-04
1.730043e-04
1.900455e-04
2.075174e-04
0.000000e+00
9.829156e-07
5.512060e-06
1.240599e-05
2.124460e-05
3.207336e-05
4.469294e-05
5.877840e-05
7.396864e-05
8.991038e-05
1.063026e-04
1.229276e-04
1.396401e-04
1.563407e-04
1.730111e-04
1.898153e-04
2.066531e-04
0.000000e+00
1.715460e-06
6.792819e-06
1.366289e-05
2.233704e-05
3.304342e-05
4.554529e-05
5.949828e-05
7.454835e-05
9.034939e-05
1.066091e-04
1.231202e-04
1.397465e-04
1.564017e-04
1.730527e-04
1.897166e-04
2.062731e-04
0.000000e+00
3.936130e-06
9.638195e-06
1.625017e-05
2.483029e-05
3.530893e-05
4.746501e-05
6.102419e-05
7.568328e-05
9.112988e-05
1.071041e-04
1.234099e-04
1.399040e-04
1.564858e-04
1.730916e-04
1.896735e-04
2.061518e-04
0.000000e+00
7.668341e-06
1.322939e-05
1.978071e-05
2.832080e-05
3.851484e-05
5.017896e-05
6.316963e-05
7.725238e-05
9.218412e-05
1.077583e-04
1.237888e-04
1.401100e-04
1.565909e-04
1.731366e-04
1.896702e-04
2.061342e-04


2.139182e+00
2.108308e+00
2.244450e+00
2.470086e+00
2.664301e+00
2.889067e+00
3.150389e+00
3.413189e+00
3.646918e+00
3.833554e+00
3.966908e+00
4.048703e+00
4.069498e+00
3.974677e+00
3.773222e+00
3.617620e+00
2.616064e+00
2.583477e+00
2.675350e+00
2.841542e+00
2.987129e+00
3.159365e+00
3.362533e+00
3.568340e+00
3.752678e+00
3.900623e+00
4.006207e+00
4.069554e+00
4.078962e+00
3.978419e+00
3.781136e+00
3.630756e+00
3.350416e+00
3.322821e+00
3.361479e+00
3.438646e+00
3.507903e+00
3.597424e+00
3.705526e+00
3.817098e+00
3.919116e+00
4.002199e+00
4.061491e+00
4.095745e+00
4.094368e+00
4.012255e+00
3.857399e+00
3.743424e+00
3.831827e+00
3.812885e+00
3.816928e+00
3.834138e+00
3.857154e+00
3.891140e+00
3.933744e+00
3.979789e+00
4.023998e+00
4.061282e+00
4.088396e+00
4.104354e+00
4.103360e+00
4.060520e+00
3.978119e+00
3.917496e+00
3.831793e+00
3.812785e+00
3.816666e+00
3.833554e+00
3.856053e+00
3.889312e+00
3.930947e+00
3.975704e+00
4.018322e+00
4.054090e+00
4.080615e+00
4.098502e+00
4.107113e+00
4.097749e+00
4.070556e+00
4.049582e+00
3.350106e+00
3.322294e+00
3.360466e+00
3.436813e+00
3.505016e+00
3.593521e+00
3.700681e+00
3.810908e+00
3.910615e+00
3.990774e+00
4.048436e+00
4.086672e+00
4.110479e+00
4.121416e+00
4.121983e+00
4.119932e+00
2.615168e+00
2.582217e+00
2.673380e+00
2.838631e+00
2.983598e+00
3.156455e+00
3.361750e+00
3.570037e+00
3.755345e+00
3.902009e+00
4.005800e+00
4.072564e+00
4.112668e+00
4.135046e+00
4.146030e+00
4.150217e+00
2.137811e+00
2.106500e+00
2.241877e+00
2.466692e+00
2.660946e+00
2.888022e+00
3.154365e+00
3.423281e+00
3.661408e+00
3.849026e+00
3.981138e+00
4.065204e+00
4.114511e+00
4.141568e+00
4.155143e+00
4.160742e+00


-4.099790e-01
-1.842205e-01
-1.078049e-01
-1.380019e-01
-1.069437e-01
-6.556767e-02
-2.184537e-02
4.582989e-02
1.450473e-01
2.661246e-01
3.903697e-01
4.986025e-01
5.794168e-01
6.328193e-01
6.881093e-01
-2.904050e-01
5.168532e-01
4.048775e-01
3.881889e-01
3.645097e-01
3.742227e-01
3.910559e-01
4.113330e-01
4.471526e-01
5.051429e-01
5.839017e-01
6.768846e-01
7.757517e-01
8.711682e-01
9.392941e-01
8.138311e-01
-9.256631e-01
8.333304e-01
7.519922e-01
6.900838e-01
6.630746e-01
6.569938e-01
6.569209e-01
6.612645e-01
6.741564e-01
6.992266e-01
7.369766e-01
7.827356e-01
8.237529e-01
8.336018e-01
7.588735e-01
5.014656e-01
4.382003e-02
9.443798e-01
8.810276e-01
8.277907e-01
7.987494e-01
7.857954e-01
7.777838e-01
7.704875e-01
7.636038e-01
7.583361e-01
7.546150e-01
7.480926e-01
7.279632e-01
6.789441e-01
5.995967e-01
5.438683e-01
5.369964e-01
9.447869e-01
8.815561e-01
8.282993e-01
7.987878e-01
7.845208e-01
7.737237e-01
7.611111e-01
7.449833e-01
7.252534e-01
7.018140e-01
6.738365e-01
6.415856e-01
6.135967e-01
6.182887e-01
6.886381e-01
8.060631e-01
8.342498e-01
7.532264e-01
6.913704e-01
6.635925e-01
6.551079e-01
6.496547e-01
6.434546e-01
6.377491e-01
6.333073e-01
6.297588e-01
6.276853e-01
6.329263e-01
6.605389e-01
7.279707e-01
8.319306e-01
9.392988e-01
5.174576e-01
4.057490e-01
3.891655e-01
3.653681e-01
3.741539e-01
3.884725e-01
4.038470e-01
4.316726e-01
4.776463e-01
5.390643e-01
6.091532e-01
6.833792e-01
7.634690e-01
8.520733e-01
9.363236e-01
9.894203e-01
-4.106675e-01
-1.854359e-01
-1.092330e-01
-1.395641e-01
-1.083606e-01
-6.614436e-02
-1.827349e-02
6.229539e-02
1.893843e-01
3.565611e-01
5.424782e-01
7.188326e-01
8.593265e-01
9.487869e-01
9.899746e-01
9.997926e-01
1 2 19 18
2 3 20 19
3 4 21 20
4 5 22 21
5 6 23 22
6 7 24 23
7 8 25 24
8 9 26 25
9 10 27 26
10 11 28 27
11 12 29 28
12 13 30 29
13 14 31 30
14 15 32 31
15 16 33 32
16 17 34 33
18 19 36 35
19 20 37 36
20 21 38 37
21 22 39 38
22 23 40 39
23 24 41 40
24 25 42 41
25 26 43 42
26 27 44 43
27 28 45 44
28 29 46 45
29 30 47 46
30 31 48 47
31 32 49 48
32 33 50 49
33 34 51 50
35 36 53 52
36 37 54 53
37 38 55 54
38 39 56 55
39 40 57 56
40 41 58 57
41 42 59 58
42 43 60 59
43 44 61 60
44 45 62 61
45 46 63 62
46 47 64 63
47 48 65 64
48 49 66 65
49 50 67 66
50 51 68 67
52 53 70 69
53 54 71 70
54 55 72 71
55 56 73 72
56 57 74 73
57 58 75 74
58 59 76 75
59 60 77 76
60 61 78 77
61 62 79 78
62 63 80 79
63 64 81 80
64 65 82 81
65 66 83 82
66 67 84 83
67 68 85 84
69 70 87 86
70 71 88 87
71 72 89 88
72 73 90 89
73 74 91 90
74 75 92 91
75 76 93 92
76 77 94 93
77 78 95 94
78 79 96 95
79 80 97 96
80 81 98 97
81 82 99 98
82 83 100 99
83 84 101 100
84 85 102 101
86 87 104 103
87 88 105 104
88 89 106 105
89 90 107 106
90 91 108 107
91 92 109 108
92 93 110 109
93 94 111 110
94 95 112 111
95 96 113 112
96 97 114 113
97 98 115 114
98 99 116 115
99 100 117 116
100 101 118 117
101 102 119 118
103 104 121 120
104 105 122 121
105 106 123 122
106 107 124 123
107 108 125 124
108 109 126 125
109 110 127 126
110 111 128 127
111 112 129 128
112 113 130 129
113 114 131 130
114 115 132 131
115 116 133 132
116 117 134 133
117 118 135 134
118 119 136 135
120 121 138 137
121 122 139 138
122 123 140 139
123 124 141 140
124 125 142 141
125 126 143 142
126 127 144 143
127 128 145 144
128 129 146 145
129 130 147 146
130 131 148 147
131 132 149 148
132 133 150 149
133 134 151 150
134 135 152 151
135 136 153 152
