TITLE = "Solution"
VARIABLES = x, y, u, v, psiu, psiv, t, stress
ZONE T="structure" N=153 E=128 F=FEBLOCK ET=QUADRILATERAL VARLOCATION=([7,8]=cellcentered)
0.000000e+00
1.250000e+01
2.500000e+01
3.750000e+01
5.000000e+01
6.250000e+01
7.500000e+01
8.750000e+01
1.000000e+02
1.125000e+02
1.250000e+02
1.375000e+02
1.500000e+02
1.625000e+02
1.750000e+02
1.875000e+02
2.000000e+02
0.000000e+00
1.250000e+01
2.500000e+01
3.750000e+01
5.000000e+01
6.250000e+01
7.500000e+01
8.750000e+01
1.000000e+02
1.125000e+02
1.250000e+02
1.375000e+02
1.500000e+02
1.625000e+02
1.750000e+02
1.875000e+02
2.000000e+02
0.000000e+00
1.250000e+01
2.500000e+01
3.750000e+01
5.000000e+01
6.250000e+01
7.500000e+01
8.750000e+01
1.000000e+02
1.125000e+02
1.250000e+02
1.375000e+02
1.500000e+02
1.625000e+02
1.750000e+02
1.875000e+02
2.000000e+02
0.000000e+00
1.250000e+01
2.500000e+01
3.750000e+01
5.000000e+01
6.250000e+01
7.500000e+01
8.750000e+01
1.000000e+02
1.125000e+02
1.250000e+02
1.375000e+02
1.500000e+02
1.625000e+02
1.750000e+02
1.875000e+02
2.000000e+02
0.000000e+00
1.250000e+01
2.500000e+01
3.750000e+01
5.000000e+01
6.250000e+01
7.500000e+01
8.750000e+01
1.000000e+02
1.125000e+02
1.250000e+02
1.375000e+02
1.500000e+02
1.625000e+02
1.750000e+02
1.875000e+02
2.000000e+02
0.000000e+00
1.250000e+01
2.500000e+01
3.750000e+01
5.000000e+01
6.250000e+01
7.500000e+01
8.750000e+01
1.000000e+02
1.125000e+02
1.250000e+02
1.375000e+02
1.500000e+02
1.625000e+02
1.750000e+02
1.875000e+02
2.000000e+02
0.000000e+00
1.250000e+01
2.500000e+01
3.750000e+01
5.000000e+01
6.250000e+01
7.500000e+01
8.750000e+01
1.000000e+02
1.125000e+02
1.250000e+02
1.375000e+02
1.500000e+02
1.625000e+02
1.750000e+02
1.875000e+02
2.000000e+02
0.000000e+00
1.250000e+01
2.500000e+01
3.750000e+01
5.000000e+01
6.250000e+01
7.500000e+01
8.750000e+01
1.000000e+02
1.125000e+02
1.250000e+02
1.375000e+02
1.500000e+02
1.625000e+02
1.750000e+02
1.875000e+02
2.000000e+02
0.000000e+00
1.250000e+01
2.500000e+01
3.750000e+01
5.000000e+01
6.250000e+01
7.500000e+01
8.750000e+01
1.000000e+02
1.125000e+02
1.250000e+02
1.375000e+02
1.500000e+02
1.625000e+02
1.750000e+02
1.875000e+02
2.000000e+02
0.000000e+00
0.000000e+00
0.000000e+00
0.000000e+00
0.000000e+00
0.000000e+00
0.000000e+00
0.000000e+00
0.000000e+00
0.000000e+00
0.000000e+00
0.000000e+00
0.000000e+00
0.000000e+00
0.000000e+00
0.000000e+00
0.000000e+00
1.250000e+01
1.250000e+01
1.250000e+01
1.250000e+01
1.250000e+01
1.250000e+01
1.250000e+01
1.250000e+01
1.250000e+01
1.250000e+01
1.250000e+01
1.250000e+01
1.250000e+01
1.250000e+01
1.250000e+01
1.250000e+01
1.250000e+01
2.500000e+01
2.500000e+01
2.500000e+01
2.500000e+01
2.500000e+01
2.500000e+01
2.500000e+01
2.500000e+01
2.500000e+01
2.500000e+01
2.500000e+01
2.500000e+01
2.500000e+01
2.500000e+01
2.500000e+01
2.500000e+01
2.500000e+01
3.750000e+01
3.750000e+01
3.750000e+01
3.750000e+01
3.750000e+01
3.750000e+01
3.750000e+01
3.750000e+01
3.750000e+01
3.750000e+01
3.750000e+01
3.750000e+01
3.750000e+01
3.750000e+01
3.750000e+01
3.750000e+01
3.750000e+01
5.000000e+01
5.000000e+01
5.000000e+01
5.000000e+01
5.000000e+01
5.000000e+01
5.000000e+01
5.000000e+01
5.000000e+01
5.000000e+01
5.000000e+01
5.000000e+01
5.000000e+01
5.000000e+01
5.000000e+01
5.000000e+01
5.000000e+01
6.250000e+01
6.250000e+01
6.250000e+01
6.250000e+01
6.250000e+01
6.250000e+01
6.250000e+01
6.250000e+01
6.250000e+01
6.250000e+01
6.250000e+01
6.250000e+01
6.250000e+01
6.250000e+01
6.250000e+01
6.250000e+01
6.250000e+01
7.500000e+01
7.500000e+01
7.500000e+01
7.500000e+01
7.500000e+01
7.500000e+01
7.500000e+01
7.500000e+01
7.500000e+01
7.500000e+01
7.500000e+01
7.500000e+01
7.500000e+01
7.500000e+01
7.500000e+01
7.500000e+01
7.500000e+01
8.750000e+01
8.750000e+01
8.750000e+01
8.750000e+01
8.750000e+01
8.750000e+01
8.750000e+01
8.750000e+01
8.750000e+01
8.750000e+01
8.750000e+01
8.750000e+01
8.750000e+01
8.750000e+01
8.750000e+01
8.750000e+01
8.750000e+01
1.000000e+02
1.000000e+02
1.000000e+02
1.000000e+02
1.000000e+02
1.000000e+02
1.000000e+02
1.000000e+02
1.000000e+02
1.000000e+02
1.000000e+02
1.000000e+02
1.000000e+02
1.000000e+02
1.000000e+02
1.000000e+02
1.000000e+02
0.000000e+00
-9.931685e-01
-1.679801e+00
-2.430883e+00
-3.114519e+00
-3.753245e+00
-4.456276e+00
-5.087940e+00
-5.763264e+00
-6.404898e+00
-7.057051e+00
-7.722527e+00
-8.376771e+00
-9.148846e+00
-1.007730e+01
-1.083280e+01
-1.128304e+01
0.000000e+00
-4.447783e-01
-9.077538e-01
-1.419106e+00
-1.930159e+00
-2.412237e+00
-2.925571e+00
-3.423548e+00
-3.920184e+00
-4.421694e+00
-4.915327e+00
-5.417245e+00
-5.902135e+00
-6.422954e+00
-6.897082e+00
-7.022688e+00
-7.201509e+00
0.000000e+00
-1.464762e-01
-3.501587e-01
-6.404354e-01
-9.784178e-01
-1.304079e+00
-1.657697e+00
-2.013498e+00
-2.358091e+00
-2.718935e+00
-3.058266e+00
-3.392114e+00
-3.687330e+00
-3.927106e+00
-4.035556e+00
-4.033275e+00
-4.181860e+00
0.000000e+00
-7.888492e-02
-1.623308e-01
-3.094501e-01
-4.543798e-01
-6.286511e-01
-8.125457e-01
-9.792434e-01
-1.165577e+00
-1.327679e+00
-1.488840e+00
-1.627535e+00
-1.720605e+00
-1.728481e+00
-1.655306e+00
-1.635091e+00
-1.752587e+00
0.000000e+00
-3.192641e-03
-6.968079e-03
-1.089211e-02
-1.498938e-02
-1.796755e-02
-1.839923e-02
-1.514947e-02
-6.128309e-03
1.072225e-02
3.522535e-02
7.964790e-02
1.616337e-01
2.762112e-01
3.955622e-01
4.358833e-01
3.376548e-01
0.000000e+00
7.333813e-02
1.510466e-01
2.909932e-01
4.294161e-01
5.974885e-01
7.764688e-01
9.482638e-01
1.153535e+00
1.348149e+00
1.563803e+00
1.784153e+00
2.009960e+00
2.215916e+00
2.351356e+00
2.384329e+00
2.318859e+00
0.000000e+00
1.442882e-01
3.451245e-01
6.316901e-01
9.664201e-01
1.291187e+00
1.643348e+00
2.000075e+00
2.363122e+00
2.766656e+00
3.144864e+00
3.511784e+00
3.845238e+00
4.119669e+00
4.295470e+00
4.350235e+00
4.327738e+00
0.000000e+00
4.455694e-01
9.084932e-01
1.419661e+00
1.930039e+00
2.410392e+00
2.920821e+00
3.415508e+00
3.904118e+00
4.396985e+00
4.875483e+00
5.350705e+00
5.779906e+00
6.126923e+00
6.343394e+00
6.438882e+00
6.456479e+00
0.000000e+00
9.953906e-01
1.684568e+00
2.439455e+00
3.125724e+00
3.765831e+00
4.468910e+00
5.097666e+00
5.745545e+00
6.331006e+00
6.905700e+00
7.506369e+00
8.037683e+00
8.448097e+00
8.649669e+00
8.702723e+00
8.703298e+00
0.000000e+00
-6.178267e-01
-1.360675e+00
-2.360632e+00
-3.534033e+00
-4.877713e+00
-6.407640e+00
-8.093420e+00
-9.953375e+00
-1.197608e+01
-1.416094e+01
-1.651049e+01
-1.902399e+01
-2.175516e+01
-2.471859e+01
-2.807843e+01
-3.309438e+01
0.000000e+00
-4.144999e-01
-1.192019e+00
-2.174891e+00
-3.364601e+00
-4.703095e+00
-6.230638e+00
-7.924246e+00
-9.777531e+00
-1.180826e+01
-1.398867e+01
-1.634312e+01
-1.885062e+01
-2.156269e+01
-2.457882e+01
-2.799447e+01
-3.204515e+01
0.000000e+00
-3.886583e-01
-1.090486e+00
-2.071470e+00
-3.244892e+00
-4.577728e+00
-6.110126e+00
-7.795002e+00
-9.658380e+00
-1.168663e+01
-1.387822e+01
-1.624374e+01
-1.876182e+01
-2.150048e+01
-2.456910e+01
-2.784226e+01
-3.087442e+01
0.000000e+00
-4.474996e-01
-1.086753e+00
-2.045285e+00
-3.181703e+00
-4.508814e+00
-6.047053e+00
-7.719278e+00
-9.600633e+00
-1.162865e+01
-1.384124e+01
-1.622653e+01
-1.877065e+01
-2.151050e+01
-2.449994e+01
-2.753232e+01
-3.015646e+01
0.000000e+00
-4.548302e-01
-1.108798e+00
-2.029327e+00
-3.168305e+00
-4.497524e+00
-6.026288e+00
-7.716644e+00
-9.591756e+00
-1.164135e+01
-1.386697e+01
-1.626062e+01
-1.881218e+01
-2.151165e+01
-2.434907e+01
-2.716615e+01
-2.955243e+01
0.000000e+00
-4.462341e-01
-1.086308e+00
-2.047205e+00
-3.188657e+00
-4.525478e+00
-6.073969e+00
-7.756474e+00
-9.654004e+00
-1.170759e+01
-1.393621e+01
-1.631281e+01
-1.884386e+01
-2.150153e+01
-2.421349e+01
-2.684668e+01
-2.911518e+01
0.000000e+00
-3.869596e-01
-1.090226e+00
-2.075722e+00
-3.258065e+00
-4.606019e+00
-6.155921e+00
-7.865822e+00
-9.760001e+00
-1.182277e+01
-1.402294e+01
-1.637991e+01
-1.888365e+01
-2.150163e+01
-2.413063e+01
-2.663966e+01
-2.888258e+01
0.000000e+00
-4.129261e-01
-1.191808e+00
-2.179813e+00
-3.379698e+00
-4.733312e+00
-6.282145e+00
-8.007009e+00
-9.898604e+00
-1.195941e+01
-1.413874e+01
-1.647862e+01
-1.896078e+01
-2.154328e+01
-2.411011e+01
-2.655193e+01
-2.882226e+01
0.000000e+00
-6.167971e-01
-1.361052e+00
-2.366265e+00
-3.549558e+00
-4.908038e+00
-6.459873e+00
-8.175643e+00
-1.007042e+01
-1.211542e+01
-1.429413e+01
-1.662709e+01
-1.908434e+01
-2.162502e+01
-2.413486e+01
-2.653694e+01
-2.882112e+01


0.000000e+00
1.541509e-05
2.512225e-05
3.749251e-05
5.357196e-05
6.719401e-05
8.294283e-05
9.708864e-05
1.115316e-04
1.256343e-04
1.407649e-04
1.550705e-04
1.718403e-04
1.874356e-04
1.971011e-04
2.027192e-04
2.096341e-04
0.000000e+00
1.146263e-05
1.974805e-05
2.837749e-05
4.101770e-05
5.168565e-05
6.182224e-05
7.298844e-05
8.317900e-05
9.457639e-05
1.052526e-04
1.154616e-04
1.264811e-04
1.356632e-04
1.369367e-04
1.406571e-04
1.464870e-04
0.000000e+00
9.538990e-06
1.501545e-05
2.016608e-05
2.889296e-05
3.554318e-05
4.137071e-05
4.877340e-05
5.480362e-05
6.211028e-05
6.853547e-05
7.397844e-05
7.869230e-05
8.072214e-05
7.986002e-05
8.224343e-05
8.649458e-05
0.000000e+00
5.173051e-06
6.844556e-06
9.601219e-06
1.308512e-05
1.367815e-05
1.610192e-05
1.788961e-05
2.136096e-05
2.491297e-05
2.833528e-05
2.913795e-05
2.843226e-05
2.690720e-05
2.674173e-05
2.982939e-05
3.549990e-05
0.000000e+00
-1.700343e-07
-4.236933e-07
-8.348969e-07
-1.679229e-06
-2.772974e-06
-4.800182e-06
-6.841430e-06
-7.255899e-06
-7.359462e-06
-8.568752e-06
-1.189869e-05
-1.466002e-05
-1.597540e-05
-1.562688e-05
-1.342977e-05
-9.446532e-06
0.000000e+00
-5.428603e-06
-7.415995e-06
-1.069717e-05
-1.462881e-05
-1.618268e-05
-2.067274e-05
-2.470781e-05
-3.028895e-05
-3.331850e-05
-3.736867e-05
-4.220430e-05
-4.711018e-05
-4.870437e-05
-4.924634e-05
-4.974446e-05
-4.806129e-05
0.000000e+00
-9.535388e-06
-1.507868e-05
-2.032945e-05
-2.898785e-05
-3.534523e-05
-4.093137e-05
-4.907232e-05
-5.624013e-05
-6.357719e-05
-6.874559e-05
-7.368840e-05
-7.783943e-05
-8.120001e-05
-8.311985e-05
-8.503339e-05
-8.578234e-05
0.000000e+00
-1.139238e-05
-1.966192e-05
-2.827660e-05
-4.079746e-05
-5.163027e-05
-6.158297e-05
-7.283150e-05
-8.324931e-05
-9.457002e-05
-1.051872e-04
-1.132665e-04
-1.181176e-04
-1.230848e-04
-1.266066e-04
-1.278714e-04
-1.279693e-04
0.000000e+00
-1.542603e-05
-2.506412e-05
-3.734541e-05
-5.337027e-05
-6.701542e-05
-8.260718e-05
-9.577288e-05
-1.096742e-04
-1.234944e-04
-1.411499e-04
-1.566743e-04
-1.661663e-04
-1.713102e-04
-1.735283e-04
-1.737275e-04
-1.735395e-04
0.000000e+00
1.260635e-05
2.001488e-05
3.247058e-05
4.881570e-05
6.694113e-05
9.132123e-05
1.200731e-04
1.529619e-04
1.895225e-04
2.294321e-04
2.733891e-04
3.235274e-04
3.775221e-04
4.389177e-04
5.096501e-04
5.828513e-04
0.000000e+00
7.676444e-06
1.612539e-05
2.637020e-05
4.233943e-05
6.099898e-05
8.488291e-05
1.141735e-04
1.467725e-04
1.833218e-04
2.231547e-04
2.671606e-04
3.169288e-04
3.727313e-04
4.337741e-04
5.022772e-04
5.724768e-04
0.000000e+00
4.325363e-06
1.231735e-05
2.172665e-05
3.653078e-05
5.574042e-05
7.953817e-05
1.097144e-04
1.425650e-04
1.787855e-04
2.185175e-04
2.627112e-04
3.131602e-04
3.704484e-04
4.297116e-04
4.948031e-04
5.627472e-04
0.000000e+00
3.199497e-06
1.060676e-05
2.006278e-05
3.447818e-05
5.206636e-05
7.666760e-05
1.089128e-04
1.429502e-04
1.771374e-04
2.164017e-04
2.612298e-04
3.125095e-04
3.690767e-04
4.270123e-04
4.869687e-04
5.485583e-04
0.000000e+00
2.813114e-06
1.026979e-05
2.001045e-05
3.414409e-05
5.072575e-05
7.565208e-05
1.099701e-04
1.440746e-04
1.767293e-04
2.146633e-04
2.613425e-04
3.128983e-04
3.691714e-04
4.258601e-04
4.805764e-04
5.324833e-04
0.000000e+00
3.337884e-06
1.079125e-05
2.042866e-05
3.478893e-05
5.185146e-05
7.739602e-05
1.107476e-04
1.445476e-04
1.765453e-04
2.150778e-04
2.630305e-04
3.153025e-04
3.693967e-04
4.257332e-04
4.782538e-04
5.215647e-04
0.000000e+00
4.473139e-06
1.253877e-05
2.206005e-05
3.679094e-05
5.578918e-05
8.048441e-05
1.115303e-04
1.439610e-04
1.777962e-04
2.174823e-04
2.662933e-04
3.187710e-04
3.713648e-04
4.247706e-04
4.755484e-04
5.181817e-04
0.000000e+00
7.795851e-06
1.635424e-05
2.665903e-05
4.258049e-05
6.138742e-05
8.580502e-05
1.156735e-04
1.474541e-04
1.822597e-04
2.221528e-04
2.699092e-04
3.217598e-04
3.735130e-04
4.248478e-04
4.735561e-04
5.186700e-04
0.000000e+00
1.271434e-05
2.024367e-05
3.274881e-05
4.913508e-05
6.745203e-05
9.229712e-05
1.213603e-04
1.536049e-04
1.886223e-04
2.292356e-04
2.741285e-04
3.239234e-04
3.747289e-04
4.251278e-04
4.730725e-04
5.189418e-04


5.557092e+00
6.052544e+00
6.783098e+00
5.811166e+00
5.292523e+00
5.753779e+00
5.851844e+00
6.090966e+00
5.818038e+00
5.860031e+00
6.228669e+00
7.109464e+00
8.808187e+00
9.783636e+00
9.101932e+00
7.952514e+00
8.014442e+00
8.396285e+00
8.602491e+00
8.303457e+00
7.989046e+00
8.153677e+00
8.351845e+00
8.274993e+00
8.292785e+00
8.222129e+00
8.366173e+00
8.794483e+00
9.470694e+00
9.795101e+00
8.350269e+00
6.433117e+00
9.809501e+00
9.795540e+00
9.965953e+00
9.803684e+00
9.800266e+00
9.876409e+00
9.790228e+00
9.884650e+00
9.806041e+00
9.843228e+00
9.855284e+00
9.838648e+00
9.856804e+00
9.357809e+00
7.945413e+00
6.141407e+00
9.983181e+00
9.982873e+00
9.982717e+00
9.981017e+00
9.978672e+00
9.974381e+00
9.970001e+00
9.970491e+00
9.972923e+00
9.971410e+00
9.957723e+00
9.443610e+00
8.791907e+00
8.335786e+00
7.928837e+00
7.826884e+00
9.983097e+00
9.982682e+00
9.982362e+00
9.980109e+00
9.976273e+00
9.968480e+00
9.907590e+00
9.945237e+00
9.957475e+00
9.874860e+00
9.315430e+00
8.505783e+00
7.616467e+00
7.666981e+00
8.577993e+00
9.086847e+00
9.809656e+00
9.794752e+00
9.964241e+00
9.799006e+00
9.786836e+00
9.638672e+00
9.369516e+00
9.524693e+00
9.359266e+00
8.789325e+00
8.253103e+00
7.801163e+00
8.042587e+00
8.641504e+00
9.385032e+00
9.942990e+00
8.017353e+00
8.396722e+00
8.599456e+00
8.294473e+00
7.910202e+00
7.769715e+00
7.634984e+00
7.650778e+00
7.654863e+00
7.233346e+00
7.415824e+00
8.403154e+00
9.183138e+00
9.762918e+00
9.966369e+00
9.979317e+00
5.565495e+00
6.055003e+00
6.781066e+00
5.802798e+00
5.270278e+00
5.444999e+00
5.367652e+00
5.801931e+00
5.840368e+00
6.296650e+00
7.765764e+00
9.059338e+00
9.926717e+00
9.973554e+00
9.981475e+00
9.984280e+00


-8.093792e-01
-1.792517e-01
-3.923653e-01
-2.526288e-01
-1.071988e-01
-2.961425e-01
-1.279393e-01
-2.099184e-01
-1.586125e-01
-1.643589e-01
-2.080563e-01
-1.524119e-01
-4.684030e-01
-6.747270e-01
3.181954e-01
-8.472213e-01
6.121659e-01
4.767426e-01
2.978086e-01
2.267231e-01
2.862678e-01
1.689969e-01
1.773360e-01
1.705217e-01
1.140455e-01
1.460138e-01
1.318867e-01
2.432069e-01
3.018356e-01
5.139687e-01
6.964873e-01
-9.391538e-01
7.250268e-01
4.714770e-01
6.149328e-02
-1.365411e-02
-3.915690e-02
-1.752157e-01
-7.863925e-02
-1.316410e-01
-6.961851e-02
-1.568254e-02
3.895096e-02
1.902684e-01
2.815559e-01
1.504523e-01
-2.237844e-02
-1.708144e-01
7.301204e-01
5.565170e-01
1.957342e-01
6.753844e-02
-2.352803e-02
-9.647740e-02
-1.725509e-02
-5.681520e-02
1.759816e-02
2.276453e-02
6.297631e-02
1.179564e-01
5.790553e-02
-2.656879e-01
-3.826762e-01
-7.549359e-02
7.329560e-01
5.604311e-01
2.033418e-01
7.451824e-02
-2.098918e-02
-1.038805e-01
-3.783769e-02
-9.622186e-02
-4.494431e-02
-3.458764e-02
1.974213e-02
1.371583e-02
-3.678331e-02
-1.333254e-01
-1.044386e-01
3.129173e-01
7.316154e-01
4.816842e-01
7.921046e-02
2.918204e-03
-2.935690e-02
-1.606315e-01
-9.045435e-02
-1.981185e-01
-1.789251e-01
-1.027640e-01
-8.070485e-02
-1.000208e-01
-1.036972e-01
4.900061e-02
3.338687e-01
7.261022e-01
6.159611e-01
4.827350e-01
3.053383e-01
2.324539e-01
2.850037e-01
1.630127e-01
1.517367e-01
9.385437e-02
-5.271993e-02
-3.892914e-02
-9.799493e-02
-6.171350e-02
6.352889e-02
3.697290e-01
7.132951e-01
9.480063e-01
-8.151077e-01
-1.840497e-01
-4.001457e-01
-2.570497e-01
-1.073221e-01
-2.925434e-01
-1.206492e-01
-1.516102e-01
-5.691644e-02
-2.437605e-02
-9.252489e-02
9.508712e-02
3.917007e-01
7.724850e-01
9.527741e-01
9.987319e-01
1 2 19 18
2 3 20 19
3 4 21 20
4 5 22 21
5 6 23 22
6 7 24 23
7 8 25 24
8 9 26 25
9 10 27 26
10 11 28 27
11 12 29 28
12 13 30 29
13 14 31 30
14 15 32 31
15 16 33 32
16 17 34 33
18 19 36 35
19 20 37 36
20 21 38 37
21 22 39 38
22 23 40 39
23 24 41 40
24 25 42 41
25 26 43 42
26 27 44 43
27 28 45 44
28 29 46 45
29 30 47 46
30 31 48 47
31 32 49 48
32 33 50 49
33 34 51 50
35 36 53 52
36 37 54 53
37 38 55 54
38 39 56 55
39 40 57 56
40 41 58 57
41 42 59 58
42 43 60 59
43 44 61 60
44 45 62 61
45 46 63 62
46 47 64 63
47 48 65 64
48 49 66 65
49 50 67 66
50 51 68 67
52 53 70 69
53 54 71 70
54 55 72 71
55 56 73 72
56 57 74 73
57 58 75 74
58 59 76 75
59 60 77 76
60 61 78 77
61 62 79 78
62 63 80 79
63 64 81 80
64 65 82 81
65 66 83 82
66 67 84 83
67 68 85 84
69 70 87 86
70 71 88 87
71 72 89 88
72 73 90 89
73 74 91 90
74 75 92 91
75 76 93 92
76 77 94 93
77 78 95 94
78 79 96 95
79 80 97 96
80 81 98 97
81 82 99 98
82 83 100 99
83 84 101 100
84 85 102 101
86 87 104 103
87 88 105 104
88 89 106 105
89 90 107 106
90 91 108 107
91 92 109 108
92 93 110 109
93 94 111 110
94 95 112 111
95 96 113 112
96 97 114 113
97 98 115 114
98 99 116 115
99 100 117 116
100 101 118 117
101 102 119 118
103 104 121 120
104 105 122 121
105 106 123 122
106 107 124 123
107 108 125 124
108 109 126 125
109 110 127 126
110 111 128 127
111 112 129 128
112 113 130 129
113 114 131 130
114 115 132 131
115 116 133 132
116 117 134 133
117 118 135 134
118 119 136 135
120 121 138 137
121 122 139 138
122 123 140 139
123 124 141 140
124 125 142 141
125 126 143 142
126 127 144 143
127 128 145 144
128 129 146 145
129 130 147 146
130 131 148 147
131 132 149 148
132 133 150 149
133 134 151 150
134 135 152 151
135 136 153 152
