TITLE = "Solution"
VARIABLES = x, y, u, v, psiu, psiv, t, stress
ZONE T="structure" N=153 E=128 F=FEBLOCK ET=QUADRILATERAL VARLOCATION=([7,8]=cellcentered)
0.000000e+00
1.250000e+01
2.500000e+01
3.750000e+01
5.000000e+01
6.250000e+01
7.500000e+01
8.750000e+01
1.000000e+02
1.125000e+02
1.250000e+02
1.375000e+02
1.500000e+02
1.625000e+02
1.750000e+02
1.875000e+02
2.000000e+02
0.000000e+00
1.250000e+01
2.500000e+01
3.750000e+01
5.000000e+01
6.250000e+01
7.500000e+01
8.750000e+01
1.000000e+02
1.125000e+02
1.250000e+02
1.375000e+02
1.500000e+02
1.625000e+02
1.750000e+02
1.875000e+02
2.000000e+02
0.000000e+00
1.250000e+01
2.500000e+01
3.750000e+01
5.000000e+01
6.250000e+01
7.500000e+01
8.750000e+01
1.000000e+02
1.125000e+02
1.250000e+02
1.375000e+02
1.500000e+02
1.625000e+02
1.750000e+02
1.875000e+02
2.000000e+02
0.000000e+00
1.250000e+01
2.500000e+01
3.750000e+01
5.000000e+01
6.250000e+01
7.500000e+01
8.750000e+01
1.000000e+02
1.125000e+02
1.250000e+02
1.375000e+02
1.500000e+02
1.625000e+02
1.750000e+02
1.875000e+02
2.000000e+02
0.000000e+00
1.250000e+01
2.500000e+01
3.750000e+01
5.000000e+01
6.250000e+01
7.500000e+01
8.750000e+01
1.000000e+02
1.125000e+02
1.250000e+02
1.375000e+02
1.500000e+02
1.625000e+02
1.750000e+02
1.875000e+02
2.000000e+02
0.000000e+00
1.250000e+01
2.500000e+01
3.750000e+01
5.000000e+01
6.250000e+01
7.500000e+01
8.750000e+01
1.000000e+02
1.125000e+02
1.250000e+02
1.375000e+02
1.500000e+02
1.625000e+02
1.750000e+02
1.875000e+02
2.000000e+02
0.000000e+00
1.250000e+01
2.500000e+01
3.750000e+01
5.000000e+01
6.250000e+01
7.500000e+01
8.750000e+01
1.000000e+02
1.125000e+02
1.250000e+02
1.375000e+02
1.500000e+02
1.625000e+02
1.750000e+02
1.875000e+02
2.000000e+02
0.000000e+00
1.250000e+01
2.500000e+01
3.750000e+01
5.000000e+01
6.250000e+01
7.500000e+01
8.750000e+01
1.000000e+02
1.125000e+02
1.250000e+02
1.375000e+02
1.500000e+02
1.625000e+02
1.750000e+02
1.875000e+02
2.000000e+02
0.000000e+00
1.250000e+01
2.500000e+01
3.750000e+01
5.000000e+01
6.250000e+01
7.500000e+01
8.750000e+01
1.000000e+02
1.125000e+02
1.250000e+02
1.375000e+02
1.500000e+02
1.625000e+02
1.750000e+02
1.875000e+02
2.000000e+02
0.000000e+00
0.000000e+00
0.000000e+00
0.000000e+00
0.000000e+00
0.000000e+00
0.000000e+00
0.000000e+00
0.000000e+00
0.000000e+00
0.000000e+00
0.000000e+00
0.000000e+00
0.000000e+00
0.000000e+00
0.000000e+00
0.000000e+00
1.250000e+01
1.250000e+01
1.250000e+01
1.250000e+01
1.250000e+01
1.250000e+01
1.250000e+01
1.250000e+01
1.250000e+01
1.250000e+01
1.250000e+01
1.250000e+01
1.250000e+01
1.250000e+01
1.250000e+01
1.250000e+01
1.250000e+01
2.500000e+01
2.500000e+01
2.500000e+01
2.500000e+01
2.500000e+01
2.500000e+01
2.500000e+01
2.500000e+01
2.500000e+01
2.500000e+01
2.500000e+01
2.500000e+01
2.500000e+01
2.500000e+01
2.500000e+01
2.500000e+01
2.500000e+01
3.750000e+01
3.750000e+01
3.750000e+01
3.750000e+01
3.750000e+01
3.750000e+01
3.750000e+01
3.750000e+01
3.750000e+01
3.750000e+01
3.750000e+01
3.750000e+01
3.750000e+01
3.750000e+01
3.750000e+01
3.750000e+01
3.750000e+01
5.000000e+01
5.000000e+01
5.000000e+01
5.000000e+01
5.000000e+01
5.000000e+01
5.000000e+01
5.000000e+01
5.000000e+01
5.000000e+01
5.000000e+01
5.000000e+01
5.000000e+01
5.000000e+01
5.000000e+01
5.000000e+01
5.000000e+01
6.250000e+01
6.250000e+01
6.250000e+01
6.250000e+01
6.250000e+01
6.250000e+01
6.250000e+01
6.250000e+01
6.250000e+01
6.250000e+01
6.250000e+01
6.250000e+01
6.250000e+01
6.250000e+01
6.250000e+01
6.250000e+01
6.250000e+01
7.500000e+01
7.500000e+01
7.500000e+01
7.500000e+01
7.500000e+01
7.500000e+01
7.500000e+01
7.500000e+01
7.500000e+01
7.500000e+01
7.500000e+01
7.500000e+01
7.500000e+01
7.500000e+01
7.500000e+01
7.500000e+01
7.500000e+01
8.750000e+01
8.750000e+01
8.750000e+01
8.750000e+01
8.750000e+01
8.750000e+01
8.750000e+01
8.750000e+01
8.750000e+01
8.750000e+01
8.750000e+01
8.750000e+01
8.750000e+01
8.750000e+01
8.750000e+01
8.750000e+01
8.750000e+01
1.000000e+02
1.000000e+02
1.000000e+02
1.000000e+02
1.000000e+02
1.000000e+02
1.000000e+02
1.000000e+02
1.000000e+02
1.000000e+02
1.000000e+02
1.000000e+02
1.000000e+02
1.000000e+02
1.000000e+02
1.000000e+02
1.000000e+02
0.000000e+00
-9.950077e-01
-1.679350e+00
-2.431202e+00
-3.116396e+00
-3.751569e+00
-4.457656e+00
-5.087612e+00
-5.763297e+00
-6.405556e+00
-7.056006e+00
-7.723469e+00
-8.376670e+00
-9.147115e+00
-1.007759e+01
-1.083387e+01
-1.128401e+01
0.000000e+00
-4.455456e-01
-9.069067e-01
-1.419040e+00
-1.930473e+00
-2.411208e+00
-2.925089e+00
-3.423174e+00
-3.919415e+00
-4.421526e+00
-4.914360e+00
-5.417068e+00
-5.901964e+00
-6.421839e+00
-6.897678e+00
-7.023855e+00
-7.202728e+00
0.000000e+00
-1.461775e-01
-3.492168e-01
-6.397540e-01
-9.777444e-01
-1.302971e+00
-1.656303e+00
-2.012961e+00
-2.356926e+00
-2.718632e+00
-3.057677e+00
-3.391832e+00
-3.687460e+00
-3.927362e+00
-4.036421e+00
-4.034375e+00
-4.182831e+00
0.000000e+00
-7.895863e-02
-1.621992e-01
-3.096099e-01
-4.547480e-01
-6.284067e-01
-8.135033e-01
-9.792249e-01
-1.166529e+00
-1.328595e+00
-1.489605e+00
-1.628620e+00
-1.721958e+00
-1.730085e+00
-1.656524e+00
-1.635694e+00
-1.752830e+00
0.000000e+00
-3.293538e-03
-7.174824e-03
-1.120161e-02
-1.553560e-02
-1.886509e-02
-1.962935e-02
-1.676841e-02
-7.898108e-03
8.954510e-03
3.338299e-02
7.821027e-02
1.606481e-01
2.755465e-01
3.952865e-01
4.360265e-01
3.378430e-01
0.000000e+00
7.320571e-02
1.505896e-01
2.906732e-01
4.291000e-01
5.961210e-01
7.747422e-01
9.441060e-01
1.149873e+00
1.345185e+00
1.562629e+00
1.782972e+00
2.009371e+00
2.216603e+00
2.352363e+00
2.385263e+00
2.319614e+00
0.000000e+00
1.438485e-01
3.439963e-01
6.307928e-01
9.657951e-01
1.291036e+00
1.643309e+00
1.999630e+00
2.360208e+00
2.765131e+00
3.144229e+00
3.511189e+00
3.844136e+00
4.119616e+00
4.296251e+00
4.350898e+00
4.328269e+00
0.000000e+00
4.462266e-01
9.076792e-01
1.419556e+00
1.930264e+00
2.409559e+00
2.920396e+00
3.415632e+00
3.903645e+00
4.396755e+00
4.875162e+00
5.350280e+00
5.778558e+00
6.126172e+00
6.343204e+00
6.438980e+00
6.456674e+00
0.000000e+00
9.972009e-01
1.684416e+00
2.440001e+00
3.127189e+00
3.763296e+00
4.468511e+00
5.096556e+00
5.747146e+00
6.331608e+00
6.905217e+00
7.506049e+00
8.036491e+00
8.448394e+00
8.649719e+00
8.702506e+00
8.703043e+00
0.000000e+00
-6.184699e-01
-1.361532e+00
-2.362545e+00
-3.536569e+00
-4.880282e+00
-6.411335e+00
-8.097453e+00
-9.957839e+00
-1.198117e+01
-1.416603e+01
-1.651662e+01
-1.903030e+01
-2.176147e+01
-2.472559e+01
-2.808520e+01
-3.310097e+01
0.000000e+00
-4.154469e-01
-1.193081e+00
-2.176488e+00
-3.367390e+00
-4.705972e+00
-6.233988e+00
-7.928645e+00
-9.781700e+00
-1.181350e+01
-1.399377e+01
-1.634898e+01
-1.885731e+01
-2.156885e+01
-2.458548e+01
-2.800140e+01
-3.205150e+01
0.000000e+00
-3.898139e-01
-1.091365e+00
-2.073090e+00
-3.248077e+00
-4.580232e+00
-6.114002e+00
-7.799007e+00
-9.662627e+00
-1.169175e+01
-1.388314e+01
-1.624967e+01
-1.876829e+01
-2.150660e+01
-2.457555e+01
-2.784945e+01
-3.088198e+01
0.000000e+00
-4.487866e-01
-1.087725e+00
-2.046976e+00
-3.185396e+00
-4.510924e+00
-6.051887e+00
-7.722654e+00
-9.604876e+00
-1.163332e+01
-1.384618e+01
-1.623261e+01
-1.877678e+01
-2.151688e+01
-2.450599e+01
-2.753969e+01
-3.016529e+01
0.000000e+00
-4.558474e-01
-1.110028e+00
-2.031262e+00
-3.171393e+00
-4.500743e+00
-6.030685e+00
-7.720557e+00
-9.595061e+00
-1.164550e+01
-1.387266e+01
-1.626644e+01
-1.881804e+01
-2.151801e+01
-2.435542e+01
-2.717321e+01
-2.956089e+01
0.000000e+00
-4.474956e-01
-1.087385e+00
-2.049050e+00
-3.192311e+00
-4.528116e+00
-6.079263e+00
-7.759502e+00
-9.657089e+00
-1.171138e+01
-1.394273e+01
-1.631861e+01
-1.884907e+01
-2.150799e+01
-2.422043e+01
-2.685357e+01
-2.912277e+01
0.000000e+00
-3.880909e-01
-1.091324e+00
-2.077801e+00
-3.261719e+00
-4.609351e+00
-6.159762e+00
-7.868649e+00
-9.762510e+00
-1.182739e+01
-1.402924e+01
-1.638580e+01
-1.888841e+01
-2.150792e+01
-2.413794e+01
-2.664642e+01
-2.888925e+01
0.000000e+00
-4.138532e-01
-1.193115e+00
-2.182025e+00
-3.383360e+00
-4.736974e+00
-6.285159e+00
-8.009684e+00
-9.901166e+00
-1.196449e+01
-1.414449e+01
-1.648432e+01
-1.896561e+01
-2.154950e+01
-2.411740e+01
-2.655883e+01
-2.882879e+01
0.000000e+00
-6.174734e-01
-1.362197e+00
-2.368763e+00
-3.552953e+00
-4.911223e+00
-6.463190e+00
-8.178180e+00
-1.007356e+01
-1.212012e+01
-1.429962e+01
-1.663262e+01
-1.908928e+01
-2.163151e+01
-2.414203e+01
-2.654393e+01
-2.882765e+01


0.000000e+00
1.541860e-05
2.509733e-05
3.749434e-05
5.358767e-05
6.719934e-05
8.314405e-05
9.717755e-05
1.118160e-04
1.257513e-04
1.408741e-04
1.551908e-04
1.717939e-04
1.875501e-04
1.975148e-04
2.032222e-04
2.101520e-04
0.000000e+00
1.146150e-05
1.974205e-05
2.840137e-05
4.099963e-05
5.170916e-05
6.182901e-05
7.295213e-05
8.314109e-05
9.454144e-05
1.052202e-04
1.155659e-04
1.264793e-04
1.357985e-04
1.373144e-04
1.410569e-04
1.468820e-04
0.000000e+00
9.534932e-06
1.502297e-05
2.019187e-05
2.884768e-05
3.551290e-05
4.124859e-05
4.859929e-05
5.457281e-05
6.192101e-05
6.835460e-05
7.399601e-05
7.872817e-05
8.088995e-05
8.011957e-05
8.250168e-05
8.674075e-05
0.000000e+00
5.183795e-06
6.845225e-06
9.613057e-06
1.305733e-05
1.353237e-05
1.585389e-05
1.731460e-05
2.084710e-05
2.432117e-05
2.806942e-05
2.908357e-05
2.850304e-05
2.705523e-05
2.683915e-05
2.990194e-05
3.557480e-05
0.000000e+00
-1.740490e-07
-4.332073e-07
-8.519214e-07
-1.712658e-06
-2.862802e-06
-4.954083e-06
-7.178261e-06
-7.765103e-06
-7.772103e-06
-8.733384e-06
-1.191324e-05
-1.466383e-05
-1.602999e-05
-1.570505e-05
-1.353556e-05
-9.544784e-06
0.000000e+00
-5.446476e-06
-7.431968e-06
-1.073420e-05
-1.464562e-05
-1.607099e-05
-2.046554e-05
-2.431723e-05
-3.015439e-05
-3.324935e-05
-3.733996e-05
-4.215335e-05
-4.722450e-05
-4.893165e-05
-4.948184e-05
-4.997118e-05
-4.825812e-05
0.000000e+00
-9.535866e-06
-1.508994e-05
-2.035992e-05
-2.895605e-05
-3.530456e-05
-4.072472e-05
-4.872450e-05
-5.589370e-05
-6.348189e-05
-6.875718e-05
-7.378916e-05
-7.796250e-05
-8.142810e-05
-8.334768e-05
-8.526794e-05
-8.601803e-05
0.000000e+00
-1.139220e-05
-1.965504e-05
-2.829715e-05
-4.078253e-05
-5.164395e-05
-6.159488e-05
-7.279454e-05
-8.317879e-05
-9.455163e-05
-1.052270e-04
-1.134931e-04
-1.183019e-04
-1.232928e-04
-1.268612e-04
-1.281479e-04
-1.282446e-04
0.000000e+00
-1.542916e-05
-2.503867e-05
-3.734065e-05
-5.337889e-05
-6.702773e-05
-8.283304e-05
-9.592915e-05
-1.099136e-04
-1.234157e-04
-1.410800e-04
-1.568062e-04
-1.664438e-04
-1.716305e-04
-1.738468e-04
-1.740563e-04
-1.738721e-04
0.000000e+00
1.260100e-05
2.000255e-05
3.244386e-05
4.876308e-05
6.689159e-05
9.133165e-05
1.202043e-04
1.534751e-04
1.902652e-04
2.304248e-04
2.744400e-04
3.244295e-04
3.785141e-04
4.399847e-04
5.107783e-04
5.841047e-04
0.000000e+00
7.679571e-06
1.611348e-05
2.634347e-05
4.229529e-05
6.093597e-05
8.487607e-05
1.143213e-04
1.472553e-04
1.841249e-04
2.241033e-04
2.682220e-04
3.178456e-04
3.736083e-04
4.347588e-04
5.033977e-04
5.737438e-04
0.000000e+00
4.326582e-06
1.230151e-05
2.172603e-05
3.648535e-05
5.570563e-05
7.946722e-05
1.098023e-04
1.431033e-04
1.796461e-04
2.194950e-04
2.636969e-04
3.140551e-04
3.712436e-04
4.306315e-04
4.959188e-04
5.640467e-04
0.000000e+00
3.200853e-06
1.060059e-05
2.008791e-05
3.452115e-05
5.206103e-05
7.644589e-05
1.088043e-04
1.436457e-04
1.782326e-04
2.173951e-04
2.620950e-04
3.133187e-04
3.698421e-04
4.279019e-04
4.880785e-04
5.498792e-04
0.000000e+00
2.813188e-06
1.027405e-05
2.004642e-05
3.424627e-05
5.077547e-05
7.531966e-05
1.098021e-04
1.449326e-04
1.780838e-04
2.155906e-04
2.620702e-04
3.136142e-04
3.699513e-04
4.267574e-04
4.816859e-04
5.337635e-04
0.000000e+00
3.342583e-06
1.078966e-05
2.045846e-05
3.485721e-05
5.187082e-05
7.716612e-05
1.107125e-04
1.455307e-04
1.778717e-04
2.159550e-04
2.636463e-04
3.159938e-04
3.702247e-04
4.266536e-04
4.793677e-04
5.227709e-04
0.000000e+00
4.478884e-06
1.252805e-05
2.206452e-05
3.676219e-05
5.577450e-05
8.041327e-05
1.117673e-04
1.448154e-04
1.789297e-04
2.182943e-04
2.669103e-04
3.194869e-04
3.722671e-04
4.257234e-04
4.766392e-04
5.193316e-04
0.000000e+00
7.802790e-06
1.634763e-05
2.664036e-05
4.254635e-05
6.133102e-05
8.582534e-05
1.159595e-04
1.482174e-04
1.832514e-04
2.229866e-04
2.706257e-04
3.225127e-04
3.744494e-04
4.258403e-04
4.746288e-04
5.198078e-04
0.000000e+00
1.271318e-05
2.023648e-05
3.273163e-05
4.909301e-05
6.741367e-05
9.235469e-05
1.216340e-04
1.543574e-04
1.895196e-04
2.301929e-04
2.749441e-04
3.247312e-04
3.756462e-04
4.261378e-04
4.741450e-04
5.200760e-04


5.637418e+00
6.115420e+00
6.847084e+00
5.892498e+00
5.541461e+00
6.205692e+00
6.175107e+00
6.284018e+00
5.902789e+00
5.887577e+00
6.271806e+00
7.142089e+00
8.839307e+00
9.819824e+00
9.140275e+00
7.991263e+00
8.064057e+00
8.444802e+00
8.648649e+00
8.346220e+00
8.135032e+00
8.360382e+00
8.541007e+00
8.371465e+00
8.360918e+00
8.259660e+00
8.406104e+00
8.834125e+00
9.499096e+00
9.832356e+00
8.385370e+00
6.465308e+00
9.835173e+00
9.817742e+00
9.992170e+00
9.830325e+00
9.828660e+00
9.937423e+00
9.825847e+00
9.929789e+00
9.839587e+00
9.872368e+00
9.889272e+00
9.868198e+00
9.886420e+00
9.387473e+00
7.988308e+00
6.180723e+00
9.996141e+00
9.996070e+00
9.996036e+00
9.995653e+00
9.995120e+00
9.994050e+00
9.992836e+00
9.992823e+00
9.993503e+00
9.993347e+00
9.990325e+00
9.474315e+00
8.824429e+00
8.364622e+00
7.977745e+00
7.899978e+00
9.996122e+00
9.996025e+00
9.995952e+00
9.995439e+00
9.994552e+00
9.992608e+00
9.927728e+00
9.960148e+00
9.988507e+00
9.909335e+00
9.349399e+00
8.578622e+00
7.696126e+00
7.735063e+00
8.636832e+00
9.151206e+00
9.835324e+00
9.817536e+00
9.991764e+00
9.829132e+00
9.825492e+00
9.680697e+00
9.322110e+00
9.511269e+00
9.380079e+00
8.850050e+00
8.299819e+00
7.883859e+00
8.180887e+00
8.739016e+00
9.436124e+00
9.986451e+00
8.065346e+00
8.445130e+00
8.647426e+00
8.343073e+00
8.050206e+00
7.916959e+00
7.745526e+00
7.712142e+00
7.792888e+00
7.312410e+00
7.466499e+00
8.478082e+00
9.276516e+00
9.835836e+00
9.992104e+00
9.995231e+00
5.640930e+00
6.116266e+00
6.845531e+00
5.883149e+00
5.505509e+00
5.850462e+00
5.706706e+00
6.177609e+00
6.098514e+00
6.444284e+00
7.840668e+00
9.102506e+00
9.975528e+00
9.993851e+00
9.995732e+00
9.996388e+00


-8.156953e-01
-1.715483e-01
-3.957318e-01
-2.564112e-01
-9.794876e-02
-3.033638e-01
-1.249169e-01
-2.097212e-01
-1.609653e-01
-1.594645e-01
-2.136080e-01
-1.504089e-01
-4.628753e-01
-6.836055e-01
3.162783e-01
-8.469365e-01
6.112962e-01
4.798466e-01
2.961302e-01
2.257361e-01
2.893900e-01
1.682236e-01
1.759790e-01
1.721359e-01
1.111097e-01
1.474550e-01
1.290357e-01
2.416861e-01
3.023647e-01
5.103279e-01
6.955650e-01
-9.355304e-01
7.234204e-01
4.713622e-01
5.767170e-02
-1.991281e-02
-3.787946e-02
-1.847156e-01
-8.024353e-02
-1.364409e-01
-7.565542e-02
-1.833310e-02
3.310591e-02
1.865724e-01
2.788987e-01
1.484763e-01
-2.480176e-02
-1.686146e-01
7.286100e-01
5.563163e-01
1.935124e-01
6.327333e-02
-2.327662e-02
-1.037670e-01
-1.705621e-02
-6.057327e-02
1.404659e-02
1.820561e-02
5.969148e-02
1.179447e-01
5.858069e-02
-2.628388e-01
-3.832981e-01
-7.755690e-02
7.315139e-01
5.602368e-01
2.014223e-01
7.128977e-02
-1.981154e-02
-1.099110e-01
-3.741100e-02
-1.011349e-01
-5.085100e-02
-4.122955e-02
2.123226e-02
1.468638e-02
-3.764154e-02
-1.306855e-01
-1.024865e-01
3.111931e-01
7.302158e-01
4.815103e-01
7.567529e-02
-2.101559e-03
-2.650516e-02
-1.605705e-01
-7.774713e-02
-1.905016e-01
-1.817565e-01
-1.082069e-01
-7.822880e-02
-9.800926e-02
-1.103461e-01
4.557506e-02
3.341200e-01
7.248543e-01
6.153723e-01
4.855889e-01
3.036532e-01
2.309101e-01
2.858936e-01
1.619344e-01
1.527589e-01
1.003247e-01
-5.594024e-02
-4.059863e-02
-9.689024e-02
-5.810381e-02
5.807694e-02
3.655038e-01
7.128972e-01
9.479109e-01
-8.210884e-01
-1.772863e-01
-4.032501e-01
-2.595504e-01
-9.782521e-02
-2.976801e-01
-1.204388e-01
-1.556453e-01
-5.596849e-02
-2.235310e-02
-9.248619e-02
9.861455e-02
3.882948e-01
7.720932e-01
9.528717e-01
9.987350e-01
1 2 19 18
2 3 20 19
3 4 21 20
4 5 22 21
5 6 23 22
6 7 24 23
7 8 25 24
8 9 26 25
9 10 27 26
10 11 28 27
11 12 29 28
12 13 30 29
13 14 31 30
14 15 32 31
15 16 33 32
16 17 34 33
18 19 36 35
19 20 37 36
20 21 38 37
21 22 39 38
22 23 40 39
23 24 41 40
24 25 42 41
25 26 43 42
26 27 44 43
27 28 45 44
28 29 46 45
29 30 47 46
30 31 48 47
31 32 49 48
32 33 50 49
33 34 51 50
35 36 53 52
36 37 54 53
37 38 55 54
38 39 56 55
39 40 57 56
40 41 58 57
41 42 59 58
42 43 60 59
43 44 61 60
44 45 62 61
45 46 63 62
46 47 64 63
47 48 65 64
48 49 66 65
49 50 67 66
50 51 68 67
52 53 70 69
53 54 71 70
54 55 72 71
55 56 73 72
56 57 74 73
57 58 75 74
58 59 76 75
59 60 77 76
60 61 78 77
61 62 79 78
62 63 80 79
63 64 81 80
64 65 82 81
65 66 83 82
66 67 84 83
67 68 85 84
69 70 87 86
70 71 88 87
71 72 89 88
72 73 90 89
73 74 91 90
74 75 92 91
75 76 93 92
76 77 94 93
77 78 95 94
78 79 96 95
79 80 97 96
80 81 98 97
81 82 99 98
82 83 100 99
83 84 101 100
84 85 102 101
86 87 104 103
87 88 105 104
88 89 106 105
89 90 107 106
90 91 108 107
91 92 109 108
92 93 110 109
93 94 111 110
94 95 112 111
95 96 113 112
96 97 114 113
97 98 115 114
98 99 116 115
99 100 117 116
100 101 118 117
101 102 119 118
103 104 121 120
104 105 122 121
105 106 123 122
106 107 124 123
107 108 125 124
108 109 126 125
109 110 127 126
110 111 128 127
111 112 129 128
112 113 130 129
113 114 131 130
114 115 132 131
115 116 133 132
116 117 134 133
117 118 135 134
118 119 136 135
120 121 138 137
121 122 139 138
122 123 140 139
123 124 141 140
124 125 142 141
125 126 143 142
126 127 144 143
127 128 145 144
128 129 146 145
129 130 147 146
130 131 148 147
131 132 149 148
132 133 150 149
133 134 151 150
134 135 152 151
135 136 153 152
