TITLE = "Solution"
VARIABLES = x, y, u, v, psiu, psiv, t, stress
ZONE T="structure" N=153 E=128 F=FEBLOCK ET=QUADRILATERAL VARLOCATION=([7,8]=cellcentered)
0.000000e+00
1.250000e+01
2.500000e+01
3.750000e+01
5.000000e+01
6.250000e+01
7.500000e+01
8.750000e+01
1.000000e+02
1.125000e+02
1.250000e+02
1.375000e+02
1.500000e+02
1.625000e+02
1.750000e+02
1.875000e+02
2.000000e+02
0.000000e+00
1.250000e+01
2.500000e+01
3.750000e+01
5.000000e+01
6.250000e+01
7.500000e+01
8.750000e+01
1.000000e+02
1.125000e+02
1.250000e+02
1.375000e+02
1.500000e+02
1.625000e+02
1.750000e+02
1.875000e+02
2.000000e+02
0.000000e+00
1.250000e+01
2.500000e+01
3.750000e+01
5.000000e+01
6.250000e+01
7.500000e+01
8.750000e+01
1.000000e+02
1.125000e+02
1.250000e+02
1.375000e+02
1.500000e+02
1.625000e+02
1.750000e+02
1.875000e+02
2.000000e+02
0.000000e+00
1.250000e+01
2.500000e+01
3.750000e+01
5.000000e+01
6.250000e+01
7.500000e+01
8.750000e+01
1.000000e+02
1.125000e+02
1.250000e+02
1.375000e+02
1.500000e+02
1.625000e+02
1.750000e+02
1.875000e+02
2.000000e+02
0.000000e+00
1.250000e+01
2.500000e+01
3.750000e+01
5.000000e+01
6.250000e+01
7.500000e+01
8.750000e+01
1.000000e+02
1.125000e+02
1.250000e+02
1.375000e+02
1.500000e+02
1.625000e+02
1.750000e+02
1.875000e+02
2.000000e+02
0.000000e+00
1.250000e+01
2.500000e+01
3.750000e+01
5.000000e+01
6.250000e+01
7.500000e+01
8.750000e+01
1.000000e+02
1.125000e+02
1.250000e+02
1.375000e+02
1.500000e+02
1.625000e+02
1.750000e+02
1.875000e+02
2.000000e+02
0.000000e+00
1.250000e+01
2.500000e+01
3.750000e+01
5.000000e+01
6.250000e+01
7.500000e+01
8.750000e+01
1.000000e+02
1.125000e+02
1.250000e+02
1.375000e+02
1.500000e+02
1.625000e+02
1.750000e+02
1.875000e+02
2.000000e+02
0.000000e+00
1.250000e+01
2.500000e+01
3.750000e+01
5.000000e+01
6.250000e+01
7.500000e+01
8.750000e+01
1.000000e+02
1.125000e+02
1.250000e+02
1.375000e+02
1.500000e+02
1.625000e+02
1.750000e+02
1.875000e+02
2.000000e+02
0.000000e+00
1.250000e+01
2.500000e+01
3.750000e+01
5.000000e+01
6.250000e+01
7.500000e+01
8.750000e+01
1.000000e+02
1.125000e+02
1.250000e+02
1.375000e+02
1.500000e+02
1.625000e+02
1.750000e+02
1.875000e+02
2.000000e+02
0.000000e+00
0.000000e+00
0.000000e+00
0.000000e+00
0.000000e+00
0.000000e+00
0.000000e+00
0.000000e+00
0.000000e+00
0.000000e+00
0.000000e+00
0.000000e+00
0.000000e+00
0.000000e+00
0.000000e+00
0.000000e+00
0.000000e+00
1.250000e+01
1.250000e+01
1.250000e+01
1.250000e+01
1.250000e+01
1.250000e+01
1.250000e+01
1.250000e+01
1.250000e+01
1.250000e+01
1.250000e+01
1.250000e+01
1.250000e+01
1.250000e+01
1.250000e+01
1.250000e+01
1.250000e+01
2.500000e+01
2.500000e+01
2.500000e+01
2.500000e+01
2.500000e+01
2.500000e+01
2.500000e+01
2.500000e+01
2.500000e+01
2.500000e+01
2.500000e+01
2.500000e+01
2.500000e+01
2.500000e+01
2.500000e+01
2.500000e+01
2.500000e+01
3.750000e+01
3.750000e+01
3.750000e+01
3.750000e+01
3.750000e+01
3.750000e+01
3.750000e+01
3.750000e+01
3.750000e+01
3.750000e+01
3.750000e+01
3.750000e+01
3.750000e+01
3.750000e+01
3.750000e+01
3.750000e+01
3.750000e+01
5.000000e+01
5.000000e+01
5.000000e+01
5.000000e+01
5.000000e+01
5.000000e+01
5.000000e+01
5.000000e+01
5.000000e+01
5.000000e+01
5.000000e+01
5.000000e+01
5.000000e+01
5.000000e+01
5.000000e+01
5.000000e+01
5.000000e+01
6.250000e+01
6.250000e+01
6.250000e+01
6.250000e+01
6.250000e+01
6.250000e+01
6.250000e+01
6.250000e+01
6.250000e+01
6.250000e+01
6.250000e+01
6.250000e+01
6.250000e+01
6.250000e+01
6.250000e+01
6.250000e+01
6.250000e+01
7.500000e+01
7.500000e+01
7.500000e+01
7.500000e+01
7.500000e+01
7.500000e+01
7.500000e+01
7.500000e+01
7.500000e+01
7.500000e+01
7.500000e+01
7.500000e+01
7.500000e+01
7.500000e+01
7.500000e+01
7.500000e+01
7.500000e+01
8.750000e+01
8.750000e+01
8.750000e+01
8.750000e+01
8.750000e+01
8.750000e+01
8.750000e+01
8.750000e+01
8.750000e+01
8.750000e+01
8.750000e+01
8.750000e+01
8.750000e+01
8.750000e+01
8.750000e+01
8.750000e+01
8.750000e+01
1.000000e+02
1.000000e+02
1.000000e+02
1.000000e+02
1.000000e+02
1.000000e+02
1.000000e+02
1.000000e+02
1.000000e+02
1.000000e+02
1.000000e+02
1.000000e+02
1.000000e+02
1.000000e+02
1.000000e+02
1.000000e+02
1.000000e+02
0.000000e+00
-8.245484e-01
-1.497363e+00
-2.149152e+00
-2.812842e+00
-3.464918e+00
-4.107614e+00
-4.744574e+00
-5.370043e+00
-5.974006e+00
-6.546364e+00
-7.081777e+00
-7.585640e+00
-8.078452e+00
-8.595980e+00
-9.181278e+00
-9.598672e+00
0.000000e+00
-4.585496e-01
-9.541571e-01
-1.441776e+00
-1.939154e+00
-2.427756e+00
-2.908425e+00
-3.384274e+00
-3.851233e+00
-4.301172e+00
-4.724336e+00
-5.111475e+00
-5.454900e+00
-5.742432e+00
-5.939977e+00
-5.983672e+00
-6.118842e+00
0.000000e+00
-2.613098e-01
-5.488549e-01
-8.674893e-01
-1.198081e+00
-1.525863e+00
-1.849624e+00
-2.168396e+00
-2.477642e+00
-2.770068e+00
-3.035959e+00
-3.263480e+00
-3.437990e+00
-3.539533e+00
-3.548211e+00
-3.516420e+00
-3.657080e+00
0.000000e+00
-1.175491e-01
-2.508994e-01
-4.043747e-01
-5.680960e-01
-7.331914e-01
-8.966230e-01
-1.055460e+00
-1.205617e+00
-1.341281e+00
-1.454559e+00
-1.535711e+00
-1.574412e+00
-1.564891e+00
-1.526284e+00
-1.533956e+00
-1.643934e+00
0.000000e+00
-5.060968e-04
-1.066747e-03
-1.590553e-03
-1.899537e-03
-1.650542e-03
-1.975299e-04
3.630160e-03
1.182410e-02
2.744939e-02
5.459611e-02
9.748336e-02
1.575523e-01
2.263979e-01
2.756030e-01
2.668465e-01
1.906113e-01
0.000000e+00
1.166987e-01
2.490833e-01
4.016039e-01
5.646417e-01
7.298740e-01
8.952929e-01
1.059827e+00
1.222508e+00
1.382332e+00
1.538003e+00
1.687217e+00
1.824414e+00
1.936908e+00
2.004650e+00
2.011957e+00
1.972285e+00
0.000000e+00
2.608896e-01
5.479009e-01
8.658980e-01
1.195795e+00
1.523009e+00
1.846731e+00
2.166681e+00
2.479194e+00
2.778032e+00
3.055090e+00
3.301325e+00
3.507165e+00
3.662148e+00
3.756242e+00
3.787262e+00
3.778078e+00
0.000000e+00
4.586568e-01
9.542971e-01
1.441872e+00
1.939011e+00
2.426985e+00
2.906464e+00
3.380028e+00
3.841767e+00
4.279442e+00
4.676932e+00
5.017572e+00
5.287995e+00
5.480816e+00
5.596703e+00
5.646264e+00
5.655422e+00
0.000000e+00
8.249545e-01
1.498403e+00
2.151029e+00
2.815672e+00
3.468636e+00
4.111975e+00
4.748360e+00
5.368426e+00
5.953749e+00
6.479756e+00
6.920357e+00
7.254063e+00
7.469928e+00
7.574623e+00
7.600185e+00
7.599517e+00
0.000000e+00
-5.063825e-01
-1.037483e+00
-1.741289e+00
-2.609078e+00
-3.641497e+00
-4.842179e+00
-6.210360e+00
-7.741259e+00
-9.427235e+00
-1.125814e+01
-1.322397e+01
-1.532051e+01
-1.755962e+01
-2.000654e+01
-2.287170e+01
-2.714207e+01
0.000000e+00
-3.180196e-01
-8.715636e-01
-1.569153e+00
-2.436863e+00
-3.472109e+00
-4.674884e+00
-6.045534e+00
-7.581221e+00
-9.275125e+00
-1.111698e+01
-1.309563e+01
-1.520528e+01
-1.745861e+01
-1.991348e+01
-2.276686e+01
-2.632724e+01
0.000000e+00
-2.552053e-01
-7.603526e-01
-1.451395e+00
-2.315997e+00
-3.351958e+00
-4.556949e+00
-5.931096e+00
-7.472469e+00
-9.175244e+00
-1.102981e+01
-1.302536e+01
-1.515664e+01
-1.743482e+01
-1.989791e+01
-2.258180e+01
-2.514371e+01
0.000000e+00
-2.429472e-01
-7.133658e-01
-1.386716e+00
-2.246109e+00
-3.281237e+00
-4.488607e+00
-5.867361e+00
-7.415739e+00
-9.128660e+00
-1.099710e+01
-1.300991e+01
-1.515849e+01
-1.744036e+01
-1.984363e+01
-2.226809e+01
-2.443621e+01
0.000000e+00
-2.430132e-01
-7.020491e-01
-1.367860e+00
-2.224104e+00
-3.259450e+00
-4.469119e+00
-5.852115e+00
-7.406960e+00
-9.128962e+00
-1.100871e+01
-1.303240e+01
-1.518314e+01
-1.743767e+01
-1.974463e+01
-2.199066e+01
-2.398790e+01
0.000000e+00
-2.427384e-01
-7.133359e-01
-1.387312e+00
-2.247984e+00
-3.285402e+00
-4.496683e+00
-5.881949e+00
-7.440567e+00
-9.167931e+00
-1.105328e+01
-1.307853e+01
-1.521718e+01
-1.742970e+01
-1.965329e+01
-2.179353e+01
-2.372799e+01
0.000000e+00
-2.548532e-01
-7.602753e-01
-1.452305e+00
-2.318984e+00
-3.358718e+00
-4.570218e+00
-5.955299e+00
-7.513984e+00
-9.241349e+00
-1.112504e+01
-1.314309e+01
-1.526203e+01
-1.743433e+01
-1.959716e+01
-2.167885e+01
-2.361171e+01
0.000000e+00
-3.176650e-01
-8.714782e-01
-1.570146e+00
-2.440183e+00
-3.479715e+00
-4.689943e+00
-6.073100e+00
-7.628438e+00
-9.349951e+00
-1.122401e+01
-1.322681e+01
-1.532232e+01
-1.746101e+01
-1.958278e+01
-2.163099e+01
-2.358463e+01
0.000000e+00
-5.061542e-01
-1.037524e+00
-1.742440e+00
-2.612575e+00
-3.649312e+00
-4.857474e+00
-6.237899e+00
-7.787173e+00
-9.497360e+00
-1.135366e+01
-1.333222e+01
-1.539803e+01
-1.750392e+01
-1.959456e+01
-2.162216e+01
-2.358522e+01


0.000000e+00
9.726109e-06
1.904544e-05
2.786777e-05
3.703197e-05
4.593048e-05
5.400597e-05
6.109012e-05
6.699841e-05
7.155257e-05
7.479213e-05
7.697648e-05
7.846654e-05
7.964336e-05
8.081466e-05
8.249867e-05
8.472017e-05
0.000000e+00
7.143897e-06
1.534452e-05
2.202317e-05
2.897466e-05
3.574944e-05
4.178751e-05
4.698569e-05
5.124221e-05
5.440300e-05
5.650860e-05
5.777607e-05
5.842189e-05
5.858748e-05
5.876178e-05
6.012421e-05
6.245653e-05
0.000000e+00
5.369954e-06
1.083183e-05
1.541873e-05
2.011397e-05
2.452894e-05
2.842967e-05
3.175038e-05
3.441912e-05
3.635415e-05
3.758482e-05
3.823391e-05
3.845084e-05
3.844502e-05
3.864213e-05
3.978393e-05
4.172271e-05
0.000000e+00
2.682362e-06
5.070287e-06
7.631370e-06
9.991056e-06
1.212177e-05
1.401746e-05
1.563632e-05
1.692195e-05
1.784868e-05
1.842702e-05
1.871478e-05
1.883198e-05
1.895938e-05
1.925970e-05
1.993724e-05
2.104495e-05
0.000000e+00
-6.125673e-09
-1.276837e-08
-1.967784e-08
-2.711464e-08
-3.621866e-08
-5.060611e-08
-7.736592e-08
-1.243919e-07
-1.938865e-07
-2.763318e-07
-3.436144e-07
-3.449102e-07
-2.311041e-07
-4.006689e-08
2.134280e-07
6.876573e-07
0.000000e+00
-2.693326e-06
-5.092340e-06
-7.666026e-06
-1.003893e-05
-1.218384e-05
-1.409888e-05
-1.575105e-05
-1.709359e-05
-1.810727e-05
-1.879862e-05
-1.920258e-05
-1.937862e-05
-1.940885e-05
-1.940412e-05
-1.938516e-05
-1.922337e-05
0.000000e+00
-5.375372e-06
-1.084540e-05
-1.544308e-05
-2.015132e-05
-2.458102e-05
-2.849661e-05
-3.181921e-05
-3.446114e-05
-3.634826e-05
-3.754682e-05
-3.822705e-05
-3.857659e-05
-3.875530e-05
-3.886984e-05
-3.893272e-05
-3.889557e-05
0.000000e+00
-7.144138e-06
-1.534847e-05
-2.203309e-05
-2.899357e-05
-3.578241e-05
-4.183737e-05
-4.702272e-05
-5.118711e-05
-5.417208e-05
-5.608009e-05
-5.721003e-05
-5.785863e-05
-5.823411e-05
-5.845476e-05
-5.856423e-05
-5.858176e-05
0.000000e+00
-9.728169e-06
-1.904487e-05
-2.786402e-05
-3.702513e-05
-4.592314e-05
-5.399821e-05
-6.105004e-05
-6.684051e-05
-7.117727e-05
-7.414363e-05
-7.604082e-05
-7.719985e-05
-7.787575e-05
-7.823059e-05
-7.836523e-05
-7.838744e-05
0.000000e+00
8.517101e-06
1.461855e-05
2.202756e-05
3.180614e-05
4.346383e-05
5.694173e-05
7.216741e-05
8.880653e-05
1.065132e-04
1.250650e-04
1.443029e-04
1.641370e-04
1.847984e-04
2.076532e-04
2.337015e-04
2.604975e-04
0.000000e+00
4.417848e-06
1.073540e-05
1.805029e-05
2.771282e-05
3.961355e-05
5.354445e-05
6.928762e-05
8.653149e-05
1.048826e-04
1.240029e-04
1.436656e-04
1.637767e-04
1.844662e-04
2.062743e-04
2.307540e-04
2.566878e-04
0.000000e+00
1.935399e-06
7.592835e-06
1.513221e-05
2.478344e-05
3.688413e-05
5.115712e-05
6.728782e-05
8.495826e-05
1.037627e-04
1.232983e-04
1.432911e-04
1.636199e-04
1.841874e-04
2.048539e-04
2.275398e-04
2.521113e-04
0.000000e+00
1.108308e-06
6.139622e-06
1.372241e-05
2.353237e-05
3.573682e-05
5.013248e-05
6.641907e-05
8.425898e-05
1.032450e-04
1.229665e-04
1.431155e-04
1.634954e-04
1.838886e-04
2.040433e-04
2.254115e-04
2.483276e-04
0.000000e+00
9.460586e-07
5.731319e-06
1.325123e-05
2.316910e-05
3.540829e-05
4.983550e-05
6.617196e-05
8.406883e-05
1.031126e-04
1.228890e-04
1.430648e-04
1.634017e-04
1.836886e-04
2.038068e-04
2.245000e-04
2.458978e-04
0.000000e+00
1.109137e-06
6.138187e-06
1.371662e-05
2.352094e-05
3.572249e-05
5.012712e-05
6.644253e-05
8.432553e-05
1.033506e-04
1.230851e-04
1.431914e-04
1.634385e-04
1.836645e-04
2.038340e-04
2.241962e-04
2.446267e-04
0.000000e+00
1.936472e-06
7.590726e-06
1.512382e-05
2.476639e-05
3.686297e-05
5.115235e-05
6.733447e-05
8.508291e-05
1.039616e-04
1.235334e-04
1.434797e-04
1.635963e-04
1.837537e-04
2.039010e-04
2.240655e-04
2.440743e-04
0.000000e+00
4.420087e-06
1.073627e-05
1.804617e-05
2.770197e-05
3.960149e-05
5.355013e-05
6.934045e-05
8.665495e-05
1.050804e-04
1.242534e-04
1.439019e-04
1.638243e-04
1.838746e-04
2.039584e-04
2.240052e-04
2.439009e-04
0.000000e+00
8.521438e-06
1.462292e-05
2.202947e-05
3.180494e-05
4.346581e-05
5.695791e-05
7.220403e-05
8.886654e-05
1.066082e-04
1.252042e-04
1.444475e-04
1.641180e-04
1.840236e-04
2.040221e-04
2.240002e-04
2.438764e-04


2.167643e+00
2.119677e+00
2.261342e+00
2.488367e+00
2.672629e+00
2.914885e+00
3.221515e+00
3.553768e+00
3.878496e+00
4.162241e+00
4.378869e+00
4.517889e+00
4.557847e+00
4.404871e+00
4.067570e+00
3.802688e+00
2.795340e+00
2.746209e+00
2.835659e+00
2.996029e+00
3.128606e+00
3.309754e+00
3.543514e+00
3.799291e+00
4.052070e+00
4.274999e+00
4.445600e+00
4.553101e+00
4.572809e+00
4.407852e+00
4.074837e+00
3.816284e+00
3.733924e+00
3.695599e+00
3.727606e+00
3.793951e+00
3.849797e+00
3.938435e+00
4.056274e+00
4.188532e+00
4.323375e+00
4.445198e+00
4.539261e+00
4.597056e+00
4.597456e+00
4.461951e+00
4.199618e+00
4.003648e+00
4.331329e+00
4.306487e+00
4.303804e+00
4.310007e+00
4.323283e+00
4.351603e+00
4.391620e+00
4.439859e+00
4.492873e+00
4.543562e+00
4.584351e+00
4.610762e+00
4.611166e+00
4.541807e+00
4.403896e+00
4.300664e+00
4.331345e+00
4.306424e+00
4.303551e+00
4.309353e+00
4.321873e+00
4.348994e+00
4.387403e+00
4.433581e+00
4.483976e+00
4.531906e+00
4.571247e+00
4.600398e+00
4.616542e+00
4.603510e+00
4.559758e+00
4.524972e+00
3.733724e+00
3.695146e+00
3.726594e+00
3.791903e+00
3.846087e+00
3.932797e+00
4.049040e+00
4.179672e+00
4.311357e+00
4.428132e+00
4.518291e+00
4.581195e+00
4.622309e+00
4.642758e+00
4.645449e+00
4.642759e+00
2.794517e+00
2.744970e+00
2.833636e+00
2.992814e+00
3.124164e+00
3.305630e+00
3.542965e+00
3.804511e+00
4.060985e+00
4.282316e+00
4.448413e+00
4.558993e+00
4.626970e+00
4.665797e+00
4.685323e+00
4.692874e+00
2.166262e+00
2.117813e+00
2.258667e+00
2.484686e+00
2.668603e+00
2.913714e+00
3.228882e+00
3.573776e+00
3.908930e+00
4.195424e+00
4.408341e+00
4.547849e+00
4.630965e+00
4.677133e+00
4.700557e+00
4.710274e+00


-4.509160e-01
-2.028401e-01
-1.380833e-01
-1.817950e-01
-1.426861e-01
-1.099519e-01
-9.043881e-02
-5.197999e-02
2.035973e-02
1.264684e-01
2.521709e-01
3.737127e-01
4.743657e-01
5.566789e-01
6.460207e-01
-4.120345e-01
5.166645e-01
4.004692e-01
3.729028e-01
3.386341e-01
3.497301e-01
3.600185e-01
3.663201e-01
3.860481e-01
4.301894e-01
5.033290e-01
6.025218e-01
7.177862e-01
8.355409e-01
9.239036e-01
7.888724e-01
-1.126559e+00
8.325781e-01
7.425730e-01
6.697939e-01
6.357165e-01
6.271611e-01
6.226892e-01
6.207962e-01
6.269240e-01
6.463824e-01
6.823481e-01
7.316219e-01
7.791382e-01
7.914135e-01
7.046448e-01
4.148088e-01
-9.775078e-02
9.358024e-01
8.628139e-01
7.978575e-01
7.615071e-01
7.458188e-01
7.368504e-01
7.283652e-01
7.189662e-01
7.095925e-01
7.007869e-01
6.885860e-01
6.605323e-01
5.978764e-01
5.015772e-01
4.419478e-01
4.405229e-01
9.362678e-01
8.634034e-01
7.983950e-01
7.614253e-01
7.441198e-01
7.318335e-01
7.170490e-01
6.965779e-01
6.695504e-01
6.361200e-01
5.964119e-01
5.517952e-01
5.136186e-01
5.189506e-01
6.092686e-01
7.579876e-01
8.336429e-01
7.439652e-01
6.711854e-01
6.360940e-01
6.246123e-01
6.137413e-01
5.992327e-01
5.828723e-01
5.661825e-01
5.507077e-01
5.392219e-01
5.397805e-01
5.711599e-01
6.552271e-01
7.870252e-01
9.233257e-01
5.173949e-01
4.014927e-01
3.740018e-01
3.395804e-01
3.496800e-01
3.569917e-01
3.568687e-01
3.658662e-01
3.946151e-01
4.466334e-01
5.182259e-01
6.032518e-01
7.009863e-01
8.122960e-01
9.191776e-01
9.866182e-01
-4.517081e-01
-2.041332e-01
-1.396180e-01
-1.832824e-01
-1.434792e-01
-1.096818e-01
-8.683616e-02
-3.603496e-02
6.807557e-02
2.322797e-01
4.387220e-01
6.490296e-01
8.227376e-01
9.351978e-01
9.873164e-01
9.997407e-01
1 2 19 18
2 3 20 19
3 4 21 20
4 5 22 21
5 6 23 22
6 7 24 23
7 8 25 24
8 9 26 25
9 10 27 26
10 11 28 27
11 12 29 28
12 13 30 29
13 14 31 30
14 15 32 31
15 16 33 32
16 17 34 33
18 19 36 35
19 20 37 36
20 21 38 37
21 22 39 38
22 23 40 39
23 24 41 40
24 25 42 41
25 26 43 42
26 27 44 43
27 28 45 44
28 29 46 45
29 30 47 46
30 31 48 47
31 32 49 48
32 33 50 49
33 34 51 50
35 36 53 52
36 37 54 53
37 38 55 54
38 39 56 55
39 40 57 56
40 41 58 57
41 42 59 58
42 43 60 59
43 44 61 60
44 45 62 61
45 46 63 62
46 47 64 63
47 48 65 64
48 49 66 65
49 50 67 66
50 51 68 67
52 53 70 69
53 54 71 70
54 55 72 71
55 56 73 72
56 57 74 73
57 58 75 74
58 59 76 75
59 60 77 76
60 61 78 77
61 62 79 78
62 63 80 79
63 64 81 80
64 65 82 81
65 66 83 82
66 67 84 83
67 68 85 84
69 70 87 86
70 71 88 87
71 72 89 88
72 73 90 89
73 74 91 90
74 75 92 91
75 76 93 92
76 77 94 93
77 78 95 94
78 79 96 95
79 80 97 96
80 81 98 97
81 82 99 98
82 83 100 99
83 84 101 100
84 85 102 101
86 87 104 103
87 88 105 104
88 89 106 105
89 90 107 106
90 91 108 107
91 92 109 108
92 93 110 109
93 94 111 110
94 95 112 111
95 96 113 112
96 97 114 113
97 98 115 114
98 99 116 115
99 100 117 116
100 101 118 117
101 102 119 118
103 104 121 120
104 105 122 121
105 106 123 122
106 107 124 123
107 108 125 124
108 109 126 125
109 110 127 126
110 111 128 127
111 112 129 128
112 113 130 129
113 114 131 130
114 115 132 131
115 116 133 132
116 117 134 133
117 118 135 134
118 119 136 135
120 121 138 137
121 122 139 138
122 123 140 139
123 124 141 140
124 125 142 141
125 126 143 142
126 127 144 143
127 128 145 144
128 129 146 145
129 130 147 146
130 131 148 147
131 132 149 148
132 133 150 149
133 134 151 150
134 135 152 151
135 136 153 152
