TITLE = "Solution"
VARIABLES = x, y, u, v, psiu, psiv, t, stress
ZONE T="structure" N=153 E=128 F=FEBLOCK ET=QUADRILATERAL VARLOCATION=([7,8]=cellcentered)
0.000000e+00
1.250000e+01
2.500000e+01
3.750000e+01
5.000000e+01
6.250000e+01
7.500000e+01
8.750000e+01
1.000000e+02
1.125000e+02
1.250000e+02
1.375000e+02
1.500000e+02
1.625000e+02
1.750000e+02
1.875000e+02
2.000000e+02
0.000000e+00
1.250000e+01
2.500000e+01
3.750000e+01
5.000000e+01
6.250000e+01
7.500000e+01
8.750000e+01
1.000000e+02
1.125000e+02
1.250000e+02
1.375000e+02
1.500000e+02
1.625000e+02
1.750000e+02
1.875000e+02
2.000000e+02
0.000000e+00
1.250000e+01
2.500000e+01
3.750000e+01
5.000000e+01
6.250000e+01
7.500000e+01
8.750000e+01
1.000000e+02
1.125000e+02
1.250000e+02
1.375000e+02
1.500000e+02
1.625000e+02
1.750000e+02
1.875000e+02
2.000000e+02
0.000000e+00
1.250000e+01
2.500000e+01
3.750000e+01
5.000000e+01
6.250000e+01
7.500000e+01
8.750000e+01
1.000000e+02
1.125000e+02
1.250000e+02
1.375000e+02
1.500000e+02
1.625000e+02
1.750000e+02
1.875000e+02
2.000000e+02
0.000000e+00
1.250000e+01
2.500000e+01
3.750000e+01
5.000000e+01
6.250000e+01
7.500000e+01
8.750000e+01
1.000000e+02
1.125000e+02
1.250000e+02
1.375000e+02
1.500000e+02
1.625000e+02
1.750000e+02
1.875000e+02
2.000000e+02
0.000000e+00
1.250000e+01
2.500000e+01
3.750000e+01
5.000000e+01
6.250000e+01
7.500000e+01
8.750000e+01
1.000000e+02
1.125000e+02
1.250000e+02
1.375000e+02
1.500000e+02
1.625000e+02
1.750000e+02
1.875000e+02
2.000000e+02
0.000000e+00
1.250000e+01
2.500000e+01
3.750000e+01
5.000000e+01
6.250000e+01
7.500000e+01
8.750000e+01
1.000000e+02
1.125000e+02
1.250000e+02
1.375000e+02
1.500000e+02
1.625000e+02
1.750000e+02
1.875000e+02
2.000000e+02
0.000000e+00
1.250000e+01
2.500000e+01
3.750000e+01
5.000000e+01
6.250000e+01
7.500000e+01
8.750000e+01
1.000000e+02
1.125000e+02
1.250000e+02
1.375000e+02
1.500000e+02
1.625000e+02
1.750000e+02
1.875000e+02
2.000000e+02
0.000000e+00
1.250000e+01
2.500000e+01
3.750000e+01
5.000000e+01
6.250000e+01
7.500000e+01
8.750000e+01
1.000000e+02
1.125000e+02
1.250000e+02
1.375000e+02
1.500000e+02
1.625000e+02
1.750000e+02
1.875000e+02
2.000000e+02
0.000000e+00
0.000000e+00
0.000000e+00
0.000000e+00
0.000000e+00
0.000000e+00
0.000000e+00
0.000000e+00
0.000000e+00
0.000000e+00
0.000000e+00
0.000000e+00
0.000000e+00
0.000000e+00
0.000000e+00
0.000000e+00
0.000000e+00
1.250000e+01
1.250000e+01
1.250000e+01
1.250000e+01
1.250000e+01
1.250000e+01
1.250000e+01
1.250000e+01
1.250000e+01
1.250000e+01
1.250000e+01
1.250000e+01
1.250000e+01
1.250000e+01
1.250000e+01
1.250000e+01
1.250000e+01
2.500000e+01
2.500000e+01
2.500000e+01
2.500000e+01
2.500000e+01
2.500000e+01
2.500000e+01
2.500000e+01
2.500000e+01
2.500000e+01
2.500000e+01
2.500000e+01
2.500000e+01
2.500000e+01
2.500000e+01
2.500000e+01
2.500000e+01
3.750000e+01
3.750000e+01
3.750000e+01
3.750000e+01
3.750000e+01
3.750000e+01
3.750000e+01
3.750000e+01
3.750000e+01
3.750000e+01
3.750000e+01
3.750000e+01
3.750000e+01
3.750000e+01
3.750000e+01
3.750000e+01
3.750000e+01
5.000000e+01
5.000000e+01
5.000000e+01
5.000000e+01
5.000000e+01
5.000000e+01
5.000000e+01
5.000000e+01
5.000000e+01
5.000000e+01
5.000000e+01
5.000000e+01
5.000000e+01
5.000000e+01
5.000000e+01
5.000000e+01
5.000000e+01
6.250000e+01
6.250000e+01
6.250000e+01
6.250000e+01
6.250000e+01
6.250000e+01
6.250000e+01
6.250000e+01
6.250000e+01
6.250000e+01
6.250000e+01
6.250000e+01
6.250000e+01
6.250000e+01
6.250000e+01
6.250000e+01
6.250000e+01
7.500000e+01
7.500000e+01
7.500000e+01
7.500000e+01
7.500000e+01
7.500000e+01
7.500000e+01
7.500000e+01
7.500000e+01
7.500000e+01
7.500000e+01
7.500000e+01
7.500000e+01
7.500000e+01
7.500000e+01
7.500000e+01
7.500000e+01
8.750000e+01
8.750000e+01
8.750000e+01
8.750000e+01
8.750000e+01
8.750000e+01
8.750000e+01
8.750000e+01
8.750000e+01
8.750000e+01
8.750000e+01
8.750000e+01
8.750000e+01
8.750000e+01
8.750000e+01
8.750000e+01
8.750000e+01
1.000000e+02
1.000000e+02
1.000000e+02
1.000000e+02
1.000000e+02
1.000000e+02
1.000000e+02
1.000000e+02
1.000000e+02
1.000000e+02
1.000000e+02
1.000000e+02
1.000000e+02
1.000000e+02
1.000000e+02
1.000000e+02
1.000000e+02
0.000000e+00
-9.796004e-01
-1.671117e+00
-2.413080e+00
-3.093138e+00
-3.744764e+00
-4.433111e+00
-5.081323e+00
-5.742833e+00
-6.391346e+00
-7.051901e+00
-7.704717e+00
-8.379965e+00
-9.163704e+00
-1.005718e+01
-1.080136e+01
-1.125264e+01
0.000000e+00
-4.440070e-01
-9.136206e-01
-1.421029e+00
-1.933694e+00
-2.419084e+00
-2.930897e+00
-3.431087e+00
-3.925086e+00
-4.426060e+00
-4.925062e+00
-5.418022e+00
-5.908529e+00
-6.431041e+00
-6.875722e+00
-6.992826e+00
-7.170261e+00
0.000000e+00
-1.547879e-01
-3.662446e-01
-6.585335e-01
-9.979345e-01
-1.324390e+00
-1.678366e+00
-2.029850e+00
-2.375918e+00
-2.730495e+00
-3.071166e+00
-3.397075e+00
-3.686881e+00
-3.917183e+00
-4.013197e+00
-4.006048e+00
-4.155922e+00
0.000000e+00
-7.962300e-02
-1.654223e-01
-3.104380e-01
-4.549788e-01
-6.295876e-01
-8.069880e-01
-9.788577e-01
-1.157782e+00
-1.322655e+00
-1.481723e+00
-1.614956e+00
-1.698743e+00
-1.700698e+00
-1.629399e+00
-1.614261e+00
-1.736192e+00
0.000000e+00
-2.652178e-03
-5.745108e-03
-8.704208e-03
-1.123389e-02
-1.234882e-02
-1.076619e-02
-5.283178e-03
5.196537e-03
2.402033e-02
5.256486e-02
1.014641e-01
1.848102e-01
2.998378e-01
4.154946e-01
4.488507e-01
3.496081e-01
0.000000e+00
7.509106e-02
1.561487e-01
2.952951e-01
4.351060e-01
6.068398e-01
7.867620e-01
9.683749e-01
1.169033e+00
1.368181e+00
1.583262e+00
1.806886e+00
2.027407e+00
2.223197e+00
2.355594e+00
2.387239e+00
2.322662e+00
0.000000e+00
1.530995e-01
3.623991e-01
6.515960e-01
9.868006e-01
1.310880e+00
1.664385e+00
2.021815e+00
2.388823e+00
2.776977e+00
3.152040e+00
3.521911e+00
3.857850e+00
4.124253e+00
4.293587e+00
4.348702e+00
4.328175e+00
0.000000e+00
4.444100e-01
9.143684e-01
1.421733e+00
1.932707e+00
2.417524e+00
2.926823e+00
3.420412e+00
3.910893e+00
4.402359e+00
4.879126e+00
5.353847e+00
5.790607e+00
6.131324e+00
6.343582e+00
6.436494e+00
6.453216e+00
0.000000e+00
9.808561e-01
1.674998e+00
2.420380e+00
3.103493e+00
3.758826e+00
4.449010e+00
5.085035e+00
5.725332e+00
6.329421e+00
6.914659e+00
7.510754e+00
8.047138e+00
8.441543e+00
8.642245e+00
8.696316e+00
8.697085e+00
0.000000e+00
-6.104194e-01
-1.340855e+00
-2.320741e+00
-3.473759e+00
-4.797958e+00
-6.305192e+00
-7.972750e+00
-9.811264e+00
-1.181667e+01
-1.398555e+01
-1.631533e+01
-1.882207e+01
-2.154529e+01
-2.449871e+01
-2.786232e+01
-3.287568e+01
0.000000e+00
-4.067863e-01
-1.172171e+00
-2.136181e+00
-3.303207e+00
-4.622516e+00
-6.128785e+00
-7.801953e+00
-9.637826e+00
-1.164613e+01
-1.381478e+01
-1.614824e+01
-1.864458e+01
-2.135728e+01
-2.436352e+01
-2.777551e+01
-3.183529e+01
0.000000e+00
-3.778906e-01
-1.070998e+00
-2.031135e+00
-3.182323e+00
-4.498644e+00
-6.005194e+00
-7.675853e+00
-9.516996e+00
-1.152627e+01
-1.370527e+01
-1.604933e+01
-1.855838e+01
-2.129644e+01
-2.435583e+01
-2.761921e+01
-3.064805e+01
0.000000e+00
-4.318570e-01
-1.064528e+00
-2.002219e+00
-3.116614e+00
-4.431438e+00
-5.936966e+00
-7.603672e+00
-9.456648e+00
-1.147064e+01
-1.366671e+01
-1.603318e+01
-1.856791e+01
-2.130424e+01
-2.429238e+01
-2.730657e+01
-2.991212e+01
0.000000e+00
-4.404821e-01
-1.083570e+00
-1.986749e+00
-3.104672e+00
-4.414879e+00
-5.919748e+00
-7.596292e+00
-9.451958e+00
-1.148166e+01
-1.368706e+01
-1.606975e+01
-1.861106e+01
-2.130646e+01
-2.414420e+01
-2.694427e+01
-2.931128e+01
0.000000e+00
-4.306774e-01
-1.064279e+00
-2.004402e+00
-3.123470e+00
-4.445094e+00
-5.962434e+00
-7.640102e+00
-9.510909e+00
-1.154528e+01
-1.375007e+01
-1.612390e+01
-1.865033e+01
-2.129741e+01
-2.400638e+01
-2.662894e+01
-2.888265e+01
0.000000e+00
-3.763499e-01
-1.070704e+00
-2.034976e+00
-3.193486e+00
-4.523062e+00
-6.049846e+00
-7.743722e+00
-9.614763e+00
-1.165259e+01
-1.383902e+01
-1.619290e+01
-1.869742e+01
-2.130132e+01
-2.392031e+01
-2.642461e+01
-2.866095e+01
0.000000e+00
-4.053838e-01
-1.171823e+00
-2.140016e+00
-3.315374e+00
-4.649629e+00
-6.179163e+00
-7.881539e+00
-9.750721e+00
-1.178612e+01
-1.395875e+01
-1.629479e+01
-1.877800e+01
-2.134474e+01
-2.389937e+01
-2.633632e+01
-2.860276e+01
0.000000e+00
-6.095024e-01
-1.341086e+00
-2.324947e+00
-3.486609e+00
-4.825935e+00
-6.355341e+00
-8.051047e+00
-9.920861e+00
-1.194606e+01
-1.411578e+01
-1.644472e+01
-1.890156e+01
-2.142438e+01
-2.392413e+01
-2.632083e+01
-2.860172e+01


0.000000e+00
1.518069e-05
2.495363e-05
3.703384e-05
5.256875e-05
6.584073e-05
8.059321e-05
9.544362e-05
1.093883e-04
1.246520e-04
1.396366e-04
1.539047e-04
1.715215e-04
1.853557e-04
1.926801e-04
1.975702e-04
2.041551e-04
0.000000e+00
1.130870e-05
1.979693e-05
2.849902e-05
4.129493e-05
5.189736e-05
6.231993e-05
7.364398e-05
8.377688e-05
9.481580e-05
1.049245e-04
1.144858e-04
1.259416e-04
1.335283e-04
1.332516e-04
1.367824e-04
1.425523e-04
0.000000e+00
9.487803e-06
1.532178e-05
2.096131e-05
3.035125e-05
3.731911e-05
4.381688e-05
5.131957e-05
5.733152e-05
6.380622e-05
6.925028e-05
7.359805e-05
7.799778e-05
7.902325e-05
7.769200e-05
8.006655e-05
8.440403e-05
0.000000e+00
5.189950e-06
7.283177e-06
1.075534e-05
1.516896e-05
1.761939e-05
2.125657e-05
2.431214e-05
2.639725e-05
2.871607e-05
3.005974e-05
2.975051e-05
2.840915e-05
2.653776e-05
2.653925e-05
2.964365e-05
3.518265e-05
0.000000e+00
-8.253240e-08
-2.119914e-07
-3.905311e-07
-6.397255e-07
-9.649806e-07
-1.360028e-06
-1.946874e-06
-2.735611e-06
-4.231876e-06
-6.745749e-06
-1.048718e-05
-1.345446e-05
-1.485584e-05
-1.440548e-05
-1.209829e-05
-8.334324e-06
0.000000e+00
-5.304864e-06
-7.582416e-06
-1.137671e-05
-1.619525e-05
-1.915605e-05
-2.353407e-05
-2.711345e-05
-3.042141e-05
-3.332948e-05
-3.677431e-05
-4.146889e-05
-4.558395e-05
-4.685723e-05
-4.742318e-05
-4.792312e-05
-4.650712e-05
0.000000e+00
-9.453220e-06
-1.533535e-05
-2.114067e-05
-3.075383e-05
-3.811367e-05
-4.485236e-05
-5.280150e-05
-5.863779e-05
-6.382147e-05
-6.851274e-05
-7.298340e-05
-7.699734e-05
-7.993619e-05
-8.178871e-05
-8.355939e-05
-8.425318e-05
0.000000e+00
-1.124255e-05
-1.970805e-05
-2.841175e-05
-4.120447e-05
-5.192013e-05
-6.225147e-05
-7.380938e-05
-8.394595e-05
-9.437425e-05
-1.045123e-04
-1.120258e-04
-1.172499e-04
-1.218715e-04
-1.249273e-04
-1.259947e-04
-1.261011e-04
0.000000e+00
-1.521425e-05
-2.493615e-05
-3.688518e-05
-5.220888e-05
-6.522039e-05
-7.962555e-05
-9.395292e-05
-1.081341e-04
-1.235560e-04
-1.408200e-04
-1.552030e-04
-1.643179e-04
-1.690866e-04
-1.710839e-04
-1.711849e-04
-1.709835e-04
0.000000e+00
1.254207e-05
1.997126e-05
3.212265e-05
4.769973e-05
6.441177e-05
8.624960e-05
1.119218e-04
1.412163e-04
1.757347e-04
2.140866e-04
2.577981e-04
3.082709e-04
3.609901e-04
4.214975e-04
4.911722e-04
5.627357e-04
0.000000e+00
7.575378e-06
1.601171e-05
2.605046e-05
4.127906e-05
5.857479e-05
7.987810e-05
1.058199e-04
1.351169e-04
1.694172e-04
2.082212e-04
2.515574e-04
3.018111e-04
3.572506e-04
4.170758e-04
4.840194e-04
5.525126e-04
0.000000e+00
4.151719e-06
1.205806e-05
2.121270e-05
3.564304e-05
5.358581e-05
7.505502e-05
1.009305e-04
1.305171e-04
1.649883e-04
2.039458e-04
2.476859e-04
2.983021e-04
3.555681e-04
4.134983e-04
4.766238e-04
5.425859e-04
0.000000e+00
2.874855e-06
9.987142e-06
1.915586e-05
3.336071e-05
5.148611e-05
7.314083e-05
9.922639e-05
1.290343e-04
1.632194e-04
2.023660e-04
2.468896e-04
2.979776e-04
3.543401e-04
4.110218e-04
4.689179e-04
5.283792e-04
0.000000e+00
2.421426e-06
9.426433e-06
1.872543e-05
3.282100e-05
5.092883e-05
7.260981e-05
9.875913e-05
1.287722e-04
1.625983e-04
2.013516e-04
2.475821e-04
2.986659e-04
3.544636e-04
4.099197e-04
4.627014e-04
5.131129e-04
0.000000e+00
2.980523e-06
1.013386e-05
1.934985e-05
3.352314e-05
5.155346e-05
7.309293e-05
9.895458e-05
1.288867e-04
1.624654e-04
2.018009e-04
2.495638e-04
3.011789e-04
3.547307e-04
4.098493e-04
4.604569e-04
5.031851e-04
0.000000e+00
4.288840e-06
1.229359e-05
2.154656e-05
3.590095e-05
5.373345e-05
7.480938e-05
1.003243e-04
1.295546e-04
1.634928e-04
2.039918e-04
2.527850e-04
3.046493e-04
3.564905e-04
4.088770e-04
4.581167e-04
5.003235e-04
0.000000e+00
7.693997e-06
1.628158e-05
2.643919e-05
4.165113e-05
5.876628e-05
7.973697e-05
1.050901e-04
1.336233e-04
1.676035e-04
2.084012e-04
2.561895e-04
3.076077e-04
3.583936e-04
4.087349e-04
4.564100e-04
5.008297e-04
0.000000e+00
1.265332e-05
2.023877e-05
3.251329e-05
4.809514e-05
6.462482e-05
8.615689e-05
1.112710e-04
1.397695e-04
1.741135e-04
2.147922e-04
2.601413e-04
3.097224e-04
3.595483e-04
4.089045e-04
4.559681e-04
5.011044e-04


4.919995e+00
5.222430e+00
5.684308e+00
4.924257e+00
4.351529e+00
4.460768e+00
4.579053e+00
4.812997e+00
5.039410e+00
5.414540e+00
5.819128e+00
6.801633e+00
8.362534e+00
9.195443e+00
8.439307e+00
7.267299e+00
7.385521e+00
7.599672e+00
7.697819e+00
7.413228e+00
7.023477e+00
7.105060e+00
7.201461e+00
7.249951e+00
7.422530e+00
7.557073e+00
7.749849e+00
8.229334e+00
8.956047e+00
9.150617e+00
7.737106e+00
5.895783e+00
9.327848e+00
9.311108e+00
9.399027e+00
9.225480e+00
9.188003e+00
9.213844e+00
9.197233e+00
9.232056e+00
9.223712e+00
9.263376e+00
9.246448e+00
9.250291e+00
9.265485e+00
8.792563e+00
7.293214e+00
5.609144e+00
9.695509e+00
9.690538e+00
9.688304e+00
9.665863e+00
9.657333e+00
9.655227e+00
9.646294e+00
9.636015e+00
9.609769e+00
9.543918e+00
9.364045e+00
8.846063e+00
8.307459e+00
7.895479e+00
7.358964e+00
6.988674e+00
9.694841e+00
9.688922e+00
9.685518e+00
9.659788e+00
9.647781e+00
9.642370e+00
9.625517e+00
9.604719e+00
9.536286e+00
9.307989e+00
8.707071e+00
7.843279e+00
7.161409e+00
7.286445e+00
7.963123e+00
8.351007e+00
9.323606e+00
9.303990e+00
9.381458e+00
9.188458e+00
9.129894e+00
9.132975e+00
9.082388e+00
9.056723e+00
8.763031e+00
8.216933e+00
7.725471e+00
7.300002e+00
7.420038e+00
8.060292e+00
8.850349e+00
9.346461e+00
7.377942e+00
7.587527e+00
7.670652e+00
7.353316e+00
6.939483e+00
6.986050e+00
7.034790e+00
6.966032e+00
6.763687e+00
6.571998e+00
6.931573e+00
7.818587e+00
8.546353e+00
9.163350e+00
9.526061e+00
9.649386e+00
4.912071e+00
5.215041e+00
5.666947e+00
4.884905e+00
4.304142e+00
4.403797e+00
4.491501e+00
4.698769e+00
4.793810e+00
5.401677e+00
6.942079e+00
8.403080e+00
9.297334e+00
9.571477e+00
9.677263e+00
9.718140e+00


-7.748028e-01
-2.014784e-01
-3.644138e-01
-2.489849e-01
-1.380230e-01
-2.643418e-01
-1.637326e-01
-1.785141e-01
-1.712067e-01
-1.916806e-01
-1.651505e-01
-2.047471e-01
-4.945300e-01
-5.256742e-01
3.469300e-01
-8.426968e-01
6.084382e-01
4.611961e-01
3.064113e-01
2.279274e-01
2.838976e-01
1.797018e-01
1.859234e-01
1.827558e-01
1.364908e-01
1.463496e-01
1.773299e-01
2.572965e-01
3.260981e-01
5.737788e-01
7.058889e-01
-9.954515e-01
7.418447e-01
4.970171e-01
1.384085e-01
7.283557e-02
3.381047e-02
-4.977316e-02
-9.528179e-03
-2.059751e-02
1.677100e-02
5.667819e-02
1.321370e-01
2.572735e-01
3.311599e-01
1.873528e-01
8.950824e-03
-2.038849e-01
7.496711e-01
5.750939e-01
2.460913e-01
1.272396e-01
2.855608e-02
-1.182845e-02
1.986635e-02
2.109886e-02
7.238047e-02
9.078895e-02
1.228078e-01
1.524252e-01
6.231943e-02
-2.754036e-01
-3.468621e-01
-4.918385e-02
7.521166e-01
5.782161e-01
2.511032e-01
1.294015e-01
2.636374e-02
-2.673418e-02
-2.213346e-03
-1.938783e-02
1.504529e-02
2.964023e-02
3.692249e-02
2.645901e-02
-4.079120e-02
-1.686027e-01
-9.934292e-02
3.373708e-01
7.473809e-01
5.053104e-01
1.521510e-01
8.446221e-02
3.318782e-02
-7.581800e-02
-6.204659e-02
-1.237481e-01
-1.150099e-01
-8.058136e-02
-1.085877e-01
-1.141137e-01
-6.953312e-02
5.886847e-02
3.383331e-01
7.415748e-01
6.116336e-01
4.653067e-01
3.123650e-01
2.368264e-01
2.837455e-01
1.699061e-01
1.561735e-01
9.417081e-02
-7.249041e-03
-2.304511e-02
-1.063797e-01
-8.579535e-02
1.039755e-01
3.976139e-01
7.204366e-01
9.497202e-01
-7.775977e-01
-2.073288e-01
-3.714794e-01
-2.519861e-01
-1.449027e-01
-2.647513e-01
-1.317979e-01
-1.401523e-01
-8.550437e-02
-3.757361e-02
-7.949268e-02
7.443594e-02
4.282090e-01
7.774835e-01
9.528614e-01
9.987492e-01
1 2 19 18
2 3 20 19
3 4 21 20
4 5 22 21
5 6 23 22
6 7 24 23
7 8 25 24
8 9 26 25
9 10 27 26
10 11 28 27
11 12 29 28
12 13 30 29
13 14 31 30
14 15 32 31
15 16 33 32
16 17 34 33
18 19 36 35
19 20 37 36
20 21 38 37
21 22 39 38
22 23 40 39
23 24 41 40
24 25 42 41
25 26 43 42
26 27 44 43
27 28 45 44
28 29 46 45
29 30 47 46
30 31 48 47
31 32 49 48
32 33 50 49
33 34 51 50
35 36 53 52
36 37 54 53
37 38 55 54
38 39 56 55
39 40 57 56
40 41 58 57
41 42 59 58
42 43 60 59
43 44 61 60
44 45 62 61
45 46 63 62
46 47 64 63
47 48 65 64
48 49 66 65
49 50 67 66
50 51 68 67
52 53 70 69
53 54 71 70
54 55 72 71
55 56 73 72
56 57 74 73
57 58 75 74
58 59 76 75
59 60 77 76
60 61 78 77
61 62 79 78
62 63 80 79
63 64 81 80
64 65 82 81
65 66 83 82
66 67 84 83
67 68 85 84
69 70 87 86
70 71 88 87
71 72 89 88
72 73 90 89
73 74 91 90
74 75 92 91
75 76 93 92
76 77 94 93
77 78 95 94
78 79 96 95
79 80 97 96
80 81 98 97
81 82 99 98
82 83 100 99
83 84 101 100
84 85 102 101
86 87 104 103
87 88 105 104
88 89 106 105
89 90 107 106
90 91 108 107
91 92 109 108
92 93 110 109
93 94 111 110
94 95 112 111
95 96 113 112
96 97 114 113
97 98 115 114
98 99 116 115
99 100 117 116
100 101 118 117
101 102 119 118
103 104 121 120
104 105 122 121
105 106 123 122
106 107 124 123
107 108 125 124
108 109 126 125
109 110 127 126
110 111 128 127
111 112 129 128
112 113 130 129
113 114 131 130
114 115 132 131
115 116 133 132
116 117 134 133
117 118 135 134
118 119 136 135
120 121 138 137
121 122 139 138
122 123 140 139
123 124 141 140
124 125 142 141
125 126 143 142
126 127 144 143
127 128 145 144
128 129 146 145
129 130 147 146
130 131 148 147
131 132 149 148
132 133 150 149
133 134 151 150
134 135 152 151
135 136 153 152
