TITLE = "Solution"
VARIABLES = x, y, u, v, psiu, psiv, t, stress
ZONE T="structure" N=153 E=128 F=FEBLOCK ET=QUADRILATERAL VARLOCATION=([7,8]=cellcentered)
0.000000e+00
1.250000e+01
2.500000e+01
3.750000e+01
5.000000e+01
6.250000e+01
7.500000e+01
8.750000e+01
1.000000e+02
1.125000e+02
1.250000e+02
1.375000e+02
1.500000e+02
1.625000e+02
1.750000e+02
1.875000e+02
2.000000e+02
0.000000e+00
1.250000e+01
2.500000e+01
3.750000e+01
5.000000e+01
6.250000e+01
7.500000e+01
8.750000e+01
1.000000e+02
1.125000e+02
1.250000e+02
1.375000e+02
1.500000e+02
1.625000e+02
1.750000e+02
1.875000e+02
2.000000e+02
0.000000e+00
1.250000e+01
2.500000e+01
3.750000e+01
5.000000e+01
6.250000e+01
7.500000e+01
8.750000e+01
1.000000e+02
1.125000e+02
1.250000e+02
1.375000e+02
1.500000e+02
1.625000e+02
1.750000e+02
1.875000e+02
2.000000e+02
0.000000e+00
1.250000e+01
2.500000e+01
3.750000e+01
5.000000e+01
6.250000e+01
7.500000e+01
8.750000e+01
1.000000e+02
1.125000e+02
1.250000e+02
1.375000e+02
1.500000e+02
1.625000e+02
1.750000e+02
1.875000e+02
2.000000e+02
0.000000e+00
1.250000e+01
2.500000e+01
3.750000e+01
5.000000e+01
6.250000e+01
7.500000e+01
8.750000e+01
1.000000e+02
1.125000e+02
1.250000e+02
1.375000e+02
1.500000e+02
1.625000e+02
1.750000e+02
1.875000e+02
2.000000e+02
0.000000e+00
1.250000e+01
2.500000e+01
3.750000e+01
5.000000e+01
6.250000e+01
7.500000e+01
8.750000e+01
1.000000e+02
1.125000e+02
1.250000e+02
1.375000e+02
1.500000e+02
1.625000e+02
1.750000e+02
1.875000e+02
2.000000e+02
0.000000e+00
1.250000e+01
2.500000e+01
3.750000e+01
5.000000e+01
6.250000e+01
7.500000e+01
8.750000e+01
1.000000e+02
1.125000e+02
1.250000e+02
1.375000e+02
1.500000e+02
1.625000e+02
1.750000e+02
1.875000e+02
2.000000e+02
0.000000e+00
1.250000e+01
2.500000e+01
3.750000e+01
5.000000e+01
6.250000e+01
7.500000e+01
8.750000e+01
1.000000e+02
1.125000e+02
1.250000e+02
1.375000e+02
1.500000e+02
1.625000e+02
1.750000e+02
1.875000e+02
2.000000e+02
0.000000e+00
1.250000e+01
2.500000e+01
3.750000e+01
5.000000e+01
6.250000e+01
7.500000e+01
8.750000e+01
1.000000e+02
1.125000e+02
1.250000e+02
1.375000e+02
1.500000e+02
1.625000e+02
1.750000e+02
1.875000e+02
2.000000e+02
0.000000e+00
0.000000e+00
0.000000e+00
0.000000e+00
0.000000e+00
0.000000e+00
0.000000e+00
0.000000e+00
0.000000e+00
0.000000e+00
0.000000e+00
0.000000e+00
0.000000e+00
0.000000e+00
0.000000e+00
0.000000e+00
0.000000e+00
1.250000e+01
1.250000e+01
1.250000e+01
1.250000e+01
1.250000e+01
1.250000e+01
1.250000e+01
1.250000e+01
1.250000e+01
1.250000e+01
1.250000e+01
1.250000e+01
1.250000e+01
1.250000e+01
1.250000e+01
1.250000e+01
1.250000e+01
2.500000e+01
2.500000e+01
2.500000e+01
2.500000e+01
2.500000e+01
2.500000e+01
2.500000e+01
2.500000e+01
2.500000e+01
2.500000e+01
2.500000e+01
2.500000e+01
2.500000e+01
2.500000e+01
2.500000e+01
2.500000e+01
2.500000e+01
3.750000e+01
3.750000e+01
3.750000e+01
3.750000e+01
3.750000e+01
3.750000e+01
3.750000e+01
3.750000e+01
3.750000e+01
3.750000e+01
3.750000e+01
3.750000e+01
3.750000e+01
3.750000e+01
3.750000e+01
3.750000e+01
3.750000e+01
5.000000e+01
5.000000e+01
5.000000e+01
5.000000e+01
5.000000e+01
5.000000e+01
5.000000e+01
5.000000e+01
5.000000e+01
5.000000e+01
5.000000e+01
5.000000e+01
5.000000e+01
5.000000e+01
5.000000e+01
5.000000e+01
5.000000e+01
6.250000e+01
6.250000e+01
6.250000e+01
6.250000e+01
6.250000e+01
6.250000e+01
6.250000e+01
6.250000e+01
6.250000e+01
6.250000e+01
6.250000e+01
6.250000e+01
6.250000e+01
6.250000e+01
6.250000e+01
6.250000e+01
6.250000e+01
7.500000e+01
7.500000e+01
7.500000e+01
7.500000e+01
7.500000e+01
7.500000e+01
7.500000e+01
7.500000e+01
7.500000e+01
7.500000e+01
7.500000e+01
7.500000e+01
7.500000e+01
7.500000e+01
7.500000e+01
7.500000e+01
7.500000e+01
8.750000e+01
8.750000e+01
8.750000e+01
8.750000e+01
8.750000e+01
8.750000e+01
8.750000e+01
8.750000e+01
8.750000e+01
8.750000e+01
8.750000e+01
8.750000e+01
8.750000e+01
8.750000e+01
8.750000e+01
8.750000e+01
8.750000e+01
1.000000e+02
1.000000e+02
1.000000e+02
1.000000e+02
1.000000e+02
1.000000e+02
1.000000e+02
1.000000e+02
1.000000e+02
1.000000e+02
1.000000e+02
1.000000e+02
1.000000e+02
1.000000e+02
1.000000e+02
1.000000e+02
1.000000e+02
0.000000e+00
-9.957973e-01
-1.679077e+00
-2.431232e+00
-3.117145e+00
-3.750695e+00
-4.458193e+00
-5.087321e+00
-5.763268e+00
-6.405649e+00
-7.055565e+00
-7.723666e+00
-8.376537e+00
-9.146490e+00
-1.007759e+01
-1.083411e+01
-1.128422e+01
0.000000e+00
-4.459090e-01
-9.065396e-01
-1.419025e+00
-1.930627e+00
-2.410773e+00
-2.924869e+00
-3.423032e+00
-3.919068e+00
-4.421461e+00
-4.913974e+00
-5.416976e+00
-5.901850e+00
-6.421435e+00
-6.897796e+00
-7.024148e+00
-7.203035e+00
0.000000e+00
-1.460906e-01
-3.488722e-01
-6.395496e-01
-9.775386e-01
-1.302591e+00
-1.655759e+00
-2.012822e+00
-2.356448e+00
-2.718566e+00
-3.057439e+00
-3.391743e+00
-3.687470e+00
-3.927400e+00
-4.036641e+00
-4.034663e+00
-4.183075e+00
0.000000e+00
-7.898410e-02
-1.621309e-01
-3.096486e-01
-4.548743e-01
-6.282206e-01
-8.138667e-01
-9.790975e-01
-1.166827e+00
-1.328816e+00
-1.489842e+00
-1.628955e+00
-1.722379e+00
-1.730569e+00
-1.656872e+00
-1.635840e+00
-1.752865e+00
0.000000e+00
-3.322380e-03
-7.232936e-03
-1.128749e-02
-1.567623e-02
-1.910754e-02
-1.996891e-02
-1.722170e-02
-8.424657e-03
8.433565e-03
3.281084e-02
7.778543e-02
1.603595e-01
2.753443e-01
3.952062e-01
4.360826e-01
3.379136e-01
0.000000e+00
7.317090e-02
1.504250e-01
2.905744e-01
4.290372e-01
5.956540e-01
7.744285e-01
9.427992e-01
1.148781e+00
1.344137e+00
1.562273e+00
1.782587e+00
2.009197e+00
2.216821e+00
2.352668e+00
2.385540e+00
2.319827e+00
0.000000e+00
1.437208e-01
3.435900e-01
6.305120e-01
9.655691e-01
1.290874e+00
1.643201e+00
1.999662e+00
2.359223e+00
2.764675e+00
3.143936e+00
3.510956e+00
3.843736e+00
4.119568e+00
4.296465e+00
4.351071e+00
4.328400e+00
0.000000e+00
4.465719e-01
9.073136e-01
1.419528e+00
1.930394e+00
2.409172e+00
2.920172e+00
3.415638e+00
3.903389e+00
4.396666e+00
4.874960e+00
5.350091e+00
5.778071e+00
6.125873e+00
6.343088e+00
6.438957e+00
6.456680e+00
0.000000e+00
9.980046e-01
1.684221e+00
2.440110e+00
3.127886e+00
3.762173e+00
4.468527e+00
5.095811e+00
5.747604e+00
6.331625e+00
6.904941e+00
7.505888e+00
8.036051e+00
8.448409e+00
8.649652e+00
8.702359e+00
8.702886e+00
0.000000e+00
-6.187275e-01
-1.361810e+00
-2.363194e+00
-3.537391e+00
-4.881002e+00
-6.412467e+00
-8.098638e+00
-9.959136e+00
-1.198263e+01
-1.416742e+01
-1.651830e+01
-1.903196e+01
-2.176309e+01
-2.472740e+01
-2.808693e+01
-3.310262e+01
0.000000e+00
-4.158492e-01
-1.193457e+00
-2.176999e+00
-3.368321e+00
-4.706840e+00
-6.234958e+00
-7.930007e+00
-9.782857e+00
-1.181505e+01
-1.399514e+01
-1.635057e+01
-1.885909e+01
-2.157042e+01
-2.458719e+01
-2.800318e+01
-3.205308e+01
0.000000e+00
-3.902941e-01
-1.091654e+00
-2.073600e+00
-3.249180e+00
-4.580926e+00
-6.115210e+00
-7.800196e+00
-9.663850e+00
-1.169323e+01
-1.388447e+01
-1.625129e+01
-1.877000e+01
-2.150815e+01
-2.457719e+01
-2.785131e+01
-3.088394e+01
0.000000e+00
-4.492907e-01
-1.088036e+00
-2.047482e+00
-3.186721e+00
-4.511389e+00
-6.053530e+00
-7.723566e+00
-9.606184e+00
-1.163459e+01
-1.384753e+01
-1.623425e+01
-1.877839e+01
-2.151849e+01
-2.450750e+01
-2.754163e+01
-3.016764e+01
0.000000e+00
-4.562343e-01
-1.110433e+00
-2.031887e+00
-3.172426e+00
-4.501671e+00
-6.032056e+00
-7.721825e+00
-9.595984e+00
-1.164665e+01
-1.387420e+01
-1.626799e+01
-1.881955e+01
-2.151961e+01
-2.435701e+01
-2.717505e+01
-2.956313e+01
0.000000e+00
-4.479984e-01
-1.087726e+00
-2.049603e+00
-3.193657e+00
-4.528673e+00
-6.081126e+00
-7.760387e+00
-9.658043e+00
-1.171230e+01
-1.394456e+01
-1.632013e+01
-1.885037e+01
-2.150964e+01
-2.422221e+01
-2.685534e+01
-2.912473e+01
0.000000e+00
-3.885710e-01
-1.091674e+00
-2.078446e+00
-3.262982e+00
-4.610300e+00
-6.161067e+00
-7.869570e+00
-9.763149e+00
-1.182862e+01
-1.403095e+01
-1.638735e+01
-1.888957e+01
-2.150954e+01
-2.413985e+01
-2.664814e+01
-2.889092e+01
0.000000e+00
-4.142551e-01
-1.193559e+00
-2.182709e+00
-3.384567e+00
-4.738134e+00
-6.286142e+00
-8.010586e+00
-9.901749e+00
-1.196592e+01
-1.414596e+01
-1.648583e+01
-1.896680e+01
-2.155111e+01
-2.411931e+01
-2.656060e+01
-2.883042e+01
0.000000e+00
-6.177416e-01
-1.362554e+00
-2.369584e+00
-3.554053e+00
-4.912180e+00
-6.464314e+00
-8.178940e+00
-1.007441e+01
-1.212137e+01
-1.430105e+01
-1.663406e+01
-1.909051e+01
-2.163320e+01
-2.414390e+01
-2.654573e+01
-2.882928e+01


0.000000e+00
1.541916e-05
2.508637e-05
3.749676e-05
5.359208e-05
6.718608e-05
8.319650e-05
9.716438e-05
1.118824e-04
1.257639e-04
1.408981e-04
1.552373e-04
1.717899e-04
1.876069e-04
1.976834e-04
2.034244e-04
2.103585e-04
0.000000e+00
1.145867e-05
1.973736e-05
2.841187e-05
4.099213e-05
5.171982e-05
6.184234e-05
7.295482e-05
8.315474e-05
9.456358e-05
1.052276e-04
1.156186e-04
1.264858e-04
1.358454e-04
1.374503e-04
1.412029e-04
1.470260e-04
0.000000e+00
9.529664e-06
1.502327e-05
2.020397e-05
2.883552e-05
3.552525e-05
4.124817e-05
4.859505e-05
5.456567e-05
6.193479e-05
6.835002e-05
7.403450e-05
7.875518e-05
8.094705e-05
8.020266e-05
8.258160e-05
8.681489e-05
0.000000e+00
5.186330e-06
6.843232e-06
9.618005e-06
1.305385e-05
1.350661e-05
1.584244e-05
1.722523e-05
2.083048e-05
2.426121e-05
2.804669e-05
2.911039e-05
2.854332e-05
2.711672e-05
2.685724e-05
2.989935e-05
3.557085e-05
0.000000e+00
-1.750722e-07
-4.360081e-07
-8.575543e-07
-1.725038e-06
-2.885032e-06
-4.994966e-06
-7.247430e-06
-7.851251e-06
-7.874652e-06
-8.794601e-06
-1.193234e-05
-1.468232e-05
-1.609508e-05
-1.577484e-05
-1.361950e-05
-9.628444e-06
0.000000e+00
-5.450515e-06
-7.433547e-06
-1.074715e-05
-1.465478e-05
-1.606444e-05
-2.049012e-05
-2.427767e-05
-3.021489e-05
-3.335563e-05
-3.747427e-05
-4.219262e-05
-4.732660e-05
-4.909877e-05
-4.964505e-05
-5.011945e-05
-4.838895e-05
0.000000e+00
-9.530399e-06
-1.509002e-05
-2.037206e-05
-2.894476e-05
-3.531856e-05
-4.071809e-05
-4.870120e-05
-5.587589e-05
-6.356730e-05
-6.885315e-05
-7.387504e-05
-7.803877e-05
-8.159004e-05
-8.350066e-05
-8.541987e-05
-8.616746e-05
0.000000e+00
-1.138870e-05
-1.964944e-05
-2.830550e-05
-4.077181e-05
-5.165605e-05
-6.160316e-05
-7.279481e-05
-8.317689e-05
-9.456678e-05
-1.052328e-04
-1.135852e-04
-1.183777e-04
-1.234009e-04
-1.270045e-04
-1.283063e-04
-1.284024e-04
0.000000e+00
-1.542985e-05
-2.502797e-05
-3.734178e-05
-5.338036e-05
-6.701189e-05
-8.288434e-05
-9.591242e-05
-1.099888e-04
-1.233358e-04
-1.410001e-04
-1.568212e-04
-1.665827e-04
-1.717984e-04
-1.740070e-04
-1.742248e-04
-1.740439e-04
0.000000e+00
1.259760e-05
1.999874e-05
3.243784e-05
4.874896e-05
6.687906e-05
9.132767e-05
1.201902e-04
1.535221e-04
1.903016e-04
2.304893e-04
2.745073e-04
3.244404e-04
3.785692e-04
4.400945e-04
5.109341e-04
5.843243e-04
0.000000e+00
7.680042e-06
1.610889e-05
2.633645e-05
4.228546e-05
6.091900e-05
8.486810e-05
1.143173e-04
1.472838e-04
1.841816e-04
2.241525e-04
2.682952e-04
3.178661e-04
3.736245e-04
4.348403e-04
5.035522e-04
5.739699e-04
0.000000e+00
4.326378e-06
1.229372e-05
2.172657e-05
3.646705e-05
5.569596e-05
7.944564e-05
1.097989e-04
1.431313e-04
1.797021e-04
2.195596e-04
2.637527e-04
3.140766e-04
3.712321e-04
4.306921e-04
4.960736e-04
5.642858e-04
0.000000e+00
3.200746e-06
1.059456e-05
2.009004e-05
3.451984e-05
5.203621e-05
7.642359e-05
1.087796e-04
1.436869e-04
1.783009e-04
2.174955e-04
2.621128e-04
3.133168e-04
3.698209e-04
4.279548e-04
4.882372e-04
5.501279e-04
0.000000e+00
2.812729e-06
1.027174e-05
2.004970e-05
3.425387e-05
5.075344e-05
7.529103e-05
1.097918e-04
1.449421e-04
1.782200e-04
2.156934e-04
2.620455e-04
3.135589e-04
3.699519e-04
4.268140e-04
4.818504e-04
5.340006e-04
0.000000e+00
3.343984e-06
1.078580e-05
2.046462e-05
3.486290e-05
5.184760e-05
7.716592e-05
1.107023e-04
1.455648e-04
1.780316e-04
2.160605e-04
2.635404e-04
3.159146e-04
3.702660e-04
4.267207e-04
4.795306e-04
5.229752e-04
0.000000e+00
4.480477e-06
1.252333e-05
2.207066e-05
3.675087e-05
5.577566e-05
8.040985e-05
1.117956e-04
1.448752e-04
1.790924e-04
2.183460e-04
2.667723e-04
3.194115e-04
3.723565e-04
4.258095e-04
4.767869e-04
5.195038e-04
0.000000e+00
7.804789e-06
1.634630e-05
2.663917e-05
4.254502e-05
6.132606e-05
8.583090e-05
1.159856e-04
1.483042e-04
1.833830e-04
2.230043e-04
2.705314e-04
3.224553e-04
3.745564e-04
4.259506e-04
4.747676e-04
5.199679e-04
0.000000e+00
1.271134e-05
2.023594e-05
3.273117e-05
4.908883e-05
6.741302e-05
9.236667e-05
1.216501e-04
1.544708e-04
1.895849e-04
2.302585e-04
2.748894e-04
3.247269e-04
3.757295e-04
4.262632e-04
4.742841e-04
5.202330e-04


5.671928e+00
6.138230e+00
6.867025e+00
5.932088e+00
5.705579e+00
6.510488e+00
6.387518e+00
6.404128e+00
5.954460e+00
5.902022e+00
6.286020e+00
7.152245e+00
8.848833e+00
9.830738e+00
9.151667e+00
8.002652e+00
8.082937e+00
8.460988e+00
8.662368e+00
8.358634e+00
8.222145e+00
8.488483e+00
8.653836e+00
8.419076e+00
8.394204e+00
8.271402e+00
8.418557e+00
8.845869e+00
9.507552e+00
9.843447e+00
8.395803e+00
6.474785e+00
9.843317e+00
9.824110e+00
9.999716e+00
9.838063e+00
9.836624e+00
9.966349e+00
9.836163e+00
9.946458e+00
9.849473e+00
9.881082e+00
9.899160e+00
9.876733e+00
9.894944e+00
9.396331e+00
8.001275e+00
6.192578e+00
9.999859e+00
9.999857e+00
9.999859e+00
9.999854e+00
9.999846e+00
9.999806e+00
9.999736e+00
9.999711e+00
9.999748e+00
9.999767e+00
9.999683e+00
9.482854e+00
8.834097e+00
8.373251e+00
7.992971e+00
7.922215e+00
9.999858e+00
9.999855e+00
9.999855e+00
9.999844e+00
9.999821e+00
9.999737e+00
9.935070e+00
9.963314e+00
9.999278e+00
9.919366e+00
9.359078e+00
8.602100e+00
7.722829e+00
7.757759e+00
8.654948e+00
9.170798e+00
9.843519e+00
9.824074e+00
9.999698e+00
9.837884e+00
9.836368e+00
9.707265e+00
9.306939e+00
9.516771e+00
9.386605e+00
8.873271e+00
8.313830e+00
7.911971e+00
8.228630e+00
8.771660e+00
9.452165e+00
9.999403e+00
8.084061e+00
8.461429e+00
8.661695e+00
8.357150e+00
8.133676e+00
8.027219e+00
7.864987e+00
7.790492e+00
7.884306e+00
7.345318e+00
7.485462e+00
8.502844e+00
9.308136e+00
9.859899e+00
9.999673e+00
9.999819e+00
5.674771e+00
6.138905e+00
6.865685e+00
5.921503e+00
5.659755e+00
6.147040e+00
5.980669e+00
6.466916e+00
6.271175e+00
6.520519e+00
7.868914e+00
9.116365e+00
9.990835e+00
9.999759e+00
9.999839e+00
9.999866e+00


-8.184926e-01
-1.680163e-01
-3.971565e-01
-2.581491e-01
-9.378637e-02
-3.066298e-01
-1.235141e-01
-2.097683e-01
-1.617575e-01
-1.577798e-01
-2.154831e-01
-1.497183e-01
-4.612008e-01
-6.863422e-01
3.156887e-01
-8.468465e-01
6.108539e-01
4.812318e-01
2.953715e-01
2.253210e-01
2.907558e-01
1.679877e-01
1.752989e-01
1.730180e-01
1.098138e-01
1.482048e-01
1.279937e-01
2.413320e-01
3.025649e-01
5.092061e-01
6.952697e-01
-9.343775e-01
7.227863e-01
4.715222e-01
5.646296e-02
-2.220764e-02
-3.664611e-02
-1.883886e-01
-8.033746e-02
-1.379784e-01
-7.742571e-02
-1.899696e-02
3.129623e-02
1.855284e-01
2.781601e-01
1.478143e-01
-2.559722e-02
-1.678868e-01
7.280315e-01
5.563644e-01
1.928220e-01
6.169788e-02
-2.256435e-02
-1.065720e-01
-1.660835e-02
-6.181171e-02
1.320527e-02
1.682727e-02
5.881632e-02
1.181098e-01
5.896929e-02
-2.620079e-01
-3.836339e-01
-7.819446e-02
7.309510e-01
5.602857e-01
2.008018e-01
6.993285e-02
-1.874646e-02
-1.124578e-01
-3.680292e-02
-1.025965e-01
-5.242213e-02
-4.347862e-02
2.179362e-02
1.501751e-02
-3.778065e-02
-1.298417e-01
-1.019691e-01
3.106224e-01
7.296360e-01
4.816647e-01
7.452048e-02
-4.144339e-03
-2.489668e-02
-1.620837e-01
-7.360198e-02
-1.877306e-01
-1.821488e-01
-1.098952e-01
-7.749339e-02
-9.743611e-02
-1.124827e-01
4.451199e-02
3.341669e-01
7.244730e-01
6.149995e-01
4.869462e-01
3.028992e-01
2.303606e-01
2.866715e-01
1.613848e-01
1.525485e-01
1.029456e-01
-5.725923e-02
-4.071026e-02
-9.669568e-02
-5.689344e-02
5.633491e-02
3.641792e-01
7.127667e-01
9.478791e-01
-8.238745e-01
-1.739147e-01
-4.046583e-01
-2.610310e-01
-9.345262e-02
-3.003053e-01
-1.194796e-01
-1.574104e-01
-5.563748e-02
-2.162867e-02
-9.270452e-02
9.977127e-02
3.872486e-01
7.719735e-01
9.529003e-01
9.987357e-01
1 2 19 18
2 3 20 19
3 4 21 20
4 5 22 21
5 6 23 22
6 7 24 23
7 8 25 24
8 9 26 25
9 10 27 26
10 11 28 27
11 12 29 28
12 13 30 29
13 14 31 30
14 15 32 31
15 16 33 32
16 17 34 33
18 19 36 35
19 20 37 36
20 21 38 37
21 22 39 38
22 23 40 39
23 24 41 40
24 25 42 41
25 26 43 42
26 27 44 43
27 28 45 44
28 29 46 45
29 30 47 46
30 31 48 47
31 32 49 48
32 33 50 49
33 34 51 50
35 36 53 52
36 37 54 53
37 38 55 54
38 39 56 55
39 40 57 56
40 41 58 57
41 42 59 58
42 43 60 59
43 44 61 60
44 45 62 61
45 46 63 62
46 47 64 63
47 48 65 64
48 49 66 65
49 50 67 66
50 51 68 67
52 53 70 69
53 54 71 70
54 55 72 71
55 56 73 72
56 57 74 73
57 58 75 74
58 59 76 75
59 60 77 76
60 61 78 77
61 62 79 78
62 63 80 79
63 64 81 80
64 65 82 81
65 66 83 82
66 67 84 83
67 68 85 84
69 70 87 86
70 71 88 87
71 72 89 88
72 73 90 89
73 74 91 90
74 75 92 91
75 76 93 92
76 77 94 93
77 78 95 94
78 79 96 95
79 80 97 96
80 81 98 97
81 82 99 98
82 83 100 99
83 84 101 100
84 85 102 101
86 87 104 103
87 88 105 104
88 89 106 105
89 90 107 106
90 91 108 107
91 92 109 108
92 93 110 109
93 94 111 110
94 95 112 111
95 96 113 112
96 97 114 113
97 98 115 114
98 99 116 115
99 100 117 116
100 101 118 117
101 102 119 118
103 104 121 120
104 105 122 121
105 106 123 122
106 107 124 123
107 108 125 124
108 109 126 125
109 110 127 126
110 111 128 127
111 112 129 128
112 113 130 129
113 114 131 130
114 115 132 131
115 116 133 132
116 117 134 133
117 118 135 134
118 119 136 135
120 121 138 137
121 122 139 138
122 123 140 139
123 124 141 140
124 125 142 141
125 126 143 142
126 127 144 143
127 128 145 144
128 129 146 145
129 130 147 146
130 131 148 147
131 132 149 148
132 133 150 149
133 134 151 150
134 135 152 151
135 136 153 152
