TITLE = "Solution"
VARIABLES = x, y, u, v, psiu, psiv, t, stress
ZONE T="structure" N=153 E=128 F=FEBLOCK ET=QUADRILATERAL VARLOCATION=([7,8]=cellcentered)
0.000000e+00
1.250000e+01
2.500000e+01
3.750000e+01
5.000000e+01
6.250000e+01
7.500000e+01
8.750000e+01
1.000000e+02
1.125000e+02
1.250000e+02
1.375000e+02
1.500000e+02
1.625000e+02
1.750000e+02
1.875000e+02
2.000000e+02
0.000000e+00
1.250000e+01
2.500000e+01
3.750000e+01
5.000000e+01
6.250000e+01
7.500000e+01
8.750000e+01
1.000000e+02
1.125000e+02
1.250000e+02
1.375000e+02
1.500000e+02
1.625000e+02
1.750000e+02
1.875000e+02
2.000000e+02
0.000000e+00
1.250000e+01
2.500000e+01
3.750000e+01
5.000000e+01
6.250000e+01
7.500000e+01
8.750000e+01
1.000000e+02
1.125000e+02
1.250000e+02
1.375000e+02
1.500000e+02
1.625000e+02
1.750000e+02
1.875000e+02
2.000000e+02
0.000000e+00
1.250000e+01
2.500000e+01
3.750000e+01
5.000000e+01
6.250000e+01
7.500000e+01
8.750000e+01
1.000000e+02
1.125000e+02
1.250000e+02
1.375000e+02
1.500000e+02
1.625000e+02
1.750000e+02
1.875000e+02
2.000000e+02
0.000000e+00
1.250000e+01
2.500000e+01
3.750000e+01
5.000000e+01
6.250000e+01
7.500000e+01
8.750000e+01
1.000000e+02
1.125000e+02
1.250000e+02
1.375000e+02
1.500000e+02
1.625000e+02
1.750000e+02
1.875000e+02
2.000000e+02
0.000000e+00
1.250000e+01
2.500000e+01
3.750000e+01
5.000000e+01
6.250000e+01
7.500000e+01
8.750000e+01
1.000000e+02
1.125000e+02
1.250000e+02
1.375000e+02
1.500000e+02
1.625000e+02
1.750000e+02
1.875000e+02
2.000000e+02
0.000000e+00
1.250000e+01
2.500000e+01
3.750000e+01
5.000000e+01
6.250000e+01
7.500000e+01
8.750000e+01
1.000000e+02
1.125000e+02
1.250000e+02
1.375000e+02
1.500000e+02
1.625000e+02
1.750000e+02
1.875000e+02
2.000000e+02
0.000000e+00
1.250000e+01
2.500000e+01
3.750000e+01
5.000000e+01
6.250000e+01
7.500000e+01
8.750000e+01
1.000000e+02
1.125000e+02
1.250000e+02
1.375000e+02
1.500000e+02
1.625000e+02
1.750000e+02
1.875000e+02
2.000000e+02
0.000000e+00
1.250000e+01
2.500000e+01
3.750000e+01
5.000000e+01
6.250000e+01
7.500000e+01
8.750000e+01
1.000000e+02
1.125000e+02
1.250000e+02
1.375000e+02
1.500000e+02
1.625000e+02
1.750000e+02
1.875000e+02
2.000000e+02
0.000000e+00
0.000000e+00
0.000000e+00
0.000000e+00
0.000000e+00
0.000000e+00
0.000000e+00
0.000000e+00
0.000000e+00
0.000000e+00
0.000000e+00
0.000000e+00
0.000000e+00
0.000000e+00
0.000000e+00
0.000000e+00
0.000000e+00
1.250000e+01
1.250000e+01
1.250000e+01
1.250000e+01
1.250000e+01
1.250000e+01
1.250000e+01
1.250000e+01
1.250000e+01
1.250000e+01
1.250000e+01
1.250000e+01
1.250000e+01
1.250000e+01
1.250000e+01
1.250000e+01
1.250000e+01
2.500000e+01
2.500000e+01
2.500000e+01
2.500000e+01
2.500000e+01
2.500000e+01
2.500000e+01
2.500000e+01
2.500000e+01
2.500000e+01
2.500000e+01
2.500000e+01
2.500000e+01
2.500000e+01
2.500000e+01
2.500000e+01
2.500000e+01
3.750000e+01
3.750000e+01
3.750000e+01
3.750000e+01
3.750000e+01
3.750000e+01
3.750000e+01
3.750000e+01
3.750000e+01
3.750000e+01
3.750000e+01
3.750000e+01
3.750000e+01
3.750000e+01
3.750000e+01
3.750000e+01
3.750000e+01
5.000000e+01
5.000000e+01
5.000000e+01
5.000000e+01
5.000000e+01
5.000000e+01
5.000000e+01
5.000000e+01
5.000000e+01
5.000000e+01
5.000000e+01
5.000000e+01
5.000000e+01
5.000000e+01
5.000000e+01
5.000000e+01
5.000000e+01
6.250000e+01
6.250000e+01
6.250000e+01
6.250000e+01
6.250000e+01
6.250000e+01
6.250000e+01
6.250000e+01
6.250000e+01
6.250000e+01
6.250000e+01
6.250000e+01
6.250000e+01
6.250000e+01
6.250000e+01
6.250000e+01
6.250000e+01
7.500000e+01
7.500000e+01
7.500000e+01
7.500000e+01
7.500000e+01
7.500000e+01
7.500000e+01
7.500000e+01
7.500000e+01
7.500000e+01
7.500000e+01
7.500000e+01
7.500000e+01
7.500000e+01
7.500000e+01
7.500000e+01
7.500000e+01
8.750000e+01
8.750000e+01
8.750000e+01
8.750000e+01
8.750000e+01
8.750000e+01
8.750000e+01
8.750000e+01
8.750000e+01
8.750000e+01
8.750000e+01
8.750000e+01
8.750000e+01
8.750000e+01
8.750000e+01
8.750000e+01
8.750000e+01
1.000000e+02
1.000000e+02
1.000000e+02
1.000000e+02
1.000000e+02
1.000000e+02
1.000000e+02
1.000000e+02
1.000000e+02
1.000000e+02
1.000000e+02
1.000000e+02
1.000000e+02
1.000000e+02
1.000000e+02
1.000000e+02
1.000000e+02
0.000000e+00
-9.520958e-01
-1.640461e+00
-2.363216e+00
-3.046073e+00
-3.700589e+00
-4.383159e+00
-5.044395e+00
-5.699348e+00
-6.363895e+00
-7.023099e+00
-7.685769e+00
-8.398128e+00
-9.174007e+00
-9.993306e+00
-1.071523e+01
-1.116748e+01
0.000000e+00
-4.479457e-01
-9.240024e-01
-1.429405e+00
-1.945259e+00
-2.433179e+00
-2.943990e+00
-3.445873e+00
-3.939211e+00
-4.441709e+00
-4.938044e+00
-5.428737e+00
-5.931886e+00
-6.434266e+00
-6.822959e+00
-6.924234e+00
-7.097424e+00
0.000000e+00
-1.780887e-01
-4.073523e-01
-7.090187e-01
-1.049398e+00
-1.378212e+00
-1.728024e+00
-2.074566e+00
-2.417029e+00
-2.762338e+00
-3.096378e+00
-3.409930e+00
-3.687923e+00
-3.894512e+00
-3.967362e+00
-3.951500e+00
-4.102793e+00
0.000000e+00
-8.374754e-02
-1.768671e-01
-3.201757e-01
-4.686223e-01
-6.391659e-01
-8.126120e-01
-9.840465e-01
-1.155256e+00
-1.318759e+00
-1.468667e+00
-1.588898e+00
-1.655615e+00
-1.648379e+00
-1.580082e+00
-1.571486e+00
-1.698474e+00
0.000000e+00
-2.141634e-03
-4.455203e-03
-6.450612e-03
-7.870574e-03
-7.783887e-03
-4.806648e-03
2.525858e-03
1.675988e-02
4.121644e-02
7.970510e-02
1.409572e-01
2.324410e-01
3.503014e-01
4.581290e-01
4.789302e-01
3.759064e-01
0.000000e+00
8.007710e-02
1.696537e-01
3.090286e-01
4.546132e-01
6.248275e-01
8.023909e-01
9.857370e-01
1.181947e+00
1.387817e+00
1.607209e+00
1.833645e+00
2.050328e+00
2.238098e+00
2.364699e+00
2.391761e+00
2.328116e+00
0.000000e+00
1.765368e-01
4.044211e-01
7.040181e-01
1.042038e+00
1.370286e+00
1.720544e+00
2.072167e+00
2.428189e+00
2.794321e+00
3.162770e+00
3.529628e+00
3.859928e+00
4.117327e+00
4.280123e+00
4.334933e+00
4.317238e+00
0.000000e+00
4.477151e-01
9.244889e-01
1.429258e+00
1.943596e+00
2.431667e+00
2.938942e+00
3.435961e+00
3.925493e+00
4.412407e+00
4.889456e+00
5.362653e+00
5.792671e+00
6.119098e+00
6.322169e+00
6.410590e+00
6.426511e+00
0.000000e+00
9.526877e-01
1.643705e+00
2.368067e+00
3.051695e+00
3.709487e+00
4.389981e+00
5.042938e+00
5.687292e+00
6.316028e+00
6.923887e+00
7.520139e+00
8.044258e+00
8.412346e+00
8.601869e+00
8.652324e+00
8.652510e+00
0.000000e+00
-5.925451e-01
-1.286785e+00
-2.214010e+00
-3.310810e+00
-4.576456e+00
-6.023605e+00
-7.635666e+00
-9.419209e+00
-1.137683e+01
-1.350060e+01
-1.579642e+01
-1.828449e+01
-2.098043e+01
-2.391117e+01
-2.727164e+01
-3.226143e+01
0.000000e+00
-3.908628e-01
-1.118778e+00
-2.030987e+00
-3.138694e+00
-4.401312e+00
-5.846917e+00
-7.463568e+00
-9.246118e+00
-1.120432e+01
-1.333105e+01
-1.562485e+01
-1.810439e+01
-2.080548e+01
-2.378410e+01
-2.717888e+01
-3.124622e+01
0.000000e+00
-3.546276e-01
-1.016255e+00
-1.921855e+00
-3.017466e+00
-4.277674e+00
-5.722800e+00
-7.339485e+00
-9.124538e+00
-1.108679e+01
-1.322203e+01
-1.552785e+01
-1.802171e+01
-2.074994e+01
-2.377669e+01
-2.701491e+01
-3.003365e+01
0.000000e+00
-3.945551e-01
-1.002292e+00
-1.883915e+00
-2.951223e+00
-4.209958e+00
-5.653140e+00
-7.269552e+00
-9.061498e+00
-1.103140e+01
-1.318216e+01
-1.551316e+01
-1.802891e+01
-2.075592e+01
-2.371987e+01
-2.669706e+01
-2.927578e+01
0.000000e+00
-4.042100e-01
-1.014245e+00
-1.870927e+00
-2.937079e+00
-4.192445e+00
-5.637315e+00
-7.258441e+00
-9.057435e+00
-1.103668e+01
-1.320043e+01
-1.555121e+01
-1.807283e+01
-2.075963e+01
-2.358035e+01
-2.633863e+01
-2.867303e+01
0.000000e+00
-3.939034e-01
-1.002920e+00
-1.886875e+00
-2.957577e+00
-4.222772e+00
-5.674509e+00
-7.301218e+00
-9.109112e+00
-1.109342e+01
-1.325914e+01
-1.561075e+01
-1.812100e+01
-2.075300e+01
-2.344257e+01
-2.602789e+01
-2.825067e+01
0.000000e+00
-3.538826e-01
-1.017446e+00
-1.926787e+00
-3.028044e+00
-4.299056e+00
-5.758682e+00
-7.393609e+00
-9.204539e+00
-1.119114e+01
-1.334914e+01
-1.568746e+01
-1.817847e+01
-2.076097e+01
-2.335450e+01
-2.582983e+01
-2.804301e+01
0.000000e+00
-3.902687e-01
-1.120001e+00
-2.036187e+00
-3.150502e+00
-4.424731e+00
-5.887064e+00
-7.525010e+00
-9.335285e+00
-1.132092e+01
-1.347219e+01
-1.579564e+01
-1.826437e+01
-2.080548e+01
-2.333252e+01
-2.574428e+01
-2.799020e+01
0.000000e+00
-5.924167e-01
-1.288420e+00
-2.219267e+00
-3.323152e+00
-4.600244e+00
-6.063128e+00
-7.696453e+00
-9.505198e+00
-1.148579e+01
-1.363296e+01
-1.594616e+01
-1.838537e+01
-2.088062e+01
-2.335539e+01
-2.572881e+01
-2.798992e+01


0.000000e+00
1.467554e-05
2.475624e-05
3.681438e-05
5.197219e-05
6.528866e-05
7.929795e-05
9.377760e-05
1.074576e-04
1.218129e-04
1.359447e-04
1.502262e-04
1.653827e-04
1.758135e-04
1.812643e-04
1.853611e-04
1.908887e-04
0.000000e+00
1.082259e-05
1.968627e-05
2.845625e-05
4.086833e-05
5.138737e-05
6.140140e-05
7.240259e-05
8.265624e-05
9.285337e-05
1.026450e-04
1.123533e-04
1.217628e-04
1.262644e-04
1.258843e-04
1.291121e-04
1.344511e-04
0.000000e+00
8.894218e-06
1.507642e-05
2.087488e-05
2.971683e-05
3.666825e-05
4.305420e-05
5.026671e-05
5.657640e-05
6.250806e-05
6.775609e-05
7.225996e-05
7.563907e-05
7.582341e-05
7.509016e-05
7.763358e-05
8.221278e-05
0.000000e+00
4.784947e-06
7.147469e-06
1.077898e-05
1.482569e-05
1.770669e-05
2.120292e-05
2.432958e-05
2.681210e-05
2.910357e-05
3.032697e-05
3.022054e-05
2.914997e-05
2.811681e-05
2.886483e-05
3.224736e-05
3.738702e-05
0.000000e+00
-5.988126e-08
-1.471635e-07
-2.610442e-07
-4.074725e-07
-5.872204e-07
-8.230835e-07
-1.119989e-06
-1.584504e-06
-2.403919e-06
-3.850284e-06
-6.006385e-06
-8.586874e-06
-1.029987e-05
-9.612359e-06
-7.114499e-06
-3.703749e-06
0.000000e+00
-4.879913e-06
-7.380781e-06
-1.120311e-05
-1.549439e-05
-1.871746e-05
-2.250942e-05
-2.607828e-05
-2.910989e-05
-3.185585e-05
-3.434518e-05
-3.681771e-05
-3.944226e-05
-4.139585e-05
-4.274914e-05
-4.323645e-05
-4.238372e-05
0.000000e+00
-8.917734e-06
-1.514240e-05
-2.103364e-05
-3.008439e-05
-3.720686e-05
-4.376306e-05
-5.130338e-05
-5.741575e-05
-6.276540e-05
-6.783024e-05
-7.132271e-05
-7.372195e-05
-7.601450e-05
-7.803819e-05
-7.969139e-05
-8.024248e-05
0.000000e+00
-1.080626e-05
-1.965233e-05
-2.839790e-05
-4.088245e-05
-5.140277e-05
-6.137565e-05
-7.265383e-05
-8.265841e-05
-9.245052e-05
-1.026546e-04
-1.106146e-04
-1.150147e-04
-1.179055e-04
-1.196147e-04
-1.203071e-04
-1.205245e-04
0.000000e+00
-1.469325e-05
-2.472963e-05
-3.666395e-05
-5.169837e-05
-6.485887e-05
-7.852099e-05
-9.290537e-05
-1.064630e-04
-1.206305e-04
-1.364038e-04
-1.498942e-04
-1.586814e-04
-1.625738e-04
-1.633671e-04
-1.629549e-04
-1.626913e-04
0.000000e+00
1.221718e-05
1.981434e-05
3.164947e-05
4.687112e-05
6.344995e-05
8.466037e-05
1.098944e-04
1.383639e-04
1.712447e-04
2.081473e-04
2.498248e-04
2.961180e-04
3.449633e-04
4.015362e-04
4.660652e-04
5.319199e-04
0.000000e+00
7.212010e-06
1.567682e-05
2.566008e-05
4.048720e-05
5.766684e-05
7.850535e-05
1.037765e-04
1.324276e-04
1.652629e-04
2.023382e-04
2.438894e-04
2.911070e-04
3.425153e-04
3.978486e-04
4.595996e-04
5.228010e-04
0.000000e+00
3.791001e-06
1.165232e-05
2.096710e-05
3.511131e-05
5.290953e-05
7.394463e-05
9.907227e-05
1.281210e-04
1.612336e-04
1.983712e-04
2.402384e-04
2.882738e-04
3.417242e-04
3.942719e-04
4.520925e-04
5.127843e-04
0.000000e+00
2.522163e-06
9.520568e-06
1.896660e-05
3.294053e-05
5.088279e-05
7.212184e-05
9.741081e-05
1.266490e-04
1.599110e-04
1.972988e-04
2.389096e-04
2.875824e-04
3.409961e-04
3.917484e-04
4.440102e-04
4.993084e-04
0.000000e+00
2.112246e-06
8.922625e-06
1.844532e-05
3.241449e-05
5.029038e-05
7.157493e-05
9.696449e-05
1.263059e-04
1.596140e-04
1.970400e-04
2.389211e-04
2.876596e-04
3.415613e-04
3.909694e-04
4.378084e-04
4.860731e-04
0.000000e+00
2.589912e-06
9.620132e-06
1.906413e-05
3.301594e-05
5.091207e-05
7.200357e-05
9.724474e-05
1.264965e-04
1.596034e-04
1.974581e-04
2.403754e-04
2.894943e-04
3.421279e-04
3.916410e-04
4.360471e-04
4.781652e-04
0.000000e+00
3.888545e-06
1.181154e-05
2.113075e-05
3.526096e-05
5.293879e-05
7.370906e-05
9.874260e-05
1.275412e-04
1.605203e-04
1.990570e-04
2.433081e-04
2.922726e-04
3.430382e-04
3.912129e-04
4.351321e-04
4.760195e-04
0.000000e+00
7.305428e-06
1.585182e-05
2.588002e-05
4.068574e-05
5.772248e-05
7.833332e-05
1.033435e-04
1.315542e-04
1.643577e-04
2.030935e-04
2.470678e-04
2.946356e-04
3.437347e-04
3.906738e-04
4.345806e-04
4.763571e-04
0.000000e+00
1.231022e-05
1.998122e-05
3.188207e-05
4.709897e-05
6.350692e-05
8.455106e-05
1.095356e-04
1.373986e-04
1.704775e-04
2.091759e-04
2.512089e-04
2.967655e-04
3.441741e-04
3.905470e-04
4.343411e-04
4.766264e-04


3.892844e+00
3.862529e+00
3.975095e+00
3.628674e+00
3.417166e+00
3.602155e+00
3.738820e+00
3.989704e+00
4.385535e+00
4.828836e+00
5.515075e+00
6.641402e+00
7.769771e+00
8.147761e+00
7.233491e+00
6.088148e+00
6.088806e+00
6.045071e+00
6.007559e+00
5.799179e+00
5.607097e+00
5.721989e+00
5.802924e+00
5.934564e+00
6.181526e+00
6.434799e+00
6.821868e+00
7.445930e+00
8.071324e+00
8.002463e+00
6.660014e+00
5.061357e+00
8.164122e+00
8.114153e+00
8.097245e+00
7.947842e+00
7.885841e+00
7.919554e+00
7.922090e+00
7.951021e+00
8.009542e+00
8.054731e+00
8.073184e+00
8.120295e+00
8.155279e+00
7.780825e+00
6.437674e+00
5.045347e+00
8.879805e+00
8.861575e+00
8.848065e+00
8.795828e+00
8.776938e+00
8.772270e+00
8.750293e+00
8.723136e+00
8.675490e+00
8.563737e+00
8.302917e+00
7.878415e+00
7.581096e+00
7.385444e+00
6.902055e+00
6.363572e+00
8.878428e+00
8.858861e+00
8.843189e+00
8.786655e+00
8.763748e+00
8.752825e+00
8.719991e+00
8.675391e+00
8.577593e+00
8.361625e+00
7.938261e+00
7.333197e+00
7.010190e+00
7.231053e+00
7.579127e+00
7.697394e+00
8.156705e+00
8.103305e+00
8.074325e+00
7.906705e+00
7.825736e+00
7.832326e+00
7.802278e+00
7.774624e+00
7.679705e+00
7.542954e+00
7.406355e+00
7.207866e+00
7.258159e+00
7.721862e+00
8.257529e+00
8.526722e+00
6.074307e+00
6.027766e+00
5.975712e+00
5.742061e+00
5.524079e+00
5.600860e+00
5.654946e+00
5.728366e+00
5.840201e+00
6.136651e+00
6.764464e+00
7.428812e+00
7.929722e+00
8.398032e+00
8.737567e+00
8.888533e+00
3.874580e+00
3.850274e+00
3.956000e+00
3.593698e+00
3.368961e+00
3.529734e+00
3.669175e+00
3.929735e+00
4.298990e+00
5.058317e+00
6.368913e+00
7.594356e+00
8.333823e+00
8.729923e+00
8.927625e+00
9.006883e+00


-7.188440e-01
-2.062477e-01
-3.198524e-01
-2.608261e-01
-1.488397e-01
-2.512050e-01
-1.925187e-01
-1.655661e-01
-2.055301e-01
-1.840282e-01
-1.803367e-01
-3.042139e-01
-4.242182e-01
-2.462673e-01
4.012020e-01
-8.181283e-01
5.883797e-01
4.413219e-01
3.108412e-01
2.362254e-01
2.924853e-01
2.096318e-01
2.136137e-01
2.174001e-01
1.788250e-01
1.938641e-01
2.351829e-01
2.871013e-01
4.166228e-01
6.791816e-01
7.209152e-01
-1.094320e+00
7.747158e-01
5.672063e-01
3.085895e-01
2.478100e-01
2.297323e-01
1.765618e-01
1.870321e-01
1.940890e-01
1.983380e-01
2.327407e-01
2.982200e-01
3.846512e-01
4.311519e-01
2.856753e-01
7.109147e-02
-2.469604e-01
7.948673e-01
6.327338e-01
3.763294e-01
2.672308e-01
1.939687e-01
1.640545e-01
1.723795e-01
1.864713e-01
2.075154e-01
2.245169e-01
2.325355e-01
2.152213e-01
8.428757e-02
-2.248036e-01
-2.569230e-01
-2.641340e-02
7.966429e-01
6.347606e-01
3.793138e-01
2.683663e-01
1.892245e-01
1.500930e-01
1.450878e-01
1.357363e-01
1.342501e-01
1.182741e-01
7.424618e-02
2.057368e-02
-8.354545e-02
-2.051946e-01
-6.967446e-02
3.592414e-01
7.787560e-01
5.721973e-01
3.167945e-01
2.546675e-01
2.243107e-01
1.550104e-01
1.363096e-01
8.976547e-02
3.815501e-02
-2.045501e-02
-1.039939e-01
-1.199298e-01
-6.471558e-02
6.589974e-02
3.650915e-01
7.634484e-01
5.912018e-01
4.425191e-01
3.145656e-01
2.404232e-01
2.874086e-01
2.010338e-01
1.865048e-01
1.510263e-01
8.075030e-02
1.791066e-02
-7.792834e-02
-4.574391e-02
1.648019e-01
4.410789e-01
7.427165e-01
9.550580e-01
-7.191856e-01
-2.130546e-01
-3.219860e-01
-2.598265e-01
-1.562945e-01
-2.417213e-01
-1.706910e-01
-1.447109e-01
-1.192705e-01
-7.559736e-02
-6.893656e-02
1.159538e-01
4.895395e-01
7.972859e-01
9.571510e-01
9.989520e-01
1 2 19 18
2 3 20 19
3 4 21 20
4 5 22 21
5 6 23 22
6 7 24 23
7 8 25 24
8 9 26 25
9 10 27 26
10 11 28 27
11 12 29 28
12 13 30 29
13 14 31 30
14 15 32 31
15 16 33 32
16 17 34 33
18 19 36 35
19 20 37 36
20 21 38 37
21 22 39 38
22 23 40 39
23 24 41 40
24 25 42 41
25 26 43 42
26 27 44 43
27 28 45 44
28 29 46 45
29 30 47 46
30 31 48 47
31 32 49 48
32 33 50 49
33 34 51 50
35 36 53 52
36 37 54 53
37 38 55 54
38 39 56 55
39 40 57 56
40 41 58 57
41 42 59 58
42 43 60 59
43 44 61 60
44 45 62 61
45 46 63 62
46 47 64 63
47 48 65 64
48 49 66 65
49 50 67 66
50 51 68 67
52 53 70 69
53 54 71 70
54 55 72 71
55 56 73 72
56 57 74 73
57 58 75 74
58 59 76 75
59 60 77 76
60 61 78 77
61 62 79 78
62 63 80 79
63 64 81 80
64 65 82 81
65 66 83 82
66 67 84 83
67 68 85 84
69 70 87 86
70 71 88 87
71 72 89 88
72 73 90 89
73 74 91 90
74 75 92 91
75 76 93 92
76 77 94 93
77 78 95 94
78 79 96 95
79 80 97 96
80 81 98 97
81 82 99 98
82 83 100 99
83 84 101 100
84 85 102 101
86 87 104 103
87 88 105 104
88 89 106 105
89 90 107 106
90 91 108 107
91 92 109 108
92 93 110 109
93 94 111 110
94 95 112 111
95 96 113 112
96 97 114 113
97 98 115 114
98 99 116 115
99 100 117 116
100 101 118 117
101 102 119 118
103 104 121 120
104 105 122 121
105 106 123 122
106 107 124 123
107 108 125 124
108 109 126 125
109 110 127 126
110 111 128 127
111 112 129 128
112 113 130 129
113 114 131 130
114 115 132 131
115 116 133 132
116 117 134 133
117 118 135 134
118 119 136 135
120 121 138 137
121 122 139 138
122 123 140 139
123 124 141 140
124 125 142 141
125 126 143 142
126 127 144 143
127 128 145 144
128 129 146 145
129 130 147 146
130 131 148 147
131 132 149 148
132 133 150 149
133 134 151 150
134 135 152 151
135 136 153 152
