TITLE = "Solution"
VARIABLES = x, y, u, v, psiu, psiv, t, stress
ZONE T="structure" N=153 E=128 F=FEBLOCK ET=QUADRILATERAL VARLOCATION=([7,8]=cellcentered)
0.000000e+00
1.250000e+01
2.500000e+01
3.750000e+01
5.000000e+01
6.250000e+01
7.500000e+01
8.750000e+01
1.000000e+02
1.125000e+02
1.250000e+02
1.375000e+02
1.500000e+02
1.625000e+02
1.750000e+02
1.875000e+02
2.000000e+02
0.000000e+00
1.250000e+01
2.500000e+01
3.750000e+01
5.000000e+01
6.250000e+01
7.500000e+01
8.750000e+01
1.000000e+02
1.125000e+02
1.250000e+02
1.375000e+02
1.500000e+02
1.625000e+02
1.750000e+02
1.875000e+02
2.000000e+02
0.000000e+00
1.250000e+01
2.500000e+01
3.750000e+01
5.000000e+01
6.250000e+01
7.500000e+01
8.750000e+01
1.000000e+02
1.125000e+02
1.250000e+02
1.375000e+02
1.500000e+02
1.625000e+02
1.750000e+02
1.875000e+02
2.000000e+02
0.000000e+00
1.250000e+01
2.500000e+01
3.750000e+01
5.000000e+01
6.250000e+01
7.500000e+01
8.750000e+01
1.000000e+02
1.125000e+02
1.250000e+02
1.375000e+02
1.500000e+02
1.625000e+02
1.750000e+02
1.875000e+02
2.000000e+02
0.000000e+00
1.250000e+01
2.500000e+01
3.750000e+01
5.000000e+01
6.250000e+01
7.500000e+01
8.750000e+01
1.000000e+02
1.125000e+02
1.250000e+02
1.375000e+02
1.500000e+02
1.625000e+02
1.750000e+02
1.875000e+02
2.000000e+02
0.000000e+00
1.250000e+01
2.500000e+01
3.750000e+01
5.000000e+01
6.250000e+01
7.500000e+01
8.750000e+01
1.000000e+02
1.125000e+02
1.250000e+02
1.375000e+02
1.500000e+02
1.625000e+02
1.750000e+02
1.875000e+02
2.000000e+02
0.000000e+00
1.250000e+01
2.500000e+01
3.750000e+01
5.000000e+01
6.250000e+01
7.500000e+01
8.750000e+01
1.000000e+02
1.125000e+02
1.250000e+02
1.375000e+02
1.500000e+02
1.625000e+02
1.750000e+02
1.875000e+02
2.000000e+02
0.000000e+00
1.250000e+01
2.500000e+01
3.750000e+01
5.000000e+01
6.250000e+01
7.500000e+01
8.750000e+01
1.000000e+02
1.125000e+02
1.250000e+02
1.375000e+02
1.500000e+02
1.625000e+02
1.750000e+02
1.875000e+02
2.000000e+02
0.000000e+00
1.250000e+01
2.500000e+01
3.750000e+01
5.000000e+01
6.250000e+01
7.500000e+01
8.750000e+01
1.000000e+02
1.125000e+02
1.250000e+02
1.375000e+02
1.500000e+02
1.625000e+02
1.750000e+02
1.875000e+02
2.000000e+02
0.000000e+00
0.000000e+00
0.000000e+00
0.000000e+00
0.000000e+00
0.000000e+00
0.000000e+00
0.000000e+00
0.000000e+00
0.000000e+00
0.000000e+00
0.000000e+00
0.000000e+00
0.000000e+00
0.000000e+00
0.000000e+00
0.000000e+00
1.250000e+01
1.250000e+01
1.250000e+01
1.250000e+01
1.250000e+01
1.250000e+01
1.250000e+01
1.250000e+01
1.250000e+01
1.250000e+01
1.250000e+01
1.250000e+01
1.250000e+01
1.250000e+01
1.250000e+01
1.250000e+01
1.250000e+01
2.500000e+01
2.500000e+01
2.500000e+01
2.500000e+01
2.500000e+01
2.500000e+01
2.500000e+01
2.500000e+01
2.500000e+01
2.500000e+01
2.500000e+01
2.500000e+01
2.500000e+01
2.500000e+01
2.500000e+01
2.500000e+01
2.500000e+01
3.750000e+01
3.750000e+01
3.750000e+01
3.750000e+01
3.750000e+01
3.750000e+01
3.750000e+01
3.750000e+01
3.750000e+01
3.750000e+01
3.750000e+01
3.750000e+01
3.750000e+01
3.750000e+01
3.750000e+01
3.750000e+01
3.750000e+01
5.000000e+01
5.000000e+01
5.000000e+01
5.000000e+01
5.000000e+01
5.000000e+01
5.000000e+01
5.000000e+01
5.000000e+01
5.000000e+01
5.000000e+01
5.000000e+01
5.000000e+01
5.000000e+01
5.000000e+01
5.000000e+01
5.000000e+01
6.250000e+01
6.250000e+01
6.250000e+01
6.250000e+01
6.250000e+01
6.250000e+01
6.250000e+01
6.250000e+01
6.250000e+01
6.250000e+01
6.250000e+01
6.250000e+01
6.250000e+01
6.250000e+01
6.250000e+01
6.250000e+01
6.250000e+01
7.500000e+01
7.500000e+01
7.500000e+01
7.500000e+01
7.500000e+01
7.500000e+01
7.500000e+01
7.500000e+01
7.500000e+01
7.500000e+01
7.500000e+01
7.500000e+01
7.500000e+01
7.500000e+01
7.500000e+01
7.500000e+01
7.500000e+01
8.750000e+01
8.750000e+01
8.750000e+01
8.750000e+01
8.750000e+01
8.750000e+01
8.750000e+01
8.750000e+01
8.750000e+01
8.750000e+01
8.750000e+01
8.750000e+01
8.750000e+01
8.750000e+01
8.750000e+01
8.750000e+01
8.750000e+01
1.000000e+02
1.000000e+02
1.000000e+02
1.000000e+02
1.000000e+02
1.000000e+02
1.000000e+02
1.000000e+02
1.000000e+02
1.000000e+02
1.000000e+02
1.000000e+02
1.000000e+02
1.000000e+02
1.000000e+02
1.000000e+02
1.000000e+02
0.000000e+00
-1.461948e-01
-2.691910e-01
-3.823640e-01
-4.877609e-01
-5.851591e-01
-6.743492e-01
-7.552618e-01
-8.280143e-01
-8.929419e-01
-9.506878e-01
-1.002381e+00
-1.049962e+00
-1.096787e+00
-1.148638e+00
-1.212319e+00
-1.260104e+00
0.000000e+00
-8.730458e-02
-1.813584e-01
-2.682116e-01
-3.482311e-01
-4.217208e-01
-4.888329e-01
-5.496571e-01
-6.043028e-01
-6.529381e-01
-6.958100e-01
-7.332274e-01
-7.654289e-01
-7.920830e-01
-8.108837e-01
-8.150045e-01
-8.297784e-01
0.000000e+00
-5.459756e-02
-1.122664e-01
-1.698001e-01
-2.235067e-01
-2.728173e-01
-3.176919e-01
-3.581810e-01
-3.942945e-01
-4.259720e-01
-4.530431e-01
-4.751295e-01
-4.914438e-01
-5.005508e-01
-5.008037e-01
-4.971656e-01
-5.122339e-01
0.000000e+00
-2.635209e-02
-5.424943e-02
-8.232323e-02
-1.091672e-01
-1.338924e-01
-1.563035e-01
-1.763352e-01
-1.938729e-01
-2.086881e-01
-2.204023e-01
-2.284625e-01
-2.322090e-01
-2.313337e-01
-2.277377e-01
-2.287211e-01
-2.399410e-01
0.000000e+00
-2.427873e-05
-5.519272e-05
-8.600521e-05
-1.023590e-04
-7.223783e-05
6.790627e-05
4.321027e-04
1.207432e-03
2.672561e-03
5.191051e-03
9.128128e-03
1.458248e-02
2.074617e-02
2.500387e-02
2.383613e-02
1.640755e-02
0.000000e+00
2.631473e-02
5.416270e-02
8.218451e-02
1.089946e-01
1.337520e-01
1.563579e-01
1.769228e-01
1.956250e-01
2.126814e-01
2.283147e-01
2.426407e-01
2.554106e-01
2.656506e-01
2.716743e-01
2.721521e-01
2.683816e-01
0.000000e+00
5.459143e-02
1.122477e-01
1.697629e-01
2.234486e-01
2.727450e-01
3.176320e-01
3.582004e-01
3.945344e-01
4.266985e-01
4.547204e-01
4.785319e-01
4.978589e-01
5.121480e-01
5.207247e-01
5.235096e-01
5.226303e-01
0.000000e+00
8.734039e-02
1.814363e-01
2.683358e-01
3.483976e-01
4.218991e-01
4.889330e-01
5.494742e-01
6.034305e-01
6.506458e-01
6.908960e-01
7.239029e-01
7.494023e-01
7.673099e-01
7.779922e-01
7.825475e-01
7.833842e-01
0.000000e+00
1.462547e-01
2.693490e-01
3.826599e-01
4.882336e-01
5.858240e-01
6.751424e-01
7.559288e-01
8.279128e-01
8.907202e-01
9.438062e-01
9.864629e-01
1.017990e+00
1.038139e+00
1.047883e+00
1.050288e+00
1.050242e+00
0.000000e+00
-8.849586e-02
-1.737283e-01
-2.841699e-01
-4.197144e-01
-5.801083e-01
-7.635951e-01
-9.681215e-01
-1.191513e+00
-1.431623e+00
-1.686470e+00
-1.954475e+00
-2.234993e+00
-2.529521e+00
-2.845701e+00
-3.207469e+00
-3.727268e+00
0.000000e+00
-5.447973e-02
-1.433911e-01
-2.552019e-01
-3.929614e-01
-5.555439e-01
-7.412535e-01
-9.479865e-01
-1.173543e+00
-1.415738e+00
-1.672534e+00
-1.942282e+00
-2.224235e+00
-2.519852e+00
-2.835908e+00
-3.195482e+00
-3.635998e+00
0.000000e+00
-4.110993e-02
-1.223598e-01
-2.345832e-01
-3.736449e-01
-5.379008e-01
-7.253172e-01
-9.337703e-01
-1.161075e+00
-1.405078e+00
-1.663780e+00
-1.935590e+00
-2.219830e+00
-2.517720e+00
-2.834048e+00
-3.174756e+00
-3.504489e+00
0.000000e+00
-3.542584e-02
-1.119032e-01
-2.224806e-01
-3.620449e-01
-5.273117e-01
-7.158966e-01
-9.255947e-01
-1.154262e+00
-1.399804e+00
-1.660265e+00
-1.934022e+00
-2.220077e+00
-2.518296e+00
-2.828296e+00
-3.141358e+00
-3.429759e+00
0.000000e+00
-3.378840e-02
-1.087386e-01
-2.186198e-01
-3.582221e-01
-5.239001e-01
-7.130272e-01
-9.234004e-01
-1.152917e+00
-1.399515e+00
-1.661197e+00
-1.936082e+00
-2.222392e+00
-2.518015e+00
-2.818528e+00
-3.113652e+00
-3.385533e+00
0.000000e+00
-3.540481e-02
-1.118883e-01
-2.225073e-01
-3.621758e-01
-5.276564e-01
-7.166337e-01
-9.269909e-01
-1.156669e+00
-1.403598e+00
-1.665649e+00
-1.940547e+00
-2.225631e+00
-2.517274e+00
-2.809873e+00
-3.094877e+00
-3.360955e+00
0.000000e+00
-4.107563e-02
-1.223350e-01
-2.346276e-01
-3.738654e-01
-5.384838e-01
-7.265671e-01
-9.361410e-01
-1.165168e+00
-1.411541e+00
-1.672989e+00
-1.946885e+00
-2.229931e+00
-2.517752e+00
-2.804679e+00
-3.084213e+00
-3.350115e+00
0.000000e+00
-5.444757e-02
-1.433695e-01
-2.552610e-01
-3.932261e-01
-5.562295e-01
-7.427084e-01
-9.507266e-01
-1.178244e+00
-1.423116e+00
-1.682979e+00
-1.955017e+00
-2.235651e+00
-2.520268e+00
-2.803378e+00
-3.079804e+00
-3.347570e+00
0.000000e+00
-8.848257e-02
-1.737301e-01
-2.842612e-01
-4.200212e-01
-5.808410e-01
-7.650838e-01
-9.708378e-01
-1.196041e+00
-1.438511e+00
-1.695827e+00
-1.965113e+00
-2.242762e+00
-2.524265e+00
-2.804484e+00
-3.078997e+00
-3.347610e+00


0.000000e+00
7.507557e-09
1.552424e-08
2.261280e-08
2.858428e-08
3.342310e-08
3.722337e-08
4.013141e-08
4.230125e-08
4.387999e-08
4.500193e-08
4.578746e-08
4.634623e-08
4.677983e-08
4.718363e-08
4.768320e-08
4.828382e-08
0.000000e+00
5.115042e-09
1.204291e-08
1.767314e-08
2.217525e-08
2.572247e-08
2.845328e-08
3.050706e-08
3.201182e-08
3.308100e-08
3.381252e-08
3.428719e-08
3.456584e-08
3.470259e-08
3.484142e-08
3.524981e-08
3.586817e-08
0.000000e+00
3.807655e-09
8.361272e-09
1.215819e-08
1.520103e-08
1.754372e-08
1.930231e-08
2.059160e-08
2.150893e-08
2.213443e-08
2.253350e-08
2.275947e-08
2.285974e-08
2.289836e-08
2.299639e-08
2.331686e-08
2.381746e-08
0.000000e+00
2.035563e-09
4.165634e-09
6.064950e-09
7.615469e-09
8.797840e-09
9.668756e-09
1.029244e-08
1.072198e-08
1.099952e-08
1.116018e-08
1.123700e-08
1.126814e-08
1.130245e-08
1.138902e-08
1.158368e-08
1.189146e-08
0.000000e+00
-2.238572e-12
-5.237635e-12
-9.383467e-12
-1.532624e-11
-2.394679e-11
-3.638431e-11
-5.395354e-11
-7.778135e-11
-1.079267e-10
-1.417306e-10
-1.713920e-10
-1.828434e-10
-1.622800e-10
-1.089819e-10
-1.525411e-11
1.449137e-10
0.000000e+00
-2.039419e-09
-4.174523e-09
-6.080823e-09
-7.641067e-09
-8.837105e-09
-9.727202e-09
-1.037746e-08
-1.084284e-08
-1.116655e-08
-1.138192e-08
-1.151402e-08
-1.158191e-08
-1.160426e-08
-1.160300e-08
-1.157989e-08
-1.151152e-08
0.000000e+00
-3.809673e-09
-8.366790e-09
-1.216836e-08
-1.521715e-08
-1.756717e-08
-1.933450e-08
-2.063392e-08
-2.156311e-08
-2.220348e-08
-2.262358e-08
-2.288205e-08
-2.302932e-08
-2.310816e-08
-2.315056e-08
-2.316510e-08
-2.314587e-08
0.000000e+00
-5.115789e-09
-1.204648e-08
-1.767944e-08
-2.218404e-08
-2.573283e-08
-2.846300e-08
-3.051219e-08
-3.200670e-08
-3.305931e-08
-3.377008e-08
-3.422703e-08
-3.450573e-08
-3.466754e-08
-3.475668e-08
-3.479729e-08
-3.480297e-08
0.000000e+00
-7.510888e-09
-1.552974e-08
-2.261905e-08
-2.858948e-08
-3.342410e-08
-3.721514e-08
-4.010662e-08
-4.225014e-08
-4.379059e-08
-4.485977e-08
-4.557321e-08
-4.602762e-08
-4.629903e-08
-4.644229e-08
-4.649712e-08
-4.650660e-08
0.000000e+00
6.821336e-09
1.224618e-08
1.793227e-08
2.475711e-08
3.278993e-08
4.186632e-08
5.177274e-08
6.230502e-08
7.329519e-08
8.461467e-08
9.617547e-08
1.079418e-07
1.199895e-07
1.326398e-07
1.460591e-07
1.596500e-07
0.000000e+00
3.664217e-09
8.969565e-09
1.504693e-08
2.239659e-08
3.093259e-08
4.044933e-08
5.071918e-08
6.154347e-08
7.276191e-08
8.425441e-08
9.594117e-08
1.077891e-07
1.198342e-07
1.322301e-07
1.452786e-07
1.586508e-07
0.000000e+00
1.804858e-09
6.400237e-09
1.279521e-08
2.057364e-08
2.952349e-08
3.939013e-08
4.994384e-08
6.099370e-08
7.238853e-08
8.401613e-08
9.580234e-08
1.077081e-07
1.197124e-07
1.318294e-07
1.444497e-07
1.574660e-07
0.000000e+00
1.028361e-09
5.190476e-09
1.161609e-08
1.961717e-08
2.879431e-08
3.885113e-08
4.955618e-08
6.072539e-08
7.221405e-08
8.391364e-08
9.574852e-08
1.076664e-07
1.196149e-07
1.315810e-07
1.438611e-07
1.564300e-07
0.000000e+00
8.319458e-10
4.861188e-09
1.125903e-08
1.932287e-08
2.857203e-08
3.868994e-08
4.944397e-08
6.065279e-08
7.217357e-08
8.389694e-08
9.574238e-08
1.076488e-07
1.195622e-07
1.314645e-07
1.435254e-07
1.556934e-07
0.000000e+00
1.029732e-09
5.192365e-09
1.161865e-08
1.962080e-08
2.880010e-08
3.886099e-08
4.957281e-08
6.075167e-08
7.225133e-08
8.395828e-08
9.578648e-08
1.076707e-07
1.195611e-07
1.314381e-07
1.433637e-07
1.552697e-07
0.000000e+00
1.807032e-09
6.403660e-09
1.280027e-08
2.058113e-08
2.953554e-08
3.941027e-08
4.997705e-08
6.104529e-08
7.246152e-08
8.410555e-08
9.588532e-08
1.077315e-07
1.195942e-07
1.314467e-07
1.432922e-07
1.550720e-07
0.000000e+00
3.667293e-09
8.975300e-09
1.505540e-08
2.240881e-08
3.095102e-08
4.047790e-08
5.076329e-08
6.160890e-08
7.285213e-08
8.436476e-08
9.604769e-08
1.078256e-07
1.196436e-07
1.314650e-07
1.432649e-07
1.550060e-07
0.000000e+00
6.826302e-09
1.225467e-08
1.794413e-08
2.477321e-08
3.281213e-08
4.189770e-08
5.181735e-08
6.236715e-08
7.337698e-08
8.471083e-08
9.626212e-08
1.079483e-07
1.197066e-07
1.314908e-07
1.432631e-07
1.549959e-07


4.271636e-01
4.271636e-01
4.271670e-01
4.271730e-01
4.271784e-01
4.271828e-01
4.271862e-01
4.271887e-01
4.271906e-01
4.271919e-01
4.271927e-01
4.271932e-01
4.271934e-01
4.271929e-01
4.271919e-01
4.271911e-01
4.271698e-01
4.271697e-01
4.271723e-01
4.271771e-01
4.271815e-01
4.271850e-01
4.271877e-01
4.271898e-01
4.271913e-01
4.271923e-01
4.271929e-01
4.271933e-01
4.271934e-01
4.271929e-01
4.271919e-01
4.271912e-01
4.271802e-01
4.271800e-01
4.271814e-01
4.271841e-01
4.271866e-01
4.271887e-01
4.271903e-01
4.271915e-01
4.271923e-01
4.271929e-01
4.271933e-01
4.271935e-01
4.271935e-01
4.271931e-01
4.271923e-01
4.271917e-01
4.271876e-01
4.271874e-01
4.271879e-01
4.271891e-01
4.271903e-01
4.271913e-01
4.271921e-01
4.271926e-01
4.271930e-01
4.271933e-01
4.271935e-01
4.271936e-01
4.271935e-01
4.271933e-01
4.271929e-01
4.271925e-01
4.271876e-01
4.271874e-01
4.271879e-01
4.271891e-01
4.271903e-01
4.271913e-01
4.271920e-01
4.271926e-01
4.271930e-01
4.271933e-01
4.271934e-01
4.271935e-01
4.271936e-01
4.271935e-01
4.271934e-01
4.271933e-01
4.271802e-01
4.271799e-01
4.271813e-01
4.271841e-01
4.271866e-01
4.271887e-01
4.271903e-01
4.271914e-01
4.271923e-01
4.271928e-01
4.271932e-01
4.271934e-01
4.271936e-01
4.271937e-01
4.271937e-01
4.271937e-01
4.271698e-01
4.271697e-01
4.271723e-01
4.271770e-01
4.271814e-01
4.271850e-01
4.271877e-01
4.271897e-01
4.271912e-01
4.271922e-01
4.271929e-01
4.271933e-01
4.271936e-01
4.271938e-01
4.271938e-01
4.271939e-01
4.271636e-01
4.271636e-01
4.271670e-01
4.271730e-01
4.271784e-01
4.271828e-01
4.271862e-01
4.271887e-01
4.271906e-01
4.271919e-01
4.271928e-01
4.271933e-01
4.271936e-01
4.271938e-01
4.271939e-01
4.271939e-01


9.519147e-01
9.587335e-01
9.650410e-01
9.698962e-01
9.744031e-01
9.785591e-01
9.823456e-01
9.857182e-01
9.886414e-01
9.910863e-01
9.930304e-01
9.944545e-01
9.953398e-01
9.956556e-01
9.958836e-01
9.818294e-01
9.818085e-01
9.786836e-01
9.806938e-01
9.833174e-01
9.857635e-01
9.879868e-01
9.899996e-01
9.918227e-01
9.934734e-01
9.949687e-01
9.963255e-01
9.975541e-01
9.986259e-01
9.993278e-01
9.975529e-01
9.734949e-01
9.936793e-01
9.918845e-01
9.913998e-01
9.920812e-01
9.929777e-01
9.938460e-01
9.946523e-01
9.954142e-01
9.961522e-01
9.968718e-01
9.975438e-01
9.980642e-01
9.981727e-01
9.972358e-01
9.938364e-01
9.877225e-01
9.987136e-01
9.974046e-01
9.965959e-01
9.963907e-01
9.964726e-01
9.966100e-01
9.967472e-01
9.968813e-01
9.970130e-01
9.971231e-01
9.971538e-01
9.969900e-01
9.964702e-01
9.955373e-01
9.947462e-01
9.945459e-01
9.987184e-01
9.974114e-01
9.966020e-01
9.963895e-01
9.964522e-01
9.965513e-01
9.966201e-01
9.966432e-01
9.966116e-01
9.965102e-01
9.963215e-01
9.960495e-01
9.957905e-01
9.958420e-01
9.965741e-01
9.978415e-01
9.936883e-01
9.918982e-01
9.914129e-01
9.920813e-01
9.929428e-01
9.937386e-01
9.944118e-01
9.949530e-01
9.953583e-01
9.956312e-01
9.958038e-01
9.959725e-01
9.963270e-01
9.970701e-01
9.981863e-01
9.993404e-01
9.818068e-01
9.786824e-01
9.806910e-01
9.833099e-01
9.857443e-01
9.879431e-01
9.899089e-01
9.916496e-01
9.931664e-01
9.944630e-01
9.955606e-01
9.965193e-01
9.974425e-01
9.984103e-01
9.993154e-01
9.998854e-01
9.518819e-01
9.586822e-01
9.649781e-01
9.698256e-01
9.743397e-01
9.785361e-01
9.824238e-01
9.859938e-01
9.892467e-01
9.921762e-01
9.947473e-01
9.968803e-01
9.984671e-01
9.994461e-01
9.998914e-01
9.999977e-01
1 2 19 18
2 3 20 19
3 4 21 20
4 5 22 21
5 6 23 22
6 7 24 23
7 8 25 24
8 9 26 25
9 10 27 26
10 11 28 27
11 12 29 28
12 13 30 29
13 14 31 30
14 15 32 31
15 16 33 32
16 17 34 33
18 19 36 35
19 20 37 36
20 21 38 37
21 22 39 38
22 23 40 39
23 24 41 40
24 25 42 41
25 26 43 42
26 27 44 43
27 28 45 44
28 29 46 45
29 30 47 46
30 31 48 47
31 32 49 48
32 33 50 49
33 34 51 50
35 36 53 52
36 37 54 53
37 38 55 54
38 39 56 55
39 40 57 56
40 41 58 57
41 42 59 58
42 43 60 59
43 44 61 60
44 45 62 61
45 46 63 62
46 47 64 63
47 48 65 64
48 49 66 65
49 50 67 66
50 51 68 67
52 53 70 69
53 54 71 70
54 55 72 71
55 56 73 72
56 57 74 73
57 58 75 74
58 59 76 75
59 60 77 76
60 61 78 77
61 62 79 78
62 63 80 79
63 64 81 80
64 65 82 81
65 66 83 82
66 67 84 83
67 68 85 84
69 70 87 86
70 71 88 87
71 72 89 88
72 73 90 89
73 74 91 90
74 75 92 91
75 76 93 92
76 77 94 93
77 78 95 94
78 79 96 95
79 80 97 96
80 81 98 97
81 82 99 98
82 83 100 99
83 84 101 100
84 85 102 101
86 87 104 103
87 88 105 104
88 89 106 105
89 90 107 106
90 91 108 107
91 92 109 108
92 93 110 109
93 94 111 110
94 95 112 111
95 96 113 112
96 97 114 113
97 98 115 114
98 99 116 115
99 100 117 116
100 101 118 117
101 102 119 118
103 104 121 120
104 105 122 121
105 106 123 122
106 107 124 123
107 108 125 124
108 109 126 125
109 110 127 126
110 111 128 127
111 112 129 128
112 113 130 129
113 114 131 130
114 115 132 131
115 116 133 132
116 117 134 133
117 118 135 134
118 119 136 135
120 121 138 137
121 122 139 138
122 123 140 139
123 124 141 140
124 125 142 141
125 126 143 142
126 127 144 143
127 128 145 144
128 129 146 145
129 130 147 146
130 131 148 147
131 132 149 148
132 133 150 149
133 134 151 150
134 135 152 151
135 136 153 152
