TITLE = "Solution"
VARIABLES = x, y, u, v, psiu, psiv, t, stress
ZONE T="structure" N=153 E=128 F=FEBLOCK ET=QUADRILATERAL VARLOCATION=([7,8]=cellcentered)
0.000000e+00
1.250000e+01
2.500000e+01
3.750000e+01
5.000000e+01
6.250000e+01
7.500000e+01
8.750000e+01
1.000000e+02
1.125000e+02
1.250000e+02
1.375000e+02
1.500000e+02
1.625000e+02
1.750000e+02
1.875000e+02
2.000000e+02
0.000000e+00
1.250000e+01
2.500000e+01
3.750000e+01
5.000000e+01
6.250000e+01
7.500000e+01
8.750000e+01
1.000000e+02
1.125000e+02
1.250000e+02
1.375000e+02
1.500000e+02
1.625000e+02
1.750000e+02
1.875000e+02
2.000000e+02
0.000000e+00
1.250000e+01
2.500000e+01
3.750000e+01
5.000000e+01
6.250000e+01
7.500000e+01
8.750000e+01
1.000000e+02
1.125000e+02
1.250000e+02
1.375000e+02
1.500000e+02
1.625000e+02
1.750000e+02
1.875000e+02
2.000000e+02
0.000000e+00
1.250000e+01
2.500000e+01
3.750000e+01
5.000000e+01
6.250000e+01
7.500000e+01
8.750000e+01
1.000000e+02
1.125000e+02
1.250000e+02
1.375000e+02
1.500000e+02
1.625000e+02
1.750000e+02
1.875000e+02
2.000000e+02
0.000000e+00
1.250000e+01
2.500000e+01
3.750000e+01
5.000000e+01
6.250000e+01
7.500000e+01
8.750000e+01
1.000000e+02
1.125000e+02
1.250000e+02
1.375000e+02
1.500000e+02
1.625000e+02
1.750000e+02
1.875000e+02
2.000000e+02
0.000000e+00
1.250000e+01
2.500000e+01
3.750000e+01
5.000000e+01
6.250000e+01
7.500000e+01
8.750000e+01
1.000000e+02
1.125000e+02
1.250000e+02
1.375000e+02
1.500000e+02
1.625000e+02
1.750000e+02
1.875000e+02
2.000000e+02
0.000000e+00
1.250000e+01
2.500000e+01
3.750000e+01
5.000000e+01
6.250000e+01
7.500000e+01
8.750000e+01
1.000000e+02
1.125000e+02
1.250000e+02
1.375000e+02
1.500000e+02
1.625000e+02
1.750000e+02
1.875000e+02
2.000000e+02
0.000000e+00
1.250000e+01
2.500000e+01
3.750000e+01
5.000000e+01
6.250000e+01
7.500000e+01
8.750000e+01
1.000000e+02
1.125000e+02
1.250000e+02
1.375000e+02
1.500000e+02
1.625000e+02
1.750000e+02
1.875000e+02
2.000000e+02
0.000000e+00
1.250000e+01
2.500000e+01
3.750000e+01
5.000000e+01
6.250000e+01
7.500000e+01
8.750000e+01
1.000000e+02
1.125000e+02
1.250000e+02
1.375000e+02
1.500000e+02
1.625000e+02
1.750000e+02
1.875000e+02
2.000000e+02
0.000000e+00
0.000000e+00
0.000000e+00
0.000000e+00
0.000000e+00
0.000000e+00
0.000000e+00
0.000000e+00
0.000000e+00
0.000000e+00
0.000000e+00
0.000000e+00
0.000000e+00
0.000000e+00
0.000000e+00
0.000000e+00
0.000000e+00
1.250000e+01
1.250000e+01
1.250000e+01
1.250000e+01
1.250000e+01
1.250000e+01
1.250000e+01
1.250000e+01
1.250000e+01
1.250000e+01
1.250000e+01
1.250000e+01
1.250000e+01
1.250000e+01
1.250000e+01
1.250000e+01
1.250000e+01
2.500000e+01
2.500000e+01
2.500000e+01
2.500000e+01
2.500000e+01
2.500000e+01
2.500000e+01
2.500000e+01
2.500000e+01
2.500000e+01
2.500000e+01
2.500000e+01
2.500000e+01
2.500000e+01
2.500000e+01
2.500000e+01
2.500000e+01
3.750000e+01
3.750000e+01
3.750000e+01
3.750000e+01
3.750000e+01
3.750000e+01
3.750000e+01
3.750000e+01
3.750000e+01
3.750000e+01
3.750000e+01
3.750000e+01
3.750000e+01
3.750000e+01
3.750000e+01
3.750000e+01
3.750000e+01
5.000000e+01
5.000000e+01
5.000000e+01
5.000000e+01
5.000000e+01
5.000000e+01
5.000000e+01
5.000000e+01
5.000000e+01
5.000000e+01
5.000000e+01
5.000000e+01
5.000000e+01
5.000000e+01
5.000000e+01
5.000000e+01
5.000000e+01
6.250000e+01
6.250000e+01
6.250000e+01
6.250000e+01
6.250000e+01
6.250000e+01
6.250000e+01
6.250000e+01
6.250000e+01
6.250000e+01
6.250000e+01
6.250000e+01
6.250000e+01
6.250000e+01
6.250000e+01
6.250000e+01
6.250000e+01
7.500000e+01
7.500000e+01
7.500000e+01
7.500000e+01
7.500000e+01
7.500000e+01
7.500000e+01
7.500000e+01
7.500000e+01
7.500000e+01
7.500000e+01
7.500000e+01
7.500000e+01
7.500000e+01
7.500000e+01
7.500000e+01
7.500000e+01
8.750000e+01
8.750000e+01
8.750000e+01
8.750000e+01
8.750000e+01
8.750000e+01
8.750000e+01
8.750000e+01
8.750000e+01
8.750000e+01
8.750000e+01
8.750000e+01
8.750000e+01
8.750000e+01
8.750000e+01
8.750000e+01
8.750000e+01
1.000000e+02
1.000000e+02
1.000000e+02
1.000000e+02
1.000000e+02
1.000000e+02
1.000000e+02
1.000000e+02
1.000000e+02
1.000000e+02
1.000000e+02
1.000000e+02
1.000000e+02
1.000000e+02
1.000000e+02
1.000000e+02
1.000000e+02
0.000000e+00
-8.715755e-01
-1.555509e+00
-2.232517e+00
-2.917912e+00
-3.579327e+00
-4.242131e+00
-4.907196e+00
-5.565298e+00
-6.222444e+00
-6.884159e+00
-7.544593e+00
-8.193577e+00
-8.831384e+00
-9.467411e+00
-1.011110e+01
-1.054373e+01
0.000000e+00
-4.582852e-01
-9.510306e-01
-1.448546e+00
-1.961695e+00
-2.456957e+00
-2.952379e+00
-3.449736e+00
-3.940988e+00
-4.428905e+00
-4.915367e+00
-5.391257e+00
-5.837670e+00
-6.224799e+00
-6.488936e+00
-6.550684e+00
-6.701433e+00
0.000000e+00
-2.375052e-01
-5.082265e-01
-8.253157e-01
-1.162368e+00
-1.494935e+00
-1.830441e+00
-2.165939e+00
-2.495844e+00
-2.818247e+00
-3.127125e+00
-3.407859e+00
-3.636909e+00
-3.781234e+00
-3.806994e+00
-3.777238e+00
-3.929725e+00
0.000000e+00
-1.018873e-01
-2.206895e-01
-3.690550e-01
-5.305155e-01
-6.981060e-01
-8.677824e-01
-1.035333e+00
-1.197228e+00
-1.348310e+00
-1.479622e+00
-1.577755e+00
-1.626496e+00
-1.614103e+00
-1.561870e+00
-1.565974e+00
-1.692937e+00
0.000000e+00
-8.361559e-04
-1.667717e-03
-2.316454e-03
-2.479510e-03
-1.629071e-03
1.160456e-03
7.357524e-03
1.926710e-02
4.064454e-02
7.705426e-02
1.347935e-01
2.169586e-01
3.137400e-01
3.869473e-01
3.837142e-01
2.890376e-01
0.000000e+00
1.004511e-01
2.178104e-01
3.649302e-01
5.258454e-01
6.944859e-01
8.682915e-01
1.045424e+00
1.226216e+00
1.411620e+00
1.601229e+00
1.791594e+00
1.973606e+00
2.127870e+00
2.224301e+00
2.238614e+00
2.187211e+00
0.000000e+00
2.367434e-01
5.066273e-01
8.227793e-01
1.158959e+00
1.491264e+00
1.827548e+00
2.165555e+00
2.501897e+00
2.837582e+00
3.167792e+00
3.477951e+00
3.747971e+00
3.956762e+00
4.085772e+00
4.129192e+00
4.117367e+00
0.000000e+00
4.583328e-01
9.510642e-01
1.448331e+00
1.960870e+00
2.455345e+00
2.949023e+00
3.442346e+00
3.927805e+00
4.407465e+00
4.873772e+00
5.299712e+00
5.652509e+00
5.909939e+00
6.066374e+00
6.133553e+00
6.146049e+00
0.000000e+00
8.722478e-01
1.557108e+00
2.235098e+00
2.921316e+00
3.583466e+00
4.245793e+00
4.907108e+00
5.557992e+00
6.200531e+00
6.819817e+00
7.372032e+00
7.806859e+00
8.093457e+00
8.233218e+00
8.266949e+00
8.265797e+00
0.000000e+00
-5.387440e-01
-1.129019e+00
-1.912820e+00
-2.865142e+00
-3.984368e+00
-5.279801e+00
-6.749091e+00
-8.390724e+00
-1.020730e+01
-1.219899e+01
-1.436218e+01
-1.669423e+01
-1.920250e+01
-2.194349e+01
-2.512966e+01
-2.981172e+01
0.000000e+00
-3.440686e-01
-9.613997e-01
-1.735137e+00
-2.689622e+00
-3.811482e+00
-5.106178e+00
-6.576537e+00
-8.220055e+00
-1.003737e+01
-1.203071e+01
-1.419946e+01
-1.654227e+01
-1.907100e+01
-2.183677e+01
-2.502503e+01
-2.892622e+01
0.000000e+00
-2.891390e-01
-8.528080e-01
-1.618405e+00
-2.567508e+00
-3.688728e+00
-4.984061e+00
-6.456176e+00
-8.103008e+00
-9.925640e+00
-1.192768e+01
-1.411043e+01
-1.647521e+01
-1.903627e+01
-2.182396e+01
-2.483875e+01
-2.768910e+01
0.000000e+00
-2.930996e-01
-8.164410e-01
-1.560524e+00
-2.498999e+00
-3.617407e+00
-4.914076e+00
-6.389108e+00
-8.041760e+00
-9.874484e+00
-1.189118e+01
-1.409252e+01
-1.647661e+01
-1.904294e+01
-2.176699e+01
-2.450119e+01
-2.690970e+01
0.000000e+00
-2.991835e-01
-8.119128e-01
-1.545583e+00
-2.479008e+00
-3.596833e+00
-4.895877e+00
-6.374882e+00
-8.034142e+00
-9.877308e+00
-1.190787e+01
-1.412287e+01
-1.650982e+01
-1.904194e+01
-2.164740e+01
-2.416951e+01
-2.636057e+01
0.000000e+00
-2.929880e-01
-8.168629e-01
-1.562192e+00
-2.502830e+00
-3.624821e+00
-4.927066e+00
-6.409965e+00
-8.073814e+00
-9.923188e+00
-1.196153e+01
-1.418065e+01
-1.655438e+01
-1.903297e+01
-2.153006e+01
-2.391482e+01
-2.602004e+01
0.000000e+00
-2.889314e-01
-8.534403e-01
-1.621007e+00
-2.573605e+00
-3.700650e+00
-5.005122e+00
-6.490286e+00
-8.155834e+00
-1.000651e+01
-1.204552e+01
-1.425971e+01
-1.661173e+01
-1.903912e+01
-2.145548e+01
-2.376152e+01
-2.586478e+01
0.000000e+00
-3.438655e-01
-9.620722e-01
-1.737953e+00
-2.696370e+00
-3.824755e+00
-5.129608e+00
-6.614730e+00
-8.279741e+00
-1.012879e+01
-1.216269e+01
-1.436387e+01
-1.668971e+01
-1.907437e+01
-2.143591e+01
-2.369681e+01
-2.582897e+01
0.000000e+00
-5.387225e-01
-1.129855e+00
-1.915787e+00
-2.872077e+00
-3.997820e+00
-5.303024e+00
-6.786617e+00
-8.449432e+00
-1.029547e+01
-1.231938e+01
-1.449809e+01
-1.678916e+01
-1.913156e+01
-2.145154e+01
-2.368475e+01
-2.583003e+01


0.000000e+00
1.253964e-05
2.310796e-05
3.397765e-05
4.666710e-05
5.887110e-05
7.029981e-05
8.151596e-05
9.229358e-05
1.022390e-04
1.107826e-04
1.171985e-04
1.215188e-04
1.246402e-04
1.272494e-04
1.302734e-04
1.338221e-04
0.000000e+00
9.244514e-06
1.863717e-05
2.673090e-05
3.666007e-05
4.613192e-05
5.459173e-05
6.293091e-05
7.102114e-05
7.834734e-05
8.435384e-05
8.838801e-05
9.034397e-05
9.070547e-05
9.085844e-05
9.332877e-05
9.742827e-05
0.000000e+00
7.160280e-06
1.364637e-05
1.921685e-05
2.592224e-05
3.214011e-05
3.771479e-05
4.314065e-05
4.822561e-05
5.262080e-05
5.599643e-05
5.802547e-05
5.871340e-05
5.856002e-05
5.874411e-05
6.109706e-05
6.508789e-05
0.000000e+00
3.633502e-06
6.429548e-06
9.761615e-06
1.294332e-05
1.587623e-05
1.871844e-05
2.135589e-05
2.365938e-05
2.555309e-05
2.691614e-05
2.768770e-05
2.802029e-05
2.830003e-05
2.899230e-05
3.075672e-05
3.350953e-05
0.000000e+00
-1.631168e-08
-3.443988e-08
-5.253074e-08
-6.990997e-08
-8.757282e-08
-1.079431e-07
-1.404274e-07
-2.145878e-07
-3.786397e-07
-6.410990e-07
-9.085664e-07
-1.011136e-06
-7.575315e-07
-1.979115e-07
5.650799e-07
1.834351e-06
0.000000e+00
-3.662777e-06
-6.488789e-06
-9.853515e-06
-1.306631e-05
-1.602894e-05
-1.889472e-05
-2.154990e-05
-2.391813e-05
-2.598417e-05
-2.763652e-05
-2.878307e-05
-2.937827e-05
-2.951899e-05
-2.951954e-05
-2.949898e-05
-2.911988e-05
0.000000e+00
-7.176164e-06
-1.368047e-05
-1.927463e-05
-2.601568e-05
-3.226523e-05
-3.784093e-05
-4.326225e-05
-4.834245e-05
-5.257645e-05
-5.558580e-05
-5.737038e-05
-5.830815e-05
-5.880201e-05
-5.912746e-05
-5.933406e-05
-5.928300e-05
0.000000e+00
-9.245324e-06
-1.863860e-05
-2.673481e-05
-3.668459e-05
-4.617616e-05
-5.461281e-05
-6.295205e-05
-7.108974e-05
-7.811610e-05
-8.316050e-05
-8.611761e-05
-8.770482e-05
-8.860508e-05
-8.914684e-05
-8.942287e-05
-8.947347e-05
0.000000e+00
-1.253596e-05
-2.308609e-05
-3.392928e-05
-4.659412e-05
-5.876921e-05
-7.013346e-05
-8.130293e-05
-9.209815e-05
-1.017586e-04
-1.092683e-04
-1.142596e-04
-1.172316e-04
-1.188733e-04
-1.196749e-04
-1.199504e-04
-1.199886e-04
0.000000e+00
1.073665e-05
1.802116e-05
2.779659e-05
4.082998e-05
5.585961e-05
7.382143e-05
9.505455e-05
1.189582e-04
1.451028e-04
1.729958e-04
2.021499e-04
2.326244e-04
2.651918e-04
3.026292e-04
3.461519e-04
3.902603e-04
0.000000e+00
5.839545e-06
1.364099e-05
2.262077e-05
3.516265e-05
5.057826e-05
6.881983e-05
9.014888e-05
1.143363e-04
1.410381e-04
1.698355e-04
2.001341e-04
2.315757e-04
2.645006e-04
3.000536e-04
3.410480e-04
3.839393e-04
0.000000e+00
2.699496e-06
9.812680e-06
1.877613e-05
3.094991e-05
4.665990e-05
6.525146e-05
8.673193e-05
1.111851e-04
1.383693e-04
1.678398e-04
1.989508e-04
2.311291e-04
2.639095e-04
2.968860e-04
3.344450e-04
3.752337e-04
0.000000e+00
1.595266e-06
7.896238e-06
1.701502e-05
2.926271e-05
4.499820e-05
6.373232e-05
8.539512e-05
1.100340e-04
1.374337e-04
1.671324e-04
1.984751e-04
2.307891e-04
2.632324e-04
2.946715e-04
3.290630e-04
3.669077e-04
0.000000e+00
1.341196e-06
7.323258e-06
1.642392e-05
2.880796e-05
4.449126e-05
6.325433e-05
8.501969e-05
1.097720e-04
1.372909e-04
1.670625e-04
1.983867e-04
2.305452e-04
2.627200e-04
2.940170e-04
3.265324e-04
3.610466e-04
0.000000e+00
1.599943e-06
7.896312e-06
1.700018e-05
2.922885e-05
4.494838e-05
6.366703e-05
8.534272e-05
1.101056e-04
1.377319e-04
1.675701e-04
1.988035e-04
2.307070e-04
2.626097e-04
2.941398e-04
3.258948e-04
3.579150e-04
0.000000e+00
2.707190e-06
9.814027e-06
1.875534e-05
3.089980e-05
4.658287e-05
6.514294e-05
8.664080e-05
1.113137e-04
1.389030e-04
1.686542e-04
1.996488e-04
2.311960e-04
2.628307e-04
2.942926e-04
3.256522e-04
3.565930e-04
0.000000e+00
5.849609e-06
1.364694e-05
2.260912e-05
3.512355e-05
5.049964e-05
6.870190e-05
9.006520e-05
1.144670e-04
1.415084e-04
1.705293e-04
2.007987e-04
2.318009e-04
2.631131e-04
2.944118e-04
3.255160e-04
3.562141e-04
0.000000e+00
1.074768e-05
1.802820e-05
2.779242e-05
4.080559e-05
5.578611e-05
7.370188e-05
9.499866e-05
1.190677e-04
1.452775e-04
1.730928e-04
2.022489e-04
2.325269e-04
2.634508e-04
2.945448e-04
3.254984e-04
3.561698e-04


2.414319e+00
2.310349e+00
2.423952e+00
2.567184e+00
2.680402e+00
2.951052e+00
3.268521e+00
3.624987e+00
4.109948e+00
4.715898e+00
5.330413e+00
5.817232e+00
6.049502e+00
5.776014e+00
4.947537e+00
4.238069e+00
3.606311e+00
3.504555e+00
3.550339e+00
3.626193e+00
3.686153e+00
3.870885e+00
4.092678e+00
4.343058e+00
4.692961e+00
5.139233e+00
5.597200e+00
5.957996e+00
6.095389e+00
5.728515e+00
4.836596e+00
4.070463e+00
5.187140e+00
5.124750e+00
5.124013e+00
5.125408e+00
5.129125e+00
5.203237e+00
5.290000e+00
5.388493e+00
5.537843e+00
5.740301e+00
5.956048e+00
6.126522e+00
6.159428e+00
5.813109e+00
5.056384e+00
4.450955e+00
6.075840e+00
6.044672e+00
6.027617e+00
5.995970e+00
5.982761e+00
5.992078e+00
5.998877e+00
6.004807e+00
6.025231e+00
6.066524e+00
6.121282e+00
6.173018e+00
6.177275e+00
5.992107e+00
5.594292e+00
5.277312e+00
6.075694e+00
6.044305e+00
6.026744e+00
5.994249e+00
5.979789e+00
5.986365e+00
5.987234e+00
5.984908e+00
5.997665e+00
6.031598e+00
6.079154e+00
6.132905e+00
6.177220e+00
6.151876e+00
6.037226e+00
5.938501e+00
5.186441e+00
5.123447e+00
5.121152e+00
5.120293e+00
5.121321e+00
5.189232e+00
5.263552e+00
5.351686e+00
5.501778e+00
5.704863e+00
5.907700e+00
6.073187e+00
6.195992e+00
6.268064e+00
6.287753e+00
6.285808e+00
3.604885e+00
3.502447e+00
3.546339e+00
3.619945e+00
3.678646e+00
3.859624e+00
4.076169e+00
4.341151e+00
4.737079e+00
5.223908e+00
5.675387e+00
6.007820e+00
6.219716e+00
6.343323e+00
6.406792e+00
6.431574e+00
2.412482e+00
2.308168e+00
2.420319e+00
2.562369e+00
2.677154e+00
2.949461e+00
3.273320e+00
3.670977e+00
4.243320e+00
4.924273e+00
5.538522e+00
5.975610e+00
6.238523e+00
6.381665e+00
6.452757e+00
6.481670e+00


-5.564666e-01
-2.243062e-01
-2.096253e-01
-2.592038e-01
-1.762931e-01
-1.804083e-01
-1.902542e-01
-1.660470e-01
-1.589433e-01
-1.648514e-01
-1.375974e-01
-5.016026e-02
9.169906e-02
3.019027e-01
5.561181e-01
-5.694642e-01
5.338349e-01
4.043346e-01
3.409896e-01
2.859315e-01
3.144067e-01
3.009267e-01
2.866917e-01
2.935099e-01
3.003711e-01
3.182116e-01
3.804216e-01
5.068802e-01
6.862139e-01
8.590758e-01
7.508442e-01
-1.272816e+00
8.269944e-01
7.041258e-01
5.908901e-01
5.404060e-01
5.297221e-01
5.116431e-01
5.002011e-01
4.998351e-01
5.053310e-01
5.230187e-01
5.629705e-01
6.172006e-01
6.365747e-01
5.298300e-01
2.230027e-01
-3.197274e-01
8.978407e-01
7.898972e-01
6.739789e-01
6.088262e-01
5.806079e-01
5.659900e-01
5.580280e-01
5.528585e-01
5.431035e-01
5.228311e-01
4.878803e-01
4.252411e-01
3.087291e-01
1.570895e-01
1.183780e-01
1.645750e-01
8.984952e-01
7.906003e-01
6.743675e-01
6.077818e-01
5.763440e-01
5.558210e-01
5.381505e-01
5.168382e-01
4.801459e-01
4.193165e-01
3.346384e-01
2.347564e-01
1.460551e-01
1.463518e-01
3.140721e-01
5.838304e-01
8.285696e-01
7.058861e-01
5.922258e-01
5.393235e-01
5.226930e-01
4.934177e-01
4.627594e-01
4.286306e-01
3.762402e-01
3.072901e-01
2.405195e-01
2.031958e-01
2.337111e-01
3.737794e-01
6.118652e-01
8.616963e-01
5.350444e-01
4.056805e-01
3.424330e-01
2.867850e-01
3.122985e-01
2.940198e-01
2.716211e-01
2.587218e-01
2.288346e-01
2.015848e-01
2.232651e-01
3.131569e-01
4.627319e-01
6.571473e-01
8.519113e-01
9.757642e-01
-5.577646e-01
-2.261477e-01
-2.111543e-01
-2.598861e-01
-1.767446e-01
-1.772186e-01
-1.774703e-01
-1.461036e-01
-1.254609e-01
-6.492708e-02
1.169531e-01
4.015212e-01
6.849549e-01
8.827846e-01
9.770383e-01
9.995497e-01
1 2 19 18
2 3 20 19
3 4 21 20
4 5 22 21
5 6 23 22
6 7 24 23
7 8 25 24
8 9 26 25
9 10 27 26
10 11 28 27
11 12 29 28
12 13 30 29
13 14 31 30
14 15 32 31
15 16 33 32
16 17 34 33
18 19 36 35
19 20 37 36
20 21 38 37
21 22 39 38
22 23 40 39
23 24 41 40
24 25 42 41
25 26 43 42
26 27 44 43
27 28 45 44
28 29 46 45
29 30 47 46
30 31 48 47
31 32 49 48
32 33 50 49
33 34 51 50
35 36 53 52
36 37 54 53
37 38 55 54
38 39 56 55
39 40 57 56
40 41 58 57
41 42 59 58
42 43 60 59
43 44 61 60
44 45 62 61
45 46 63 62
46 47 64 63
47 48 65 64
48 49 66 65
49 50 67 66
50 51 68 67
52 53 70 69
53 54 71 70
54 55 72 71
55 56 73 72
56 57 74 73
57 58 75 74
58 59 76 75
59 60 77 76
60 61 78 77
61 62 79 78
62 63 80 79
63 64 81 80
64 65 82 81
65 66 83 82
66 67 84 83
67 68 85 84
69 70 87 86
70 71 88 87
71 72 89 88
72 73 90 89
73 74 91 90
74 75 92 91
75 76 93 92
76 77 94 93
77 78 95 94
78 79 96 95
79 80 97 96
80 81 98 97
81 82 99 98
82 83 100 99
83 84 101 100
84 85 102 101
86 87 104 103
87 88 105 104
88 89 106 105
89 90 107 106
90 91 108 107
91 92 109 108
92 93 110 109
93 94 111 110
94 95 112 111
95 96 113 112
96 97 114 113
97 98 115 114
98 99 116 115
99 100 117 116
100 101 118 117
101 102 119 118
103 104 121 120
104 105 122 121
105 106 123 122
106 107 124 123
107 108 125 124
108 109 126 125
109 110 127 126
110 111 128 127
111 112 129 128
112 113 130 129
113 114 131 130
114 115 132 131
115 116 133 132
116 117 134 133
117 118 135 134
118 119 136 135
120 121 138 137
121 122 139 138
122 123 140 139
123 124 141 140
124 125 142 141
125 126 143 142
126 127 144 143
127 128 145 144
128 129 146 145
129 130 147 146
130 131 148 147
131 132 149 148
132 133 150 149
133 134 151 150
134 135 152 151
135 136 153 152
