TITLE = "Solution"
VARIABLES = x, y, u, v, psiu, psiv, t, stress
ZONE T="structure" N=153 E=128 F=FEBLOCK ET=QUADRILATERAL VARLOCATION=([7,8]=cellcentered)
0.000000e+00
1.250000e+01
2.500000e+01
3.750000e+01
5.000000e+01
6.250000e+01
7.500000e+01
8.750000e+01
1.000000e+02
1.125000e+02
1.250000e+02
1.375000e+02
1.500000e+02
1.625000e+02
1.750000e+02
1.875000e+02
2.000000e+02
0.000000e+00
1.250000e+01
2.500000e+01
3.750000e+01
5.000000e+01
6.250000e+01
7.500000e+01
8.750000e+01
1.000000e+02
1.125000e+02
1.250000e+02
1.375000e+02
1.500000e+02
1.625000e+02
1.750000e+02
1.875000e+02
2.000000e+02
0.000000e+00
1.250000e+01
2.500000e+01
3.750000e+01
5.000000e+01
6.250000e+01
7.500000e+01
8.750000e+01
1.000000e+02
1.125000e+02
1.250000e+02
1.375000e+02
1.500000e+02
1.625000e+02
1.750000e+02
1.875000e+02
2.000000e+02
0.000000e+00
1.250000e+01
2.500000e+01
3.750000e+01
5.000000e+01
6.250000e+01
7.500000e+01
8.750000e+01
1.000000e+02
1.125000e+02
1.250000e+02
1.375000e+02
1.500000e+02
1.625000e+02
1.750000e+02
1.875000e+02
2.000000e+02
0.000000e+00
1.250000e+01
2.500000e+01
3.750000e+01
5.000000e+01
6.250000e+01
7.500000e+01
8.750000e+01
1.000000e+02
1.125000e+02
1.250000e+02
1.375000e+02
1.500000e+02
1.625000e+02
1.750000e+02
1.875000e+02
2.000000e+02
0.000000e+00
1.250000e+01
2.500000e+01
3.750000e+01
5.000000e+01
6.250000e+01
7.500000e+01
8.750000e+01
1.000000e+02
1.125000e+02
1.250000e+02
1.375000e+02
1.500000e+02
1.625000e+02
1.750000e+02
1.875000e+02
2.000000e+02
0.000000e+00
1.250000e+01
2.500000e+01
3.750000e+01
5.000000e+01
6.250000e+01
7.500000e+01
8.750000e+01
1.000000e+02
1.125000e+02
1.250000e+02
1.375000e+02
1.500000e+02
1.625000e+02
1.750000e+02
1.875000e+02
2.000000e+02
0.000000e+00
1.250000e+01
2.500000e+01
3.750000e+01
5.000000e+01
6.250000e+01
7.500000e+01
8.750000e+01
1.000000e+02
1.125000e+02
1.250000e+02
1.375000e+02
1.500000e+02
1.625000e+02
1.750000e+02
1.875000e+02
2.000000e+02
0.000000e+00
1.250000e+01
2.500000e+01
3.750000e+01
5.000000e+01
6.250000e+01
7.500000e+01
8.750000e+01
1.000000e+02
1.125000e+02
1.250000e+02
1.375000e+02
1.500000e+02
1.625000e+02
1.750000e+02
1.875000e+02
2.000000e+02
0.000000e+00
0.000000e+00
0.000000e+00
0.000000e+00
0.000000e+00
0.000000e+00
0.000000e+00
0.000000e+00
0.000000e+00
0.000000e+00
0.000000e+00
0.000000e+00
0.000000e+00
0.000000e+00
0.000000e+00
0.000000e+00
0.000000e+00
1.250000e+01
1.250000e+01
1.250000e+01
1.250000e+01
1.250000e+01
1.250000e+01
1.250000e+01
1.250000e+01
1.250000e+01
1.250000e+01
1.250000e+01
1.250000e+01
1.250000e+01
1.250000e+01
1.250000e+01
1.250000e+01
1.250000e+01
2.500000e+01
2.500000e+01
2.500000e+01
2.500000e+01
2.500000e+01
2.500000e+01
2.500000e+01
2.500000e+01
2.500000e+01
2.500000e+01
2.500000e+01
2.500000e+01
2.500000e+01
2.500000e+01
2.500000e+01
2.500000e+01
2.500000e+01
3.750000e+01
3.750000e+01
3.750000e+01
3.750000e+01
3.750000e+01
3.750000e+01
3.750000e+01
3.750000e+01
3.750000e+01
3.750000e+01
3.750000e+01
3.750000e+01
3.750000e+01
3.750000e+01
3.750000e+01
3.750000e+01
3.750000e+01
5.000000e+01
5.000000e+01
5.000000e+01
5.000000e+01
5.000000e+01
5.000000e+01
5.000000e+01
5.000000e+01
5.000000e+01
5.000000e+01
5.000000e+01
5.000000e+01
5.000000e+01
5.000000e+01
5.000000e+01
5.000000e+01
5.000000e+01
6.250000e+01
6.250000e+01
6.250000e+01
6.250000e+01
6.250000e+01
6.250000e+01
6.250000e+01
6.250000e+01
6.250000e+01
6.250000e+01
6.250000e+01
6.250000e+01
6.250000e+01
6.250000e+01
6.250000e+01
6.250000e+01
6.250000e+01
7.500000e+01
7.500000e+01
7.500000e+01
7.500000e+01
7.500000e+01
7.500000e+01
7.500000e+01
7.500000e+01
7.500000e+01
7.500000e+01
7.500000e+01
7.500000e+01
7.500000e+01
7.500000e+01
7.500000e+01
7.500000e+01
7.500000e+01
8.750000e+01
8.750000e+01
8.750000e+01
8.750000e+01
8.750000e+01
8.750000e+01
8.750000e+01
8.750000e+01
8.750000e+01
8.750000e+01
8.750000e+01
8.750000e+01
8.750000e+01
8.750000e+01
8.750000e+01
8.750000e+01
8.750000e+01
1.000000e+02
1.000000e+02
1.000000e+02
1.000000e+02
1.000000e+02
1.000000e+02
1.000000e+02
1.000000e+02
1.000000e+02
1.000000e+02
1.000000e+02
1.000000e+02
1.000000e+02
1.000000e+02
1.000000e+02
1.000000e+02
1.000000e+02
0.000000e+00
-9.954863e-01
-1.679180e+00
-2.431215e+00
-3.116848e+00
-3.751029e+00
-4.457967e+00
-5.087435e+00
-5.763264e+00
-6.405609e+00
-7.055752e+00
-7.723574e+00
-8.376588e+00
-9.146748e+00
-1.007756e+01
-1.083398e+01
-1.128411e+01
0.000000e+00
-4.457670e-01
-9.066835e-01
-1.419031e+00
-1.930570e+00
-2.410942e+00
-2.924953e+00
-3.423091e+00
-3.919200e+00
-4.421487e+00
-4.914132e+00
-5.417000e+00
-5.901884e+00
-6.421594e+00
-6.897734e+00
-7.024011e+00
-7.202894e+00
0.000000e+00
-1.461266e-01
-3.490109e-01
-6.396347e-01
-9.776269e-01
-1.302746e+00
-1.655980e+00
-2.012885e+00
-2.356642e+00
-2.718594e+00
-3.057531e+00
-3.391769e+00
-3.687448e+00
-3.927371e+00
-4.036544e+00
-4.034543e+00
-4.182976e+00
0.000000e+00
-7.897420e-02
-1.621587e-01
-3.096351e-01
-4.548268e-01
-6.282962e-01
-8.137259e-01
-9.791572e-01
-1.166717e+00
-1.328733e+00
-1.489750e+00
-1.628801e+00
-1.722181e+00
-1.730348e+00
-1.656723e+00
-1.635800e+00
-1.752874e+00
0.000000e+00
-3.310585e-03
-7.208643e-03
-1.125629e-02
-1.562419e-02
-1.901342e-02
-1.984370e-02
-1.705296e-02
-8.231220e-03
8.612515e-03
3.300560e-02
7.789075e-02
1.603942e-01
2.753459e-01
3.951507e-01
4.359792e-01
3.378026e-01
0.000000e+00
7.318641e-02
1.504888e-01
2.906151e-01
4.290644e-01
5.958201e-01
7.745427e-01
9.433128e-01
1.149199e+00
1.344525e+00
1.562322e+00
1.782649e+00
2.009159e+00
2.216586e+00
2.352391e+00
2.385287e+00
2.319617e+00
0.000000e+00
1.437746e-01
3.437477e-01
6.306289e-01
9.656728e-01
1.290935e+00
1.643225e+00
1.999633e+00
2.359619e+00
2.764843e+00
3.144003e+00
3.511018e+00
3.843906e+00
4.119538e+00
4.296287e+00
4.350914e+00
4.328260e+00
0.000000e+00
4.464554e-01
9.074437e-01
1.419538e+00
1.930362e+00
2.409299e+00
2.920255e+00
3.415636e+00
3.903468e+00
4.396721e+00
4.875038e+00
5.350168e+00
5.778334e+00
6.126021e+00
6.343113e+00
6.438925e+00
6.456634e+00
0.000000e+00
9.977184e-01
1.684274e+00
2.440049e+00
3.127630e+00
3.762563e+00
4.468518e+00
5.096138e+00
5.747353e+00
6.331663e+00
6.905096e+00
7.505945e+00
8.036292e+00
8.448383e+00
8.649661e+00
8.702408e+00
8.702939e+00
0.000000e+00
-6.186261e-01
-1.361698e+00
-2.362933e+00
-3.537056e+00
-4.880699e+00
-6.411995e+00
-8.098140e+00
-9.958585e+00
-1.198201e+01
-1.416684e+01
-1.651760e+01
-1.903128e+01
-2.176245e+01
-2.472668e+01
-2.808621e+01
-3.310195e+01
0.000000e+00
-4.156914e-01
-1.193306e+00
-2.176792e+00
-3.367944e+00
-4.706480e+00
-6.234549e+00
-7.929439e+00
-9.782362e+00
-1.181440e+01
-1.399456e+01
-1.634991e+01
-1.885836e+01
-2.156981e+01
-2.458652e+01
-2.800245e+01
-3.205241e+01
0.000000e+00
-3.901053e-01
-1.091538e+00
-2.073392e+00
-3.248736e+00
-4.580635e+00
-6.114705e+00
-7.799698e+00
-9.663329e+00
-1.169260e+01
-1.388391e+01
-1.625061e+01
-1.876930e+01
-2.150755e+01
-2.457655e+01
-2.785055e+01
-3.088310e+01
0.000000e+00
-4.490917e-01
-1.087910e+00
-2.047275e+00
-3.186189e+00
-4.511187e+00
-6.052848e+00
-7.723175e+00
-9.605634e+00
-1.163405e+01
-1.384696e+01
-1.623355e+01
-1.877775e+01
-2.151787e+01
-2.450693e+01
-2.754084e+01
-3.016665e+01
0.000000e+00
-4.560839e-01
-1.110269e+00
-2.031632e+00
-3.172012e+00
-4.501282e+00
-6.031478e+00
-7.721279e+00
-9.595594e+00
-1.164618e+01
-1.387353e+01
-1.626734e+01
-1.881898e+01
-2.151901e+01
-2.435637e+01
-2.717430e+01
-2.956218e+01
0.000000e+00
-4.478103e-01
-1.087585e+00
-2.049369e+00
-3.193133e+00
-4.528421e+00
-6.080342e+00
-7.759993e+00
-9.657630e+00
-1.171192e+01
-1.394374e+01
-1.631950e+01
-1.884992e+01
-2.150901e+01
-2.422146e+01
-2.685459e+01
-2.912391e+01
0.000000e+00
-3.883965e-01
-1.091533e+00
-2.078176e+00
-3.262485e+00
-4.609886e+00
-6.160499e+00
-7.869168e+00
-9.762855e+00
-1.182809e+01
-1.403020e+01
-1.638672e+01
-1.888920e+01
-2.150892e+01
-2.413904e+01
-2.664742e+01
-2.889025e+01
0.000000e+00
-4.141107e-01
-1.193385e+00
-2.182427e+00
-3.384081e+00
-4.737637e+00
-6.285700e+00
-8.010199e+00
-9.901473e+00
-1.196530e+01
-1.414534e+01
-1.648522e+01
-1.896640e+01
-2.155049e+01
-2.411850e+01
-2.655987e+01
-2.882978e+01
0.000000e+00
-6.176425e-01
-1.362408e+00
-2.369256e+00
-3.553601e+00
-4.911756e+00
-6.463829e+00
-8.178605e+00
-1.007402e+01
-1.212083e+01
-1.430045e+01
-1.663349e+01
-1.909009e+01
-2.163252e+01
-2.414311e+01
-2.654498e+01
-2.882863e+01


0.000000e+00
1.541879e-05
2.509014e-05
3.749437e-05
5.358725e-05
6.718633e-05
8.316951e-05
9.716254e-05
1.118507e-04
1.257553e-04
1.408874e-04
1.552194e-04
1.717955e-04
1.875879e-04
1.976198e-04
2.033481e-04
2.102803e-04
0.000000e+00
1.146003e-05
1.973985e-05
2.840888e-05
4.099661e-05
5.171803e-05
6.184069e-05
7.295812e-05
8.315438e-05
9.456061e-05
1.052285e-04
1.156014e-04
1.264867e-04
1.358277e-04
1.373945e-04
1.411435e-04
1.469674e-04
0.000000e+00
9.532447e-06
1.502500e-05
2.020293e-05
2.884662e-05
3.553063e-05
4.126127e-05
4.860956e-05
5.458083e-05
6.194074e-05
6.836053e-05
7.402357e-05
7.874795e-05
8.092433e-05
8.016577e-05
8.254480e-05
8.677966e-05
0.000000e+00
5.185770e-06
6.845170e-06
9.618881e-06
1.306004e-05
1.352301e-05
1.585537e-05
1.726990e-05
2.085145e-05
2.430142e-05
2.806014e-05
2.910554e-05
2.852775e-05
2.709231e-05
2.684278e-05
2.988968e-05
3.556145e-05
0.000000e+00
-1.750319e-07
-4.358808e-07
-8.574491e-07
-1.724823e-06
-2.883111e-06
-4.989872e-06
-7.231301e-06
-7.818608e-06
-7.842295e-06
-8.782829e-06
-1.193573e-05
-1.468384e-05
-1.608683e-05
-1.576307e-05
-1.360341e-05
-9.612885e-06
0.000000e+00
-5.449829e-06
-7.434831e-06
-1.074717e-05
-1.465808e-05
-1.607829e-05
-2.050415e-05
-2.431401e-05
-3.021416e-05
-3.334322e-05
-3.746028e-05
-4.219449e-05
-4.730572e-05
-4.905941e-05
-4.960551e-05
-5.008273e-05
-4.835694e-05
0.000000e+00
-9.532586e-06
-1.509176e-05
-2.037114e-05
-2.895237e-05
-3.532228e-05
-4.073181e-05
-4.872524e-05
-5.589997e-05
-6.355709e-05
-6.883759e-05
-7.385721e-05
-7.801932e-05
-8.155195e-05
-8.346212e-05
-8.538061e-05
-8.612858e-05
0.000000e+00
-1.138972e-05
-1.965200e-05
-2.830343e-05
-4.077558e-05
-5.165558e-05
-6.160142e-05
-7.279734e-05
-8.318290e-05
-9.456673e-05
-1.052277e-04
-1.135554e-04
-1.183532e-04
-1.233700e-04
-1.269649e-04
-1.282626e-04
-1.283587e-04
0.000000e+00
-1.542914e-05
-2.503103e-05
-3.734019e-05
-5.337703e-05
-6.701374e-05
-8.286003e-05
-9.590506e-05
-1.099621e-04
-1.233552e-04
-1.410184e-04
-1.568059e-04
-1.665410e-04
-1.717488e-04
-1.739588e-04
-1.741752e-04
-1.739937e-04
0.000000e+00
1.259902e-05
1.999985e-05
3.243846e-05
4.874973e-05
6.687374e-05
9.131037e-05
1.201655e-04
1.534608e-04
1.902321e-04
2.303999e-04
2.744125e-04
3.243662e-04
3.784761e-04
4.399840e-04
5.108124e-04
5.841829e-04
0.000000e+00
7.679882e-06
1.611027e-05
2.633756e-05
4.228476e-05
6.091552e-05
8.485222e-05
1.142885e-04
1.472291e-04
1.841037e-04
2.240694e-04
2.681982e-04
3.177883e-04
3.735481e-04
4.347417e-04
5.034315e-04
5.738263e-04
0.000000e+00
4.326102e-06
1.229585e-05
2.172418e-05
3.646938e-05
5.568940e-05
7.943482e-05
1.097723e-04
1.430753e-04
1.796225e-04
2.194717e-04
2.636637e-04
3.139994e-04
3.711658e-04
4.306023e-04
4.959532e-04
5.641379e-04
0.000000e+00
3.199817e-06
1.059502e-05
2.008595e-05
3.451593e-05
5.203293e-05
7.641689e-05
1.087684e-04
1.436238e-04
1.782059e-04
2.174017e-04
2.620372e-04
3.132484e-04
3.697565e-04
4.278682e-04
4.881167e-04
5.499772e-04
0.000000e+00
2.811782e-06
1.027032e-05
2.004524e-05
3.424630e-05
5.074627e-05
7.529097e-05
1.097858e-04
1.448776e-04
1.780983e-04
2.156018e-04
2.619872e-04
3.135021e-04
3.698826e-04
4.267253e-04
4.817295e-04
5.338545e-04
0.000000e+00
3.342655e-06
1.078544e-05
2.046008e-05
3.485581e-05
5.184139e-05
7.715852e-05
1.106928e-04
1.454877e-04
1.779063e-04
2.159735e-04
2.635017e-04
3.158623e-04
3.701866e-04
4.266279e-04
4.794099e-04
5.228395e-04
0.000000e+00
4.479472e-06
1.252415e-05
2.206701e-05
3.674932e-05
5.576649e-05
8.039847e-05
1.117634e-04
1.447975e-04
1.789786e-04
2.182736e-04
2.667384e-04
3.193568e-04
3.722640e-04
4.257110e-04
4.766696e-04
5.193773e-04
0.000000e+00
7.804013e-06
1.634635e-05
2.663794e-05
4.254116e-05
6.132045e-05
8.581423e-05
1.159494e-04
1.482272e-04
1.832832e-04
2.229357e-04
2.704846e-04
3.223954e-04
3.744591e-04
4.258457e-04
4.746524e-04
5.198443e-04
0.000000e+00
1.271199e-05
2.023585e-05
3.272933e-05
4.908640e-05
6.740590e-05
9.234647e-05
1.216164e-04
1.543911e-04
1.895012e-04
2.301743e-04
2.748279e-04
3.246574e-04
3.756361e-04
4.261553e-04
4.741688e-04
5.201101e-04


5.658118e+00
6.128969e+00
6.858805e+00
5.915219e+00
5.634789e+00
6.379141e+00
6.296379e+00
6.353192e+00
5.932666e+00
5.895854e+00
6.279897e+00
7.147960e+00
8.844890e+00
9.826205e+00
9.146947e+00
7.997931e+00
8.075313e+00
8.454371e+00
8.656693e+00
8.353460e+00
8.184684e+00
8.433327e+00
8.605534e+00
8.399013e+00
8.380216e+00
8.266454e+00
8.413299e+00
8.840951e+00
9.504059e+00
9.838833e+00
8.391470e+00
6.470769e+00
9.839976e+00
9.821471e+00
9.996586e+00
9.834849e+00
9.833285e+00
9.954000e+00
9.831844e+00
9.939478e+00
9.845358e+00
9.877461e+00
9.895038e+00
9.873205e+00
9.891534e+00
9.392789e+00
7.996123e+00
6.187754e+00
9.998319e+00
9.998287e+00
9.998273e+00
9.998107e+00
9.997875e+00
9.997410e+00
9.996879e+00
9.996870e+00
9.997169e+00
9.997113e+00
9.995836e+00
9.479880e+00
8.830059e+00
8.370264e+00
7.987038e+00
7.913351e+00
9.998310e+00
9.998268e+00
9.998236e+00
9.998013e+00
9.997626e+00
9.996777e+00
9.931935e+00
9.962246e+00
9.994762e+00
9.915077e+00
9.355403e+00
8.590438e+00
7.708694e+00
7.746064e+00
8.647686e+00
9.162925e+00
9.840241e+00
9.821363e+00
9.996407e+00
9.834258e+00
9.831794e+00
9.695983e+00
9.313347e+00
9.513556e+00
9.383660e+00
8.862360e+00
8.307147e+00
7.896917e+00
8.201557e+00
8.754053e+00
9.444686e+00
9.994054e+00
8.077007e+00
8.455001e+00
8.655826e+00
8.351286e+00
8.099708e+00
7.982212e+00
7.810393e+00
7.750232e+00
7.839087e+00
7.328437e+00
7.476146e+00
8.489899e+00
9.290788e+00
9.846947e+00
9.996534e+00
9.997918e+00
5.662476e+00
6.130212e+00
6.857513e+00
5.905926e+00
5.597374e+00
6.024622e+00
5.857090e+00
6.325902e+00
6.185562e+00
6.481751e+00
7.854601e+00
9.110515e+00
9.983439e+00
9.997301e+00
9.998137e+00
9.998425e+00


-8.173940e-01
-1.693950e-01
-3.965939e-01
-2.574774e-01
-9.539913e-02
-3.053335e-01
-1.241040e-01
-2.097070e-01
-1.614788e-01
-1.584880e-01
-2.146522e-01
-1.500219e-01
-4.619175e-01
-6.851259e-01
3.159347e-01
-8.469585e-01
6.110245e-01
4.806876e-01
2.956679e-01
2.254742e-01
2.902307e-01
1.680799e-01
1.755493e-01
1.726864e-01
1.103205e-01
1.479020e-01
1.284466e-01
2.414663e-01
3.024436e-01
5.096685e-01
6.954177e-01
-9.348117e-01
7.230366e-01
4.714659e-01
5.695333e-02
-2.129194e-02
-3.710216e-02
-1.869002e-01
-8.030808e-02
-1.373565e-01
-7.672148e-02
-1.873526e-02
3.206764e-02
1.859090e-01
2.784181e-01
1.480975e-01
-2.521957e-02
-1.681327e-01
7.282588e-01
5.563552e-01
1.931041e-01
6.231704e-02
-2.281431e-02
-1.054352e-01
-1.678891e-02
-6.135519e-02
1.349643e-02
1.736519e-02
5.902206e-02
1.176743e-01
5.851547e-02
-2.625521e-01
-3.836881e-01
-7.800550e-02
7.311660e-01
5.602851e-01
2.010641e-01
7.045048e-02
-1.910614e-02
-1.114325e-01
-3.702917e-02
-1.020356e-01
-5.182147e-02
-4.248433e-02
2.138362e-02
1.464666e-02
-3.778567e-02
-1.302066e-01
-1.023569e-01
3.107984e-01
7.298496e-01
4.816384e-01
7.499526e-02
-3.370707e-03
-2.537789e-02
-1.614351e-01
-7.529261e-02
-1.888365e-01
-1.819421e-01
-1.089355e-01
-7.782014e-02
-9.771457e-02
-1.111663e-01
4.530322e-02
3.342490e-01
7.246828e-01
6.151190e-01
4.864710e-01
3.031697e-01
2.305290e-01
2.864743e-01
1.616050e-01
1.526139e-01
1.019104e-01
-5.675599e-02
-4.050860e-02
-9.682262e-02
-5.760133e-02
5.739629e-02
3.650173e-01
7.128722e-01
9.479017e-01
-8.228977e-01
-1.750679e-01
-4.041451e-01
-2.605589e-01
-9.495541e-02
-2.994147e-01
-1.199346e-01
-1.564737e-01
-5.605424e-02
-2.186804e-02
-9.255038e-02
9.902737e-02
3.878647e-01
7.720760e-01
9.528912e-01
9.987354e-01
1 2 19 18
2 3 20 19
3 4 21 20
4 5 22 21
5 6 23 22
6 7 24 23
7 8 25 24
8 9 26 25
9 10 27 26
10 11 28 27
11 12 29 28
12 13 30 29
13 14 31 30
14 15 32 31
15 16 33 32
16 17 34 33
18 19 36 35
19 20 37 36
20 21 38 37
21 22 39 38
22 23 40 39
23 24 41 40
24 25 42 41
25 26 43 42
26 27 44 43
27 28 45 44
28 29 46 45
29 30 47 46
30 31 48 47
31 32 49 48
32 33 50 49
33 34 51 50
35 36 53 52
36 37 54 53
37 38 55 54
38 39 56 55
39 40 57 56
40 41 58 57
41 42 59 58
42 43 60 59
43 44 61 60
44 45 62 61
45 46 63 62
46 47 64 63
47 48 65 64
48 49 66 65
49 50 67 66
50 51 68 67
52 53 70 69
53 54 71 70
54 55 72 71
55 56 73 72
56 57 74 73
57 58 75 74
58 59 76 75
59 60 77 76
60 61 78 77
61 62 79 78
62 63 80 79
63 64 81 80
64 65 82 81
65 66 83 82
66 67 84 83
67 68 85 84
69 70 87 86
70 71 88 87
71 72 89 88
72 73 90 89
73 74 91 90
74 75 92 91
75 76 93 92
76 77 94 93
77 78 95 94
78 79 96 95
79 80 97 96
80 81 98 97
81 82 99 98
82 83 100 99
83 84 101 100
84 85 102 101
86 87 104 103
87 88 105 104
88 89 106 105
89 90 107 106
90 91 108 107
91 92 109 108
92 93 110 109
93 94 111 110
94 95 112 111
95 96 113 112
96 97 114 113
97 98 115 114
98 99 116 115
99 100 117 116
100 101 118 117
101 102 119 118
103 104 121 120
104 105 122 121
105 106 123 122
106 107 124 123
107 108 125 124
108 109 126 125
109 110 127 126
110 111 128 127
111 112 129 128
112 113 130 129
113 114 131 130
114 115 132 131
115 116 133 132
116 117 134 133
117 118 135 134
118 119 136 135
120 121 138 137
121 122 139 138
122 123 140 139
123 124 141 140
124 125 142 141
125 126 143 142
126 127 144 143
127 128 145 144
128 129 146 145
129 130 147 146
130 131 148 147
131 132 149 148
132 133 150 149
133 134 151 150
134 135 152 151
135 136 153 152
