TITLE = "Solution"
VARIABLES = x, y, u, v, psiu, psiv, t, stress
ZONE T="structure" N=153 E=128 F=FEBLOCK ET=QUADRILATERAL VARLOCATION=([7,8]=cellcentered)
0.000000e+00
1.250000e+01
2.500000e+01
3.750000e+01
5.000000e+01
6.250000e+01
7.500000e+01
8.750000e+01
1.000000e+02
1.125000e+02
1.250000e+02
1.375000e+02
1.500000e+02
1.625000e+02
1.750000e+02
1.875000e+02
2.000000e+02
0.000000e+00
1.250000e+01
2.500000e+01
3.750000e+01
5.000000e+01
6.250000e+01
7.500000e+01
8.750000e+01
1.000000e+02
1.125000e+02
1.250000e+02
1.375000e+02
1.500000e+02
1.625000e+02
1.750000e+02
1.875000e+02
2.000000e+02
0.000000e+00
1.250000e+01
2.500000e+01
3.750000e+01
5.000000e+01
6.250000e+01
7.500000e+01
8.750000e+01
1.000000e+02
1.125000e+02
1.250000e+02
1.375000e+02
1.500000e+02
1.625000e+02
1.750000e+02
1.875000e+02
2.000000e+02
0.000000e+00
1.250000e+01
2.500000e+01
3.750000e+01
5.000000e+01
6.250000e+01
7.500000e+01
8.750000e+01
1.000000e+02
1.125000e+02
1.250000e+02
1.375000e+02
1.500000e+02
1.625000e+02
1.750000e+02
1.875000e+02
2.000000e+02
0.000000e+00
1.250000e+01
2.500000e+01
3.750000e+01
5.000000e+01
6.250000e+01
7.500000e+01
8.750000e+01
1.000000e+02
1.125000e+02
1.250000e+02
1.375000e+02
1.500000e+02
1.625000e+02
1.750000e+02
1.875000e+02
2.000000e+02
0.000000e+00
1.250000e+01
2.500000e+01
3.750000e+01
5.000000e+01
6.250000e+01
7.500000e+01
8.750000e+01
1.000000e+02
1.125000e+02
1.250000e+02
1.375000e+02
1.500000e+02
1.625000e+02
1.750000e+02
1.875000e+02
2.000000e+02
0.000000e+00
1.250000e+01
2.500000e+01
3.750000e+01
5.000000e+01
6.250000e+01
7.500000e+01
8.750000e+01
1.000000e+02
1.125000e+02
1.250000e+02
1.375000e+02
1.500000e+02
1.625000e+02
1.750000e+02
1.875000e+02
2.000000e+02
0.000000e+00
1.250000e+01
2.500000e+01
3.750000e+01
5.000000e+01
6.250000e+01
7.500000e+01
8.750000e+01
1.000000e+02
1.125000e+02
1.250000e+02
1.375000e+02
1.500000e+02
1.625000e+02
1.750000e+02
1.875000e+02
2.000000e+02
0.000000e+00
1.250000e+01
2.500000e+01
3.750000e+01
5.000000e+01
6.250000e+01
7.500000e+01
8.750000e+01
1.000000e+02
1.125000e+02
1.250000e+02
1.375000e+02
1.500000e+02
1.625000e+02
1.750000e+02
1.875000e+02
2.000000e+02
0.000000e+00
0.000000e+00
0.000000e+00
0.000000e+00
0.000000e+00
0.000000e+00
0.000000e+00
0.000000e+00
0.000000e+00
0.000000e+00
0.000000e+00
0.000000e+00
0.000000e+00
0.000000e+00
0.000000e+00
0.000000e+00
0.000000e+00
1.250000e+01
1.250000e+01
1.250000e+01
1.250000e+01
1.250000e+01
1.250000e+01
1.250000e+01
1.250000e+01
1.250000e+01
1.250000e+01
1.250000e+01
1.250000e+01
1.250000e+01
1.250000e+01
1.250000e+01
1.250000e+01
1.250000e+01
2.500000e+01
2.500000e+01
2.500000e+01
2.500000e+01
2.500000e+01
2.500000e+01
2.500000e+01
2.500000e+01
2.500000e+01
2.500000e+01
2.500000e+01
2.500000e+01
2.500000e+01
2.500000e+01
2.500000e+01
2.500000e+01
2.500000e+01
3.750000e+01
3.750000e+01
3.750000e+01
3.750000e+01
3.750000e+01
3.750000e+01
3.750000e+01
3.750000e+01
3.750000e+01
3.750000e+01
3.750000e+01
3.750000e+01
3.750000e+01
3.750000e+01
3.750000e+01
3.750000e+01
3.750000e+01
5.000000e+01
5.000000e+01
5.000000e+01
5.000000e+01
5.000000e+01
5.000000e+01
5.000000e+01
5.000000e+01
5.000000e+01
5.000000e+01
5.000000e+01
5.000000e+01
5.000000e+01
5.000000e+01
5.000000e+01
5.000000e+01
5.000000e+01
6.250000e+01
6.250000e+01
6.250000e+01
6.250000e+01
6.250000e+01
6.250000e+01
6.250000e+01
6.250000e+01
6.250000e+01
6.250000e+01
6.250000e+01
6.250000e+01
6.250000e+01
6.250000e+01
6.250000e+01
6.250000e+01
6.250000e+01
7.500000e+01
7.500000e+01
7.500000e+01
7.500000e+01
7.500000e+01
7.500000e+01
7.500000e+01
7.500000e+01
7.500000e+01
7.500000e+01
7.500000e+01
7.500000e+01
7.500000e+01
7.500000e+01
7.500000e+01
7.500000e+01
7.500000e+01
8.750000e+01
8.750000e+01
8.750000e+01
8.750000e+01
8.750000e+01
8.750000e+01
8.750000e+01
8.750000e+01
8.750000e+01
8.750000e+01
8.750000e+01
8.750000e+01
8.750000e+01
8.750000e+01
8.750000e+01
8.750000e+01
8.750000e+01
1.000000e+02
1.000000e+02
1.000000e+02
1.000000e+02
1.000000e+02
1.000000e+02
1.000000e+02
1.000000e+02
1.000000e+02
1.000000e+02
1.000000e+02
1.000000e+02
1.000000e+02
1.000000e+02
1.000000e+02
1.000000e+02
1.000000e+02
0.000000e+00
-9.959242e-01
-1.679000e+00
-2.431194e+00
-3.117243e+00
-3.750483e+00
-4.458232e+00
-5.087218e+00
-5.763224e+00
-6.405584e+00
-7.055533e+00
-7.723564e+00
-8.376446e+00
-9.146439e+00
-1.007747e+01
-1.083397e+01
-1.128409e+01
0.000000e+00
-4.459804e-01
-9.064779e-01
-1.419027e+00
-1.930664e+00
-2.410701e+00
-2.924821e+00
-3.423022e+00
-3.918991e+00
-4.421446e+00
-4.913930e+00
-5.416917e+00
-5.901778e+00
-6.421402e+00
-6.897727e+00
-7.024060e+00
-7.202951e+00
0.000000e+00
-1.460935e-01
-3.488419e-01
-6.395553e-01
-9.775476e-01
-1.302575e+00
-1.655706e+00
-2.012853e+00
-2.356392e+00
-2.718583e+00
-3.057403e+00
-3.391728e+00
-3.687426e+00
-3.927368e+00
-4.036617e+00
-4.034641e+00
-4.183061e+00
0.000000e+00
-7.898675e-02
-1.621193e-01
-3.096528e-01
-4.548960e-01
-6.281789e-01
-8.139264e-01
-9.790741e-01
-1.166874e+00
-1.328806e+00
-1.489859e+00
-1.628924e+00
-1.722333e+00
-1.730512e+00
-1.656857e+00
-1.635899e+00
-1.752940e+00
0.000000e+00
-3.321302e-03
-7.229618e-03
-1.129520e-02
-1.568561e-02
-1.911889e-02
-2.000402e-02
-1.726269e-02
-8.496062e-03
8.354059e-03
3.275745e-02
7.770999e-02
1.602351e-01
2.751690e-01
3.949841e-01
4.358657e-01
3.376864e-01
0.000000e+00
7.317737e-02
1.504079e-01
2.905776e-01
4.290569e-01
5.955565e-01
7.744531e-01
9.426824e-01
1.148735e+00
1.343946e+00
1.561937e+00
1.782233e+00
2.008879e+00
2.216398e+00
2.352202e+00
2.385106e+00
2.319427e+00
0.000000e+00
1.437279e-01
3.435457e-01
6.305233e-01
9.655890e-01
1.290842e+00
1.643089e+00
1.999652e+00
2.359086e+00
2.764629e+00
3.143686e+00
3.510671e+00
3.843503e+00
4.119229e+00
4.296016e+00
4.350656e+00
4.327991e+00
0.000000e+00
4.466914e-01
9.072169e-01
1.419532e+00
1.930465e+00
2.409056e+00
2.920102e+00
3.415641e+00
3.903283e+00
4.396693e+00
4.874976e+00
5.350104e+00
5.778001e+00
6.125689e+00
6.342783e+00
6.438606e+00
6.456319e+00
0.000000e+00
9.982112e-01
1.684092e+00
2.440043e+00
3.128044e+00
3.761839e+00
4.468603e+00
5.095733e+00
5.747543e+00
6.331616e+00
6.905087e+00
7.505960e+00
8.035958e+00
8.448057e+00
8.649302e+00
8.702037e+00
8.702566e+00
0.000000e+00
-6.187633e-01
-1.361822e+00
-2.363234e+00
-3.537419e+00
-4.880958e+00
-6.412453e+00
-8.098592e+00
-9.959069e+00
-1.198256e+01
-1.416734e+01
-1.651820e+01
-1.903187e+01
-2.176299e+01
-2.472724e+01
-2.808668e+01
-3.310235e+01
0.000000e+00
-4.159140e-01
-1.193488e+00
-2.177014e+00
-3.368368e+00
-4.706828e+00
-6.234910e+00
-7.929995e+00
-9.782765e+00
-1.181500e+01
-1.399505e+01
-1.635049e+01
-1.885899e+01
-2.157034e+01
-2.458704e+01
-2.800293e+01
-3.205277e+01
0.000000e+00
-3.903669e-01
-1.091668e+00
-2.073609e+00
-3.249256e+00
-4.580882e+00
-6.115198e+00
-7.800157e+00
-9.663779e+00
-1.169316e+01
-1.388439e+01
-1.625120e+01
-1.876992e+01
-2.150808e+01
-2.457706e+01
-2.785106e+01
-3.088358e+01
0.000000e+00
-4.493551e-01
-1.088045e+00
-2.047478e+00
-3.186832e+00
-4.511287e+00
-6.053584e+00
-7.723461e+00
-9.606167e+00
-1.163449e+01
-1.384745e+01
-1.623414e+01
-1.877839e+01
-2.151842e+01
-2.450739e+01
-2.754138e+01
-3.016726e+01
0.000000e+00
-4.562846e-01
-1.110448e+00
-2.031902e+00
-3.172485e+00
-4.501630e+00
-6.032029e+00
-7.721755e+00
-9.595927e+00
-1.164661e+01
-1.387404e+01
-1.626792e+01
-1.881964e+01
-2.151957e+01
-2.435680e+01
-2.717481e+01
-2.956275e+01
0.000000e+00
-4.480894e-01
-1.087724e+00
-2.049574e+00
-3.193812e+00
-4.528506e+00
-6.081177e+00
-7.760222e+00
-9.658001e+00
-1.171224e+01
-1.394440e+01
-1.632008e+01
-1.885054e+01
-2.150960e+01
-2.422189e+01
-2.685504e+01
-2.912437e+01
0.000000e+00
-3.886804e-01
-1.091681e+00
-2.078435e+00
-3.263076e+00
-4.610199e+00
-6.160993e+00
-7.869486e+00
-9.763020e+00
-1.182855e+01
-1.403080e+01
-1.638735e+01
-1.888975e+01
-2.150950e+01
-2.413950e+01
-2.664784e+01
-2.889063e+01
0.000000e+00
-4.143535e-01
-1.193595e+00
-2.182708e+00
-3.384611e+00
-4.738070e+00
-6.286014e+00
-8.010543e+00
-9.901592e+00
-1.196583e+01
-1.414585e+01
-1.648588e+01
-1.896692e+01
-2.155104e+01
-2.411898e+01
-2.656030e+01
-2.883015e+01
0.000000e+00
-6.177931e-01
-1.362558e+00
-2.369626e+00
-3.554064e+00
-4.912064e+00
-6.464250e+00
-8.178845e+00
-1.007430e+01
-1.212128e+01
-1.430099e+01
-1.663409e+01
-1.909056e+01
-2.163306e+01
-2.414360e+01
-2.654541e+01
-2.882901e+01


0.000000e+00
1.541821e-05
2.508259e-05
3.749349e-05
5.358466e-05
6.716875e-05
8.318358e-05
9.713654e-05
1.118657e-04
1.257459e-04
1.408875e-04
1.552333e-04
1.717895e-04
1.876092e-04
1.976908e-04
2.034341e-04
2.103674e-04
0.000000e+00
1.145764e-05
1.973643e-05
2.841460e-05
4.099192e-05
5.172258e-05
6.184992e-05
7.296237e-05
8.316477e-05
9.457717e-05
1.052319e-04
1.156248e-04
1.264863e-04
1.358419e-04
1.374469e-04
1.412004e-04
1.470232e-04
0.000000e+00
9.528778e-06
1.502522e-05
2.021186e-05
2.884477e-05
3.554745e-05
4.127848e-05
4.862658e-05
5.459748e-05
6.196803e-05
6.837149e-05
7.404624e-05
7.875995e-05
8.094414e-05
8.019401e-05
8.257032e-05
8.680212e-05
0.000000e+00
5.186708e-06
6.844052e-06
9.623225e-06
1.306258e-05
1.351946e-05
1.587063e-05
1.725489e-05
2.088535e-05
2.431276e-05
2.806503e-05
2.912663e-05
2.854439e-05
2.711728e-05
2.684068e-05
2.987527e-05
3.554620e-05
0.000000e+00
-1.758680e-07
-4.381800e-07
-8.621527e-07
-1.735247e-06
-2.898235e-06
-5.016266e-06
-7.264204e-06
-7.840694e-06
-7.886691e-06
-8.822873e-06
-1.195911e-05
-1.470328e-05
-1.613597e-05
-1.581130e-05
-1.365863e-05
-9.668717e-06
0.000000e+00
-5.452027e-06
-7.435999e-06
-1.075782e-05
-1.466815e-05
-1.608905e-05
-2.055502e-05
-2.432605e-05
-3.028153e-05
-3.343138e-05
-3.757461e-05
-4.223344e-05
-4.737161e-05
-4.916106e-05
-4.970290e-05
-5.016964e-05
-4.843397e-05
0.000000e+00
-9.528017e-06
-1.509210e-05
-2.038081e-05
-2.894702e-05
-3.534083e-05
-4.074817e-05
-4.874130e-05
-5.591998e-05
-6.363261e-05
-6.890583e-05
-7.391245e-05
-7.806040e-05
-8.164851e-05
-8.354978e-05
-8.546654e-05
-8.621263e-05
0.000000e+00
-1.138647e-05
-1.964825e-05
-2.830894e-05
-4.076680e-05
-5.166510e-05
-6.160553e-05
-7.279747e-05
-8.318829e-05
-9.458104e-05
-1.052189e-04
-1.136003e-04
-1.183887e-04
-1.234256e-04
-1.270414e-04
-1.283479e-04
-1.284433e-04
0.000000e+00
-1.542860e-05
-2.502318e-05
-3.733967e-05
-5.337373e-05
-6.699494e-05
-8.287625e-05
-9.586504e-05
-1.099990e-04
-1.232981e-04
-1.409593e-04
-1.567960e-04
-1.666095e-04
-1.718344e-04
-1.740387e-04
-1.742610e-04
-1.740816e-04
0.000000e+00
1.259648e-05
1.999712e-05
3.243392e-05
4.873800e-05
6.685802e-05
9.128948e-05
1.201177e-04
1.534174e-04
1.901549e-04
2.303163e-04
2.743230e-04
3.242477e-04
3.783769e-04
4.399135e-04
5.107672e-04
5.841691e-04
0.000000e+00
7.679715e-06
1.610700e-05
2.633258e-05
4.227630e-05
6.089801e-05
8.482957e-05
1.142476e-04
1.471748e-04
1.840361e-04
2.239789e-04
2.681125e-04
3.176755e-04
3.734330e-04
4.346596e-04
5.033866e-04
5.738165e-04
0.000000e+00
4.325445e-06
1.229021e-05
2.172252e-05
3.645527e-05
5.567513e-05
7.940706e-05
1.097389e-04
1.430164e-04
1.795488e-04
2.193905e-04
2.635731e-04
3.138904e-04
3.710387e-04
4.305117e-04
4.959088e-04
5.641345e-04
0.000000e+00
3.198726e-06
1.058913e-05
2.008264e-05
3.450791e-05
5.200392e-05
7.640225e-05
1.087405e-04
1.435626e-04
1.781146e-04
2.173477e-04
2.619304e-04
3.131315e-04
3.696244e-04
4.277748e-04
4.880755e-04
5.499780e-04
0.000000e+00
2.810371e-06
1.026593e-05
2.004185e-05
3.423995e-05
5.071251e-05
7.528304e-05
1.097805e-04
1.447751e-04
1.780308e-04
2.155559e-04
2.618652e-04
3.133522e-04
3.697655e-04
4.266323e-04
4.816935e-04
5.338513e-04
0.000000e+00
3.342450e-06
1.078047e-05
2.046004e-05
3.484984e-05
5.180849e-05
7.716630e-05
1.106739e-04
1.453908e-04
1.778588e-04
2.159391e-04
2.633283e-04
3.156956e-04
3.700948e-04
4.265384e-04
4.793726e-04
5.228198e-04
0.000000e+00
4.479567e-06
1.251975e-05
2.206940e-05
3.673614e-05
5.575875e-05
8.038731e-05
1.117443e-04
1.447302e-04
1.789583e-04
2.182060e-04
2.665404e-04
3.191890e-04
3.722000e-04
4.256318e-04
4.766225e-04
5.193399e-04
0.000000e+00
7.804623e-06
1.634464e-05
2.663567e-05
4.253671e-05
6.131140e-05
8.580086e-05
1.159202e-04
1.481924e-04
1.832560e-04
2.228351e-04
2.703115e-04
3.222353e-04
3.744039e-04
4.257811e-04
4.745998e-04
5.197995e-04
0.000000e+00
1.271013e-05
2.023491e-05
3.272694e-05
4.908015e-05
6.739863e-05
9.233354e-05
1.215788e-04
1.543830e-04
1.894278e-04
2.300979e-04
2.746731e-04
3.245344e-04
3.755629e-04
4.261011e-04
4.741162e-04
5.200633e-04


5.676910e+00
6.139920e+00
6.867024e+00
5.937707e+00
5.740075e+00
6.576490e+00
6.434041e+00
6.431490e+00
5.966464e+00
5.904265e+00
6.284893e+00
7.151543e+00
8.848606e+00
9.830410e+00
9.151290e+00
8.002274e+00
8.084775e+00
8.461587e+00
8.662070e+00
8.358165e+00
8.238740e+00
8.513865e+00
8.676185e+00
8.427178e+00
8.399887e+00
8.270983e+00
8.417970e+00
8.845149e+00
9.507374e+00
9.843055e+00
8.395399e+00
6.474411e+00
9.843440e+00
9.823869e+00
9.999437e+00
9.837818e+00
9.836191e+00
9.970249e+00
9.835650e+00
9.947501e+00
9.849021e+00
9.880858e+00
9.898659e+00
9.876436e+00
9.894750e+00
9.396029e+00
8.000758e+00
6.192051e+00
9.999723e+00
9.999718e+00
9.999715e+00
9.999688e+00
9.999650e+00
9.999573e+00
9.999486e+00
9.999485e+00
9.999534e+00
9.999526e+00
9.999320e+00
9.483457e+00
8.832290e+00
8.373808e+00
7.992672e+00
7.921476e+00
9.999721e+00
9.999714e+00
9.999709e+00
9.999672e+00
9.999608e+00
9.999469e+00
9.934722e+00
9.963312e+00
9.999108e+00
9.918999e+00
9.360334e+00
8.595072e+00
7.710723e+00
7.748848e+00
8.654922e+00
9.170299e+00
9.843868e+00
9.823824e+00
9.999407e+00
9.837634e+00
9.835781e+00
9.712650e+00
9.306785e+00
9.520834e+00
9.387500e+00
8.873608e+00
8.312312e+00
7.900839e+00
8.203722e+00
8.757235e+00
9.449422e+00
9.999014e+00
8.087274e+00
8.462668e+00
8.661479e+00
8.356634e+00
8.157635e+00
8.063705e+00
7.901918e+00
7.810969e+00
7.900941e+00
7.348820e+00
7.487870e+00
8.493684e+00
9.293792e+00
9.849365e+00
9.999425e+00
9.999656e+00
5.683156e+00
6.141960e+00
6.866050e+00
5.929843e+00
5.709636e+00
6.243370e+00
6.056489e+00
6.523791e+00
6.303538e+00
6.534840e+00
7.873086e+00
9.116591e+00
9.986943e+00
9.999552e+00
9.999692e+00
9.999740e+00


-8.189754e-01
-1.673511e-01
-3.973809e-01
-2.584865e-01
-9.299682e-02
-3.071858e-01
-1.233238e-01
-2.097461e-01
-1.618476e-01
-1.577831e-01
-2.153207e-01
-1.497207e-01
-4.613753e-01
-6.860843e-01
3.157345e-01
-8.469601e-01
6.107537e-01
4.814739e-01
2.952280e-01
2.252377e-01
2.910035e-01
1.679821e-01
1.751063e-01
1.732559e-01
1.095651e-01
1.483225e-01
1.279467e-01
2.413564e-01
3.024739e-01
5.092794e-01
6.953483e-01
-9.344556e-01
7.227035e-01
4.716268e-01
5.642627e-02
-2.244012e-02
-3.618743e-02
-1.887769e-01
-8.019324e-02
-1.380887e-01
-7.744019e-02
-1.900690e-02
3.131710e-02
1.854525e-01
2.782376e-01
1.479521e-01
-2.538208e-02
-1.678658e-01
7.279604e-01
5.564382e-01
1.928166e-01
6.151165e-02
-2.220838e-02
-1.068668e-01
-1.638783e-02
-6.207955e-02
1.315433e-02
1.678974e-02
5.860186e-02
1.174450e-01
5.872072e-02
-2.623408e-01
-3.840229e-01
-7.821528e-02
7.308640e-01
5.603826e-01
2.008192e-01
6.970211e-02
-1.826028e-02
-1.128157e-01
-3.645711e-02
-1.028366e-01
-5.247736e-02
-4.365353e-02
2.091218e-02
1.400741e-02
-3.781613e-02
-1.298759e-01
-1.026665e-01
3.104846e-01
7.295149e-01
4.818428e-01
7.449631e-02
-4.474137e-03
-2.410915e-02
-1.624858e-01
-7.333249e-02
-1.877520e-01
-1.820563e-01
-1.091061e-01
-7.756525e-02
-9.780400e-02
-1.115821e-01
4.538108e-02
3.340988e-01
7.245484e-01
6.148384e-01
4.873404e-01
3.026834e-01
2.302159e-01
2.871184e-01
1.614319e-01
1.523010e-01
1.033952e-01
-5.759645e-02
-4.006622e-02
-9.644582e-02
-5.665019e-02
5.729041e-02
3.650878e-01
7.128558e-01
9.478990e-01
-8.246653e-01
-1.728231e-01
-4.050171e-01
-2.616040e-01
-9.217144e-02
-3.012272e-01
-1.193340e-01
-1.572136e-01
-5.599885e-02
-2.186712e-02
-9.259913e-02
1.001670e-01
3.878217e-01
7.721303e-01
9.528995e-01
9.987355e-01
1 2 19 18
2 3 20 19
3 4 21 20
4 5 22 21
5 6 23 22
6 7 24 23
7 8 25 24
8 9 26 25
9 10 27 26
10 11 28 27
11 12 29 28
12 13 30 29
13 14 31 30
14 15 32 31
15 16 33 32
16 17 34 33
18 19 36 35
19 20 37 36
20 21 38 37
21 22 39 38
22 23 40 39
23 24 41 40
24 25 42 41
25 26 43 42
26 27 44 43
27 28 45 44
28 29 46 45
29 30 47 46
30 31 48 47
31 32 49 48
32 33 50 49
33 34 51 50
35 36 53 52
36 37 54 53
37 38 55 54
38 39 56 55
39 40 57 56
40 41 58 57
41 42 59 58
42 43 60 59
43 44 61 60
44 45 62 61
45 46 63 62
46 47 64 63
47 48 65 64
48 49 66 65
49 50 67 66
50 51 68 67
52 53 70 69
53 54 71 70
54 55 72 71
55 56 73 72
56 57 74 73
57 58 75 74
58 59 76 75
59 60 77 76
60 61 78 77
61 62 79 78
62 63 80 79
63 64 81 80
64 65 82 81
65 66 83 82
66 67 84 83
67 68 85 84
69 70 87 86
70 71 88 87
71 72 89 88
72 73 90 89
73 74 91 90
74 75 92 91
75 76 93 92
76 77 94 93
77 78 95 94
78 79 96 95
79 80 97 96
80 81 98 97
81 82 99 98
82 83 100 99
83 84 101 100
84 85 102 101
86 87 104 103
87 88 105 104
88 89 106 105
89 90 107 106
90 91 108 107
91 92 109 108
92 93 110 109
93 94 111 110
94 95 112 111
95 96 113 112
96 97 114 113
97 98 115 114
98 99 116 115
99 100 117 116
100 101 118 117
101 102 119 118
103 104 121 120
104 105 122 121
105 106 123 122
106 107 124 123
107 108 125 124
108 109 126 125
109 110 127 126
110 111 128 127
111 112 129 128
112 113 130 129
113 114 131 130
114 115 132 131
115 116 133 132
116 117 134 133
117 118 135 134
118 119 136 135
120 121 138 137
121 122 139 138
122 123 140 139
123 124 141 140
124 125 142 141
125 126 143 142
126 127 144 143
127 128 145 144
128 129 146 145
129 130 147 146
130 131 148 147
131 132 149 148
132 133 150 149
133 134 151 150
134 135 152 151
135 136 153 152
