TITLE = "Solution"
VARIABLES = x, y, u, v, psiu, psiv, t, stress
ZONE T="structure" N=561 E=512 F=FEBLOCK ET=QUADRILATERAL VARLOCATION=([7,8]=cellcentered)
0.000000e+00
6.250000e+00
1.250000e+01
1.875000e+01
2.500000e+01
3.125000e+01
3.750000e+01
4.375000e+01
5.000000e+01
5.625000e+01
6.250000e+01
6.875000e+01
7.500000e+01
8.125000e+01
8.750000e+01
9.375000e+01
1.000000e+02
1.062500e+02
1.125000e+02
1.187500e+02
1.250000e+02
1.312500e+02
1.375000e+02
1.437500e+02
1.500000e+02
1.562500e+02
1.625000e+02
1.687500e+02
1.750000e+02
1.812500e+02
1.875000e+02
1.937500e+02
2.000000e+02
0.000000e+00
6.250000e+00
1.250000e+01
1.875000e+01
2.500000e+01
3.125000e+01
3.750000e+01
4.375000e+01
5.000000e+01
5.625000e+01
6.250000e+01
6.875000e+01
7.500000e+01
8.125000e+01
8.750000e+01
9.375000e+01
1.000000e+02
1.062500e+02
1.125000e+02
1.187500e+02
1.250000e+02
1.312500e+02
1.375000e+02
1.437500e+02
1.500000e+02
1.562500e+02
1.625000e+02
1.687500e+02
1.750000e+02
1.812500e+02
1.875000e+02
1.937500e+02
2.000000e+02
0.000000e+00
6.250000e+00
1.250000e+01
1.875000e+01
2.500000e+01
3.125000e+01
3.750000e+01
4.375000e+01
5.000000e+01
5.625000e+01
6.250000e+01
6.875000e+01
7.500000e+01
8.125000e+01
8.750000e+01
9.375000e+01
1.000000e+02
1.062500e+02
1.125000e+02
1.187500e+02
1.250000e+02
1.312500e+02
1.375000e+02
1.437500e+02
1.500000e+02
1.562500e+02
1.625000e+02
1.687500e+02
1.750000e+02
1.812500e+02
1.875000e+02
1.937500e+02
2.000000e+02
0.000000e+00
6.250000e+00
1.250000e+01
1.875000e+01
2.500000e+01
3.125000e+01
3.750000e+01
4.375000e+01
5.000000e+01
5.625000e+01
6.250000e+01
6.875000e+01
7.500000e+01
8.125000e+01
8.750000e+01
9.375000e+01
1.000000e+02
1.062500e+02
1.125000e+02
1.187500e+02
1.250000e+02
1.312500e+02
1.375000e+02
1.437500e+02
1.500000e+02
1.562500e+02
1.625000e+02
1.687500e+02
1.750000e+02
1.812500e+02
1.875000e+02
1.937500e+02
2.000000e+02
0.000000e+00
6.250000e+00
1.250000e+01
1.875000e+01
2.500000e+01
3.125000e+01
3.750000e+01
4.375000e+01
5.000000e+01
5.625000e+01
6.250000e+01
6.875000e+01
7.500000e+01
8.125000e+01
8.750000e+01
9.375000e+01
1.000000e+02
1.062500e+02
1.125000e+02
1.187500e+02
1.250000e+02
1.312500e+02
1.375000e+02
1.437500e+02
1.500000e+02
1.562500e+02
1.625000e+02
1.687500e+02
1.750000e+02
1.812500e+02
1.875000e+02
1.937500e+02
2.000000e+02
0.000000e+00
6.250000e+00
1.250000e+01
1.875000e+01
2.500000e+01
3.125000e+01
3.750000e+01
4.375000e+01
5.000000e+01
5.625000e+01
6.250000e+01
6.875000e+01
7.500000e+01
8.125000e+01
8.750000e+01
9.375000e+01
1.000000e+02
1.062500e+02
1.125000e+02
1.187500e+02
1.250000e+02
1.312500e+02
1.375000e+02
1.437500e+02
1.500000e+02
1.562500e+02
1.625000e+02
1.687500e+02
1.750000e+02
1.812500e+02
1.875000e+02
1.937500e+02
2.000000e+02
0.000000e+00
6.250000e+00
1.250000e+01
1.875000e+01
2.500000e+01
3.125000e+01
3.750000e+01
4.375000e+01
5.000000e+01
5.625000e+01
6.250000e+01
6.875000e+01
7.500000e+01
8.125000e+01
8.750000e+01
9.375000e+01
1.000000e+02
1.062500e+02
1.125000e+02
1.187500e+02
1.250000e+02
1.312500e+02
1.375000e+02
1.437500e+02
1.500000e+02
1.562500e+02
1.625000e+02
1.687500e+02
1.750000e+02
1.812500e+02
1.875000e+02
1.937500e+02
2.000000e+02
0.000000e+00
6.250000e+00
1.250000e+01
1.875000e+01
2.500000e+01
3.125000e+01
3.750000e+01
4.375000e+01
5.000000e+01
5.625000e+01
6.250000e+01
6.875000e+01
7.500000e+01
8.125000e+01
8.750000e+01
9.375000e+01
1.000000e+02
1.062500e+02
1.125000e+02
1.187500e+02
1.250000e+02
1.312500e+02
1.375000e+02
1.437500e+02
1.500000e+02
1.562500e+02
1.625000e+02
1.687500e+02
1.750000e+02
1.812500e+02
1.875000e+02
1.937500e+02
2.000000e+02
0.000000e+00
6.250000e+00
1.250000e+01
1.875000e+01
2.500000e+01
3.125000e+01
3.750000e+01
4.375000e+01
5.000000e+01
5.625000e+01
6.250000e+01
6.875000e+01
7.500000e+01
8.125000e+01
8.750000e+01
9.375000e+01
1.000000e+02
1.062500e+02
1.125000e+02
1.187500e+02
1.250000e+02
1.312500e+02
1.375000e+02
1.437500e+02
1.500000e+02
1.562500e+02
1.625000e+02
1.687500e+02
1.750000e+02
1.812500e+02
1.875000e+02
1.937500e+02
2.000000e+02
0.000000e+00
6.250000e+00
1.250000e+01
1.875000e+01
2.500000e+01
3.125000e+01
3.750000e+01
4.375000e+01
5.000000e+01
5.625000e+01
6.250000e+01
6.875000e+01
7.500000e+01
8.125000e+01
8.750000e+01
9.375000e+01
1.000000e+02
1.062500e+02
1.125000e+02
1.187500e+02
1.250000e+02
1.312500e+02
1.375000e+02
1.437500e+02
1.500000e+02
1.562500e+02
1.625000e+02
1.687500e+02
1.750000e+02
1.812500e+02
1.875000e+02
1.937500e+02
2.000000e+02
0.000000e+00
6.250000e+00
1.250000e+01
1.875000e+01
2.500000e+01
3.125000e+01
3.750000e+01
4.375000e+01
5.000000e+01
5.625000e+01
6.250000e+01
6.875000e+01
7.500000e+01
8.125000e+01
8.750000e+01
9.375000e+01
1.000000e+02
1.062500e+02
1.125000e+02
1.187500e+02
1.250000e+02
1.312500e+02
1.375000e+02
1.437500e+02
1.500000e+02
1.562500e+02
1.625000e+02
1.687500e+02
1.750000e+02
1.812500e+02
1.875000e+02
1.937500e+02
2.000000e+02
0.000000e+00
6.250000e+00
1.250000e+01
1.875000e+01
2.500000e+01
3.125000e+01
3.750000e+01
4.375000e+01
5.000000e+01
5.625000e+01
6.250000e+01
6.875000e+01
7.500000e+01
8.125000e+01
8.750000e+01
9.375000e+01
1.000000e+02
1.062500e+02
1.125000e+02
1.187500e+02
1.250000e+02
1.312500e+02
1.375000e+02
1.437500e+02
1.500000e+02
1.562500e+02
1.625000e+02
1.687500e+02
1.750000e+02
1.812500e+02
1.875000e+02
1.937500e+02
2.000000e+02
0.000000e+00
6.250000e+00
1.250000e+01
1.875000e+01
2.500000e+01
3.125000e+01
3.750000e+01
4.375000e+01
5.000000e+01
5.625000e+01
6.250000e+01
6.875000e+01
7.500000e+01
8.125000e+01
8.750000e+01
9.375000e+01
1.000000e+02
1.062500e+02
1.125000e+02
1.187500e+02
1.250000e+02
1.312500e+02
1.375000e+02
1.437500e+02
1.500000e+02
1.562500e+02
1.625000e+02
1.687500e+02
1.750000e+02
1.812500e+02
1.875000e+02
1.937500e+02
2.000000e+02
0.000000e+00
6.250000e+00
1.250000e+01
1.875000e+01
2.500000e+01
3.125000e+01
3.750000e+01
4.375000e+01
5.000000e+01
5.625000e+01
6.250000e+01
6.875000e+01
7.500000e+01
8.125000e+01
8.750000e+01
9.375000e+01
1.000000e+02
1.062500e+02
1.125000e+02
1.187500e+02
1.250000e+02
1.312500e+02
1.375000e+02
1.437500e+02
1.500000e+02
1.562500e+02
1.625000e+02
1.687500e+02
1.750000e+02
1.812500e+02
1.875000e+02
1.937500e+02
2.000000e+02
0.000000e+00
6.250000e+00
1.250000e+01
1.875000e+01
2.500000e+01
3.125000e+01
3.750000e+01
4.375000e+01
5.000000e+01
5.625000e+01
6.250000e+01
6.875000e+01
7.500000e+01
8.125000e+01
8.750000e+01
9.375000e+01
1.000000e+02
1.062500e+02
1.125000e+02
1.187500e+02
1.250000e+02
1.312500e+02
1.375000e+02
1.437500e+02
1.500000e+02
1.562500e+02
1.625000e+02
1.687500e+02
1.750000e+02
1.812500e+02
1.875000e+02
1.937500e+02
2.000000e+02
0.000000e+00
6.250000e+00
1.250000e+01
1.875000e+01
2.500000e+01
3.125000e+01
3.750000e+01
4.375000e+01
5.000000e+01
5.625000e+01
6.250000e+01
6.875000e+01
7.500000e+01
8.125000e+01
8.750000e+01
9.375000e+01
1.000000e+02
1.062500e+02
1.125000e+02
1.187500e+02
1.250000e+02
1.312500e+02
1.375000e+02
1.437500e+02
1.500000e+02
1.562500e+02
1.625000e+02
1.687500e+02
1.750000e+02
1.812500e+02
1.875000e+02
1.937500e+02
2.000000e+02
0.000000e+00
6.250000e+00
1.250000e+01
1.875000e+01
2.500000e+01
3.125000e+01
3.750000e+01
4.375000e+01
5.000000e+01
5.625000e+01
6.250000e+01
6.875000e+01
7.500000e+01
8.125000e+01
8.750000e+01
9.375000e+01
1.000000e+02
1.062500e+02
1.125000e+02
1.187500e+02
1.250000e+02
1.312500e+02
1.375000e+02
1.437500e+02
1.500000e+02
1.562500e+02
1.625000e+02
1.687500e+02
1.750000e+02
1.812500e+02
1.875000e+02
1.937500e+02
2.000000e+02
0.000000e+00
0.000000e+00
0.000000e+00
0.000000e+00
0.000000e+00
0.000000e+00
0.000000e+00
0.000000e+00
0.000000e+00
0.000000e+00
0.000000e+00
0.000000e+00
0.000000e+00
0.000000e+00
0.000000e+00
0.000000e+00
0.000000e+00
0.000000e+00
0.000000e+00
0.000000e+00
0.000000e+00
0.000000e+00
0.000000e+00
0.000000e+00
0.000000e+00
0.000000e+00
0.000000e+00
0.000000e+00
0.000000e+00
0.000000e+00
0.000000e+00
0.000000e+00
0.000000e+00
6.250000e+00
6.250000e+00
6.250000e+00
6.250000e+00
6.250000e+00
6.250000e+00
6.250000e+00
6.250000e+00
6.250000e+00
6.250000e+00
6.250000e+00
6.250000e+00
6.250000e+00
6.250000e+00
6.250000e+00
6.250000e+00
6.250000e+00
6.250000e+00
6.250000e+00
6.250000e+00
6.250000e+00
6.250000e+00
6.250000e+00
6.250000e+00
6.250000e+00
6.250000e+00
6.250000e+00
6.250000e+00
6.250000e+00
6.250000e+00
6.250000e+00
6.250000e+00
6.250000e+00
1.250000e+01
1.250000e+01
1.250000e+01
1.250000e+01
1.250000e+01
1.250000e+01
1.250000e+01
1.250000e+01
1.250000e+01
1.250000e+01
1.250000e+01
1.250000e+01
1.250000e+01
1.250000e+01
1.250000e+01
1.250000e+01
1.250000e+01
1.250000e+01
1.250000e+01
1.250000e+01
1.250000e+01
1.250000e+01
1.250000e+01
1.250000e+01
1.250000e+01
1.250000e+01
1.250000e+01
1.250000e+01
1.250000e+01
1.250000e+01
1.250000e+01
1.250000e+01
1.250000e+01
1.875000e+01
1.875000e+01
1.875000e+01
1.875000e+01
1.875000e+01
1.875000e+01
1.875000e+01
1.875000e+01
1.875000e+01
1.875000e+01
1.875000e+01
1.875000e+01
1.875000e+01
1.875000e+01
1.875000e+01
1.875000e+01
1.875000e+01
1.875000e+01
1.875000e+01
1.875000e+01
1.875000e+01
1.875000e+01
1.875000e+01
1.875000e+01
1.875000e+01
1.875000e+01
1.875000e+01
1.875000e+01
1.875000e+01
1.875000e+01
1.875000e+01
1.875000e+01
1.875000e+01
2.500000e+01
2.500000e+01
2.500000e+01
2.500000e+01
2.500000e+01
2.500000e+01
2.500000e+01
2.500000e+01
2.500000e+01
2.500000e+01
2.500000e+01
2.500000e+01
2.500000e+01
2.500000e+01
2.500000e+01
2.500000e+01
2.500000e+01
2.500000e+01
2.500000e+01
2.500000e+01
2.500000e+01
2.500000e+01
2.500000e+01
2.500000e+01
2.500000e+01
2.500000e+01
2.500000e+01
2.500000e+01
2.500000e+01
2.500000e+01
2.500000e+01
2.500000e+01
2.500000e+01
3.125000e+01
3.125000e+01
3.125000e+01
3.125000e+01
3.125000e+01
3.125000e+01
3.125000e+01
3.125000e+01
3.125000e+01
3.125000e+01
3.125000e+01
3.125000e+01
3.125000e+01
3.125000e+01
3.125000e+01
3.125000e+01
3.125000e+01
3.125000e+01
3.125000e+01
3.125000e+01
3.125000e+01
3.125000e+01
3.125000e+01
3.125000e+01
3.125000e+01
3.125000e+01
3.125000e+01
3.125000e+01
3.125000e+01
3.125000e+01
3.125000e+01
3.125000e+01
3.125000e+01
3.750000e+01
3.750000e+01
3.750000e+01
3.750000e+01
3.750000e+01
3.750000e+01
3.750000e+01
3.750000e+01
3.750000e+01
3.750000e+01
3.750000e+01
3.750000e+01
3.750000e+01
3.750000e+01
3.750000e+01
3.750000e+01
3.750000e+01
3.750000e+01
3.750000e+01
3.750000e+01
3.750000e+01
3.750000e+01
3.750000e+01
3.750000e+01
3.750000e+01
3.750000e+01
3.750000e+01
3.750000e+01
3.750000e+01
3.750000e+01
3.750000e+01
3.750000e+01
3.750000e+01
4.375000e+01
4.375000e+01
4.375000e+01
4.375000e+01
4.375000e+01
4.375000e+01
4.375000e+01
4.375000e+01
4.375000e+01
4.375000e+01
4.375000e+01
4.375000e+01
4.375000e+01
4.375000e+01
4.375000e+01
4.375000e+01
4.375000e+01
4.375000e+01
4.375000e+01
4.375000e+01
4.375000e+01
4.375000e+01
4.375000e+01
4.375000e+01
4.375000e+01
4.375000e+01
4.375000e+01
4.375000e+01
4.375000e+01
4.375000e+01
4.375000e+01
4.375000e+01
4.375000e+01
5.000000e+01
5.000000e+01
5.000000e+01
5.000000e+01
5.000000e+01
5.000000e+01
5.000000e+01
5.000000e+01
5.000000e+01
5.000000e+01
5.000000e+01
5.000000e+01
5.000000e+01
5.000000e+01
5.000000e+01
5.000000e+01
5.000000e+01
5.000000e+01
5.000000e+01
5.000000e+01
5.000000e+01
5.000000e+01
5.000000e+01
5.000000e+01
5.000000e+01
5.000000e+01
5.000000e+01
5.000000e+01
5.000000e+01
5.000000e+01
5.000000e+01
5.000000e+01
5.000000e+01
5.625000e+01
5.625000e+01
5.625000e+01
5.625000e+01
5.625000e+01
5.625000e+01
5.625000e+01
5.625000e+01
5.625000e+01
5.625000e+01
5.625000e+01
5.625000e+01
5.625000e+01
5.625000e+01
5.625000e+01
5.625000e+01
5.625000e+01
5.625000e+01
5.625000e+01
5.625000e+01
5.625000e+01
5.625000e+01
5.625000e+01
5.625000e+01
5.625000e+01
5.625000e+01
5.625000e+01
5.625000e+01
5.625000e+01
5.625000e+01
5.625000e+01
5.625000e+01
5.625000e+01
6.250000e+01
6.250000e+01
6.250000e+01
6.250000e+01
6.250000e+01
6.250000e+01
6.250000e+01
6.250000e+01
6.250000e+01
6.250000e+01
6.250000e+01
6.250000e+01
6.250000e+01
6.250000e+01
6.250000e+01
6.250000e+01
6.250000e+01
6.250000e+01
6.250000e+01
6.250000e+01
6.250000e+01
6.250000e+01
6.250000e+01
6.250000e+01
6.250000e+01
6.250000e+01
6.250000e+01
6.250000e+01
6.250000e+01
6.250000e+01
6.250000e+01
6.250000e+01
6.250000e+01
6.875000e+01
6.875000e+01
6.875000e+01
6.875000e+01
6.875000e+01
6.875000e+01
6.875000e+01
6.875000e+01
6.875000e+01
6.875000e+01
6.875000e+01
6.875000e+01
6.875000e+01
6.875000e+01
6.875000e+01
6.875000e+01
6.875000e+01
6.875000e+01
6.875000e+01
6.875000e+01
6.875000e+01
6.875000e+01
6.875000e+01
6.875000e+01
6.875000e+01
6.875000e+01
6.875000e+01
6.875000e+01
6.875000e+01
6.875000e+01
6.875000e+01
6.875000e+01
6.875000e+01
7.500000e+01
7.500000e+01
7.500000e+01
7.500000e+01
7.500000e+01
7.500000e+01
7.500000e+01
7.500000e+01
7.500000e+01
7.500000e+01
7.500000e+01
7.500000e+01
7.500000e+01
7.500000e+01
7.500000e+01
7.500000e+01
7.500000e+01
7.500000e+01
7.500000e+01
7.500000e+01
7.500000e+01
7.500000e+01
7.500000e+01
7.500000e+01
7.500000e+01
7.500000e+01
7.500000e+01
7.500000e+01
7.500000e+01
7.500000e+01
7.500000e+01
7.500000e+01
7.500000e+01
8.125000e+01
8.125000e+01
8.125000e+01
8.125000e+01
8.125000e+01
8.125000e+01
8.125000e+01
8.125000e+01
8.125000e+01
8.125000e+01
8.125000e+01
8.125000e+01
8.125000e+01
8.125000e+01
8.125000e+01
8.125000e+01
8.125000e+01
8.125000e+01
8.125000e+01
8.125000e+01
8.125000e+01
8.125000e+01
8.125000e+01
8.125000e+01
8.125000e+01
8.125000e+01
8.125000e+01
8.125000e+01
8.125000e+01
8.125000e+01
8.125000e+01
8.125000e+01
8.125000e+01
8.750000e+01
8.750000e+01
8.750000e+01
8.750000e+01
8.750000e+01
8.750000e+01
8.750000e+01
8.750000e+01
8.750000e+01
8.750000e+01
8.750000e+01
8.750000e+01
8.750000e+01
8.750000e+01
8.750000e+01
8.750000e+01
8.750000e+01
8.750000e+01
8.750000e+01
8.750000e+01
8.750000e+01
8.750000e+01
8.750000e+01
8.750000e+01
8.750000e+01
8.750000e+01
8.750000e+01
8.750000e+01
8.750000e+01
8.750000e+01
8.750000e+01
8.750000e+01
8.750000e+01
9.375000e+01
9.375000e+01
9.375000e+01
9.375000e+01
9.375000e+01
9.375000e+01
9.375000e+01
9.375000e+01
9.375000e+01
9.375000e+01
9.375000e+01
9.375000e+01
9.375000e+01
9.375000e+01
9.375000e+01
9.375000e+01
9.375000e+01
9.375000e+01
9.375000e+01
9.375000e+01
9.375000e+01
9.375000e+01
9.375000e+01
9.375000e+01
9.375000e+01
9.375000e+01
9.375000e+01
9.375000e+01
9.375000e+01
9.375000e+01
9.375000e+01
9.375000e+01
9.375000e+01
1.000000e+02
1.000000e+02
1.000000e+02
1.000000e+02
1.000000e+02
1.000000e+02
1.000000e+02
1.000000e+02
1.000000e+02
1.000000e+02
1.000000e+02
1.000000e+02
1.000000e+02
1.000000e+02
1.000000e+02
1.000000e+02
1.000000e+02
1.000000e+02
1.000000e+02
1.000000e+02
1.000000e+02
1.000000e+02
1.000000e+02
1.000000e+02
1.000000e+02
1.000000e+02
1.000000e+02
1.000000e+02
1.000000e+02
1.000000e+02
1.000000e+02
1.000000e+02
1.000000e+02
0.000000e+00
-4.722091e-01
-7.826250e-01
-1.122616e+00
-1.424300e+00
-1.716226e+00
-2.028149e+00
-2.315502e+00
-2.615213e+00
-2.908801e+00
-3.205912e+00
-3.505011e+00
-3.804424e+00
-4.103978e+00
-4.404161e+00
-4.705171e+00
-5.007858e+00
-5.311135e+00
-5.613722e+00
-5.916171e+00
-6.218311e+00
-6.520199e+00
-6.822555e+00
-7.120010e+00
-7.413418e+00
-7.718278e+00
-8.017529e+00
-8.348511e+00
-8.667527e+00
-9.020893e+00
-9.509903e+00
-9.926410e+00
-1.013055e+01
0.000000e+00
-2.335345e-01
-4.702515e-01
-7.357779e-01
-1.001766e+00
-1.254492e+00
-1.524394e+00
-1.784661e+00
-2.047202e+00
-2.312174e+00
-2.572690e+00
-2.837783e+00
-3.098207e+00
-3.362082e+00
-3.623461e+00
-3.885703e+00
-4.148254e+00
-4.408757e+00
-4.671830e+00
-4.931734e+00
-5.194210e+00
-5.454380e+00
-5.715947e+00
-5.976191e+00
-6.237342e+00
-6.498456e+00
-6.757881e+00
-7.022101e+00
-7.276416e+00
-7.533312e+00
-7.787716e+00
-7.888840e+00
-7.994656e+00
0.000000e+00
-1.028744e-01
-2.378943e-01
-4.344031e-01
-6.530633e-01
-8.603554e-01
-1.086191e+00
-1.313693e+00
-1.541033e+00
-1.772643e+00
-1.996652e+00
-2.223776e+00
-2.446044e+00
-2.671225e+00
-2.894888e+00
-3.117420e+00
-3.339904e+00
-3.560246e+00
-3.783923e+00
-4.005993e+00
-4.230996e+00
-4.454208e+00
-4.678559e+00
-4.907695e+00
-5.137637e+00
-5.360669e+00
-5.572969e+00
-5.770373e+00
-5.949912e+00
-6.098895e+00
-6.186467e+00
-6.192059e+00
-6.284946e+00
0.000000e+00
-1.024789e-01
-1.859139e-01
-3.412187e-01
-4.642295e-01
-6.188374e-01
-7.959162e-01
-9.654918e-01
-1.158879e+00
-1.336539e+00
-1.521566e+00
-1.704259e+00
-1.886033e+00
-2.071880e+00
-2.255831e+00
-2.441366e+00
-2.626262e+00
-2.813091e+00
-3.002876e+00
-3.194212e+00
-3.388262e+00
-3.581711e+00
-3.776184e+00
-3.971329e+00
-4.157350e+00
-4.331380e+00
-4.480823e+00
-4.613125e+00
-4.713987e+00
-4.777440e+00
-4.792574e+00
-4.809911e+00
-4.890375e+00
0.000000e+00
-9.303662e-02
-1.846023e-01
-2.755853e-01
-3.890922e-01
-5.048257e-01
-6.370362e-01
-7.714219e-01
-9.164382e-01
-1.057483e+00
-1.203637e+00
-1.349121e+00
-1.492426e+00
-1.642096e+00
-1.784936e+00
-1.935258e+00
-2.080763e+00
-2.230197e+00
-2.379894e+00
-2.528395e+00
-2.679100e+00
-2.825205e+00
-2.969925e+00
-3.107285e+00
-3.235712e+00
-3.349798e+00
-3.446786e+00
-3.520812e+00
-3.569362e+00
-3.593810e+00
-3.597236e+00
-3.627030e+00
-3.698437e+00
0.000000e+00
-7.443908e-02
-1.459208e-01
-2.209356e-01
-3.024002e-01
-3.919541e-01
-4.867449e-01
-5.880144e-01
-6.917662e-01
-7.996245e-01
-9.070879e-01
-1.015883e+00
-1.124675e+00
-1.232679e+00
-1.342147e+00
-1.450122e+00
-1.559475e+00
-1.667496e+00
-1.775337e+00
-1.881942e+00
-1.985923e+00
-2.086938e+00
-2.181811e+00
-2.269473e+00
-2.347082e+00
-2.412744e+00
-2.464100e+00
-2.498991e+00
-2.521601e+00
-2.522011e+00
-2.517293e+00
-2.543757e+00
-2.609583e+00
0.000000e+00
-5.128405e-02
-1.020178e-01
-1.538765e-01
-2.093448e-01
-2.687068e-01
-3.321256e-01
-3.985432e-01
-4.677704e-01
-5.384583e-01
-6.101471e-01
-6.819205e-01
-7.534785e-01
-8.248415e-01
-8.956667e-01
-9.663234e-01
-1.036137e+00
-1.105107e+00
-1.172523e+00
-1.237819e+00
-1.300140e+00
-1.358075e+00
-1.410263e+00
-1.454826e+00
-1.490793e+00
-1.515913e+00
-1.529902e+00
-1.535381e+00
-1.519040e+00
-1.489162e+00
-1.477907e+00
-1.501206e+00
-1.565483e+00
0.000000e+00
-2.703548e-02
-5.391851e-02
-8.137873e-02
-1.101277e-01
-1.406154e-01
-1.727209e-01
-2.062983e-01
-2.409263e-01
-2.762759e-01
-3.117957e-01
-3.471282e-01
-3.819847e-01
-4.161949e-01
-4.497419e-01
-4.824378e-01
-5.140972e-01
-5.442799e-01
-5.726476e-01
-5.986756e-01
-6.216832e-01
-6.408475e-01
-6.549054e-01
-6.629081e-01
-6.632290e-01
-6.566291e-01
-6.407800e-01
-6.022816e-01
-5.525293e-01
-5.010105e-01
-4.741151e-01
-4.972673e-01
-5.642632e-01
0.000000e+00
-1.997509e-03
-4.042837e-03
-6.049854e-03
-7.904956e-03
-9.482035e-03
-1.071805e-02
-1.161988e-02
-1.223970e-02
-1.255568e-02
-1.246198e-02
-1.180246e-02
-1.042808e-02
-8.175131e-03
-4.810800e-03
-2.331341e-04
5.807295e-03
1.374288e-02
2.364381e-02
3.540003e-02
4.962302e-02
6.658073e-02
8.592510e-02
1.104404e-01
1.409507e-01
1.822690e-01
2.426708e-01
3.149837e-01
3.883972e-01
4.394240e-01
4.551744e-01
4.227919e-01
3.428200e-01
0.000000e+00
2.319103e-02
4.615421e-02
6.976538e-02
9.498537e-02
1.225246e-01
1.524265e-01
1.844306e-01
2.179846e-01
2.526481e-01
2.880606e-01
3.240921e-01
3.607195e-01
3.984012e-01
4.376737e-01
4.788950e-01
5.225566e-01
5.683856e-01
6.162981e-01
6.657010e-01
7.155046e-01
7.667657e-01
8.222796e-01
8.816888e-01
9.492290e-01
1.032450e+00
1.122347e+00
1.213979e+00
1.288406e+00
1.332241e+00
1.329233e+00
1.283271e+00
1.220412e+00
0.000000e+00
4.784479e-02
9.515413e-02
1.436908e-01
1.961637e-01
2.533074e-01
3.152756e-01
3.809582e-01
4.495770e-01
5.197941e-01
5.907709e-01
6.616244e-01
7.324566e-01
8.040080e-01
8.774640e-01
9.546085e-01
1.035753e+00
1.119669e+00
1.205254e+00
1.292031e+00
1.381716e+00
1.471219e+00
1.563387e+00
1.666299e+00
1.775025e+00
1.885829e+00
1.995359e+00
2.084250e+00
2.148271e+00
2.174776e+00
2.167140e+00
2.137199e+00
2.093087e+00
0.000000e+00
7.144872e-02
1.402092e-01
2.129037e-01
2.925066e-01
3.810786e-01
4.762480e-01
5.775340e-01
6.820055e-01
7.898746e-01
8.980922e-01
1.006821e+00
1.114971e+00
1.223643e+00
1.333234e+00
1.443532e+00
1.557462e+00
1.674732e+00
1.794405e+00
1.917380e+00
2.045991e+00
2.182353e+00
2.324499e+00
2.466770e+00
2.604988e+00
2.734229e+00
2.846483e+00
2.935463e+00
2.991012e+00
3.019006e+00
3.022499e+00
3.004468e+00
2.976926e+00
0.000000e+00
9.023355e-02
1.792285e-01
2.692764e-01
3.834819e-01
5.025831e-01
6.351787e-01
7.727507e-01
9.166140e-01
1.059833e+00
1.206705e+00
1.353123e+00
1.500407e+00
1.651619e+00
1.802464e+00
1.957501e+00
2.112771e+00
2.272859e+00
2.438463e+00
2.604940e+00
2.774086e+00
2.946099e+00
3.116207e+00
3.280865e+00
3.433942e+00
3.575046e+00
3.695975e+00
3.786817e+00
3.853342e+00
3.892513e+00
3.905440e+00
3.898917e+00
3.884406e+00
0.000000e+00
9.868865e-02
1.795696e-01
3.322008e-01
4.597932e-01
6.229200e-01
8.050880e-01
9.745777e-01
1.168278e+00
1.345434e+00
1.528272e+00
1.708308e+00
1.891092e+00
2.080759e+00
2.274849e+00
2.476423e+00
2.680364e+00
2.885966e+00
3.096237e+00
3.309521e+00
3.519944e+00
3.724735e+00
3.920956e+00
4.105578e+00
4.280310e+00
4.437720e+00
4.572962e+00
4.679883e+00
4.756444e+00
4.804224e+00
4.826425e+00
4.829237e+00
4.824499e+00
0.000000e+00
1.005433e-01
2.313529e-01
4.199117e-01
6.370999e-01
8.474739e-01
1.078795e+00
1.309955e+00
1.539861e+00
1.774552e+00
1.998195e+00
2.224086e+00
2.445814e+00
2.672382e+00
2.900302e+00
3.131798e+00
3.365805e+00
3.596945e+00
3.828466e+00
4.061019e+00
4.295333e+00
4.524254e+00
4.744742e+00
4.965969e+00
5.176953e+00
5.363473e+00
5.513069e+00
5.627776e+00
5.710263e+00
5.763142e+00
5.790838e+00
5.799891e+00
5.801003e+00
0.000000e+00
2.337877e-01
4.715313e-01
7.363733e-01
1.001708e+00
1.253938e+00
1.523078e+00
1.783764e+00
2.045653e+00
2.310337e+00
2.570235e+00
2.834446e+00
3.093824e+00
3.355844e+00
3.615642e+00
3.875323e+00
4.135331e+00
4.392720e+00
4.650525e+00
4.904478e+00
5.159826e+00
5.413220e+00
5.666500e+00
5.924979e+00
6.168955e+00
6.369806e+00
6.527311e+00
6.644131e+00
6.724335e+00
6.773541e+00
6.798683e+00
6.807789e+00
6.810027e+00
0.000000e+00
4.733862e-01
7.899295e-01
1.135259e+00
1.439878e+00
1.729645e+00
2.037750e+00
2.322485e+00
2.619174e+00
2.910100e+00
3.205773e+00
3.505284e+00
3.802767e+00
4.100233e+00
4.393688e+00
4.684762e+00
4.972287e+00
5.261513e+00
5.551983e+00
5.839925e+00
6.127510e+00
6.415579e+00
6.707392e+00
7.000113e+00
7.265611e+00
7.476433e+00
7.634605e+00
7.743490e+00
7.808359e+00
7.837477e+00
7.842567e+00
7.837946e+00
7.835391e+00
0.000000e+00
-2.792114e-01
-5.895614e-01
-9.864397e-01
-1.418736e+00
-1.888438e+00
-2.398764e+00
-2.939733e+00
-3.516255e+00
-4.124212e+00
-4.766094e+00
-5.443992e+00
-6.158340e+00
-6.910828e+00
-7.700117e+00
-8.528008e+00
-9.394311e+00
-1.030080e+01
-1.124724e+01
-1.223327e+01
-1.325938e+01
-1.432518e+01
-1.543241e+01
-1.657946e+01
-1.776408e+01
-1.898782e+01
-2.025497e+01
-2.157609e+01
-2.295777e+01
-2.442047e+01
-2.598119e+01
-2.778917e+01
-3.032664e+01
0.000000e+00
-1.801864e-01
-5.091217e-01
-8.986781e-01
-1.337804e+00
-1.804005e+00
-2.314210e+00
-2.857304e+00
-3.432046e+00
-4.041094e+00
-4.681924e+00
-5.360160e+00
-6.074238e+00
-6.826941e+00
-7.616232e+00
-8.443824e+00
-9.310268e+00
-1.021643e+01
-1.116327e+01
-1.214908e+01
-1.317536e+01
-1.424082e+01
-1.534815e+01
-1.649599e+01
-1.768035e+01
-1.890364e+01
-2.016924e+01
-2.148873e+01
-2.287194e+01
-2.432556e+01
-2.590560e+01
-2.770080e+01
-2.995173e+01
0.000000e+00
-1.592654e-01
-4.500247e-01
-8.421946e-01
-1.271237e+00
-1.735103e+00
-2.243331e+00
-2.784196e+00
-3.360334e+00
-3.968144e+00
-4.610120e+00
-5.288449e+00
-6.002715e+00
-6.755505e+00
-7.545415e+00
-8.373072e+00
-9.240055e+00
-1.014588e+01
-1.109266e+01
-1.207832e+01
-1.310443e+01
-1.416962e+01
-1.527534e+01
-1.642257e+01
-1.760790e+01
-1.883400e+01
-2.010148e+01
-2.142608e+01
-2.281309e+01
-2.428718e+01
-2.591014e+01
-2.759479e+01
-2.934311e+01
0.000000e+00
-2.046340e-01
-4.500658e-01
-8.387672e-01
-1.236562e+00
-1.689392e+00
-2.196139e+00
-2.723920e+00
-3.306569e+00
-3.908541e+00
-4.553543e+00
-5.232247e+00
-5.944701e+00
-6.700380e+00
-7.487826e+00
-8.318545e+00
-9.183960e+00
-1.009023e+01
-1.103666e+01
-1.202105e+01
-1.304817e+01
-1.411201e+01
-1.521694e+01
-1.636385e+01
-1.755158e+01
-1.878386e+01
-2.005748e+01
-2.138927e+01
-2.278503e+01
-2.427872e+01
-2.589434e+01
-2.744403e+01
-2.884315e+01
0.000000e+00
-2.207377e-01
-4.888663e-01
-8.340133e-01
-1.234365e+00
-1.669869e+00
-2.166950e+00
-2.689058e+00
-3.266618e+00
-3.868589e+00
-4.512502e+00
-5.193156e+00
-5.903937e+00
-6.662422e+00
-7.447740e+00
-8.280782e+00
-9.145194e+00
-1.005161e+01
-1.099803e+01
-1.198141e+01
-1.300912e+01
-1.407272e+01
-1.517906e+01
-1.632673e+01
-1.751810e+01
-1.875370e+01
-2.003551e+01
-2.137085e+01
-2.276919e+01
-2.425871e+01
-2.579404e+01
-2.724306e+01
-2.850987e+01
0.000000e+00
-2.276563e-01
-5.053004e-01
-8.399851e-01
-1.227821e+00
-1.663036e+00
-2.145327e+00
-2.669908e+00
-3.236950e+00
-3.841766e+00
-4.483823e+00
-5.163507e+00
-5.878754e+00
-6.632815e+00
-7.423493e+00
-8.252789e+00
-9.120273e+00
-1.002642e+01
-1.097279e+01
-1.195861e+01
-1.298541e+01
-1.405238e+01
-1.516044e+01
-1.631087e+01
-1.750438e+01
-1.874187e+01
-2.002624e+01
-2.136096e+01
-2.274852e+01
-2.419772e+01
-2.563899e+01
-2.700718e+01
-2.821219e+01
0.000000e+00
-2.313474e-01
-5.115138e-01
-8.431891e-01
-1.225761e+00
-1.656940e+00
-2.134585e+00
-2.656409e+00
-3.220353e+00
-3.824115e+00
-4.466295e+00
-5.145902e+00
-5.862715e+00
-6.616811e+00
-7.408462e+00
-8.238142e+00
-9.106313e+00
-1.001374e+01
-1.096099e+01
-1.194865e+01
-1.297710e+01
-1.404658e+01
-1.515750e+01
-1.631008e+01
-1.750493e+01
-1.874267e+01
-2.002312e+01
-2.135445e+01
-2.270971e+01
-2.410767e+01
-2.548415e+01
-2.678462e+01
-2.792653e+01
0.000000e+00
-2.327467e-01
-5.138358e-01
-8.446279e-01
-1.225153e+00
-1.654180e+00
-2.129891e+00
-2.650224e+00
-3.213114e+00
-3.816619e+00
-4.459137e+00
-5.139579e+00
-5.857310e+00
-6.612235e+00
-7.404566e+00
-8.234889e+00
-9.103976e+00
-1.001253e+01
-1.096120e+01
-1.195055e+01
-1.298100e+01
-1.405280e+01
-1.516594e+01
-1.632046e+01
-1.751430e+01
-1.875188e+01
-2.002462e+01
-2.133683e+01
-2.265742e+01
-2.400199e+01
-2.533275e+01
-2.657619e+01
-2.766240e+01
0.000000e+00
-2.330364e-01
-5.144300e-01
-8.452502e-01
-1.225629e+00
-1.654589e+00
-2.130391e+00
-2.650990e+00
-3.214355e+00
-3.818632e+00
-4.462228e+00
-5.143856e+00
-5.862722e+00
-6.618600e+00
-7.411674e+00
-8.242609e+00
-9.112627e+00
-1.002241e+01
-1.097228e+01
-1.196302e+01
-1.299519e+01
-1.406829e+01
-1.518274e+01
-1.633795e+01
-1.753085e+01
-1.876296e+01
-2.002145e+01
-2.130445e+01
-2.260102e+01
-2.389450e+01
-2.516559e+01
-2.633380e+01
-2.732530e+01
0.000000e+00
-2.325830e-01
-5.138916e-01
-8.453809e-01
-1.227209e+00
-1.658110e+00
-2.136005e+00
-2.658605e+00
-3.223815e+00
-3.829859e+00
-4.475195e+00
-5.158376e+00
-5.878462e+00
-6.635451e+00
-7.429467e+00
-8.260795e+00
-9.131990e+00
-1.004307e+01
-1.099395e+01
-1.198478e+01
-1.301855e+01
-1.409150e+01
-1.520429e+01
-1.636136e+01
-1.754706e+01
-1.876714e+01
-2.000851e+01
-2.126853e+01
-2.253584e+01
-2.379250e+01
-2.499757e+01
-2.609873e+01
-2.705769e+01
0.000000e+00
-2.311102e-01
-5.116910e-01
-8.446813e-01
-1.229913e+00
-1.665018e+00
-2.147164e+00
-2.673470e+00
-3.241809e+00
-3.850373e+00
-4.497886e+00
-5.182614e+00
-5.903615e+00
-6.661975e+00
-7.456966e+00
-8.289431e+00
-9.162114e+00
-1.007439e+01
-1.102641e+01
-1.201612e+01
-1.304925e+01
-1.412013e+01
-1.523066e+01
-1.638130e+01
-1.755836e+01
-1.876300e+01
-1.999320e+01
-2.123090e+01
-2.247262e+01
-2.368828e+01
-2.484780e+01
-2.591696e+01
-2.686544e+01
0.000000e+00
-2.274685e-01
-5.057663e-01
-8.422516e-01
-1.234029e+00
-1.675977e+00
-2.165038e+00
-2.696333e+00
-3.269373e+00
-3.880907e+00
-4.530415e+00
-5.216389e+00
-5.937496e+00
-6.696953e+00
-7.493066e+00
-8.328126e+00
-9.202434e+00
-1.011582e+01
-1.106776e+01
-1.205660e+01
-1.308488e+01
-1.415199e+01
-1.525675e+01
-1.639710e+01
-1.756495e+01
-1.876007e+01
-1.997835e+01
-2.120321e+01
-2.241805e+01
-2.360450e+01
-2.473457e+01
-2.578775e+01
-2.674021e+01
0.000000e+00
-2.204572e-01
-4.897337e-01
-8.374732e-01
-1.242547e+00
-1.689807e+00
-2.193949e+00
-2.726550e+00
-3.309179e+00
-3.920941e+00
-4.573156e+00
-5.259627e+00
-5.980052e+00
-6.742366e+00
-7.538782e+00
-8.377579e+00
-9.252832e+00
-1.016527e+01
-1.111569e+01
-1.210120e+01
-1.312432e+01
-1.418586e+01
-1.528253e+01
-1.641329e+01
-1.757394e+01
-1.876546e+01
-1.997802e+01
-2.118818e+01
-2.238316e+01
-2.354433e+01
-2.465580e+01
-2.570199e+01
-2.666919e+01
0.000000e+00
-2.033513e-01
-4.508766e-01
-8.430588e-01
-1.249733e+00
-1.715787e+00
-2.233477e+00
-2.769579e+00
-3.359846e+00
-3.971089e+00
-4.623967e+00
-5.309899e+00
-6.032852e+00
-6.797129e+00
-7.597054e+00
-8.437223e+00
-9.312637e+00
-1.022328e+01
-1.117019e+01
-1.215174e+01
-1.316970e+01
-1.422397e+01
-1.531183e+01
-1.643526e+01
-1.759735e+01
-1.878897e+01
-1.999429e+01
-2.118942e+01
-2.236543e+01
-2.350823e+01
-2.460618e+01
-2.565099e+01
-2.663845e+01
0.000000e+00
-1.564308e-01
-4.487653e-01
-8.460580e-01
-1.287252e+00
-1.764961e+00
-2.285231e+00
-2.834625e+00
-3.418966e+00
-4.034376e+00
-4.683142e+00
-5.369996e+00
-6.094772e+00
-6.860070e+00
-7.663113e+00
-8.503093e+00
-9.378329e+00
-1.028710e+01
-1.123168e+01
-1.221057e+01
-1.322418e+01
-1.427186e+01
-1.535259e+01
-1.647703e+01
-1.764193e+01
-1.883073e+01
-2.002172e+01
-2.120344e+01
-2.236402e+01
-2.349259e+01
-2.458058e+01
-2.562543e+01
-2.663324e+01
0.000000e+00
-1.768193e-01
-5.068402e-01
-9.028712e-01
-1.354703e+00
-1.835239e+00
-2.357174e+00
-2.909582e+00
-3.492157e+00
-4.108217e+00
-4.755482e+00
-5.442322e+00
-6.167323e+00
-6.933099e+00
-7.736516e+00
-8.576605e+00
-9.450851e+00
-1.035803e+01
-1.130142e+01
-1.227889e+01
-1.329077e+01
-1.433526e+01
-1.541656e+01
-1.654230e+01
-1.770378e+01
-1.888008e+01
-2.005782e+01
-2.122646e+01
-2.237461e+01
-2.349207e+01
-2.457228e+01
-2.561623e+01
-2.663792e+01
0.000000e+00
-2.766696e-01
-5.884119e-01
-9.914696e-01
-1.435804e+00
-1.919093e+00
-2.441316e+00
-2.991795e+00
-3.576088e+00
-4.191013e+00
-4.839644e+00
-5.526141e+00
-6.251098e+00
-7.016451e+00
-7.819165e+00
-8.658788e+00
-9.532090e+00
-1.043933e+01
-1.138180e+01
-1.235875e+01
-1.337022e+01
-1.441486e+01