TITLE = "Solution"
VARIABLES = x, y, u, v, psiu, psiv, t, stress
ZONE T="structure" N=561 E=512 F=FEBLOCK ET=QUADRILATERAL VARLOCATION=([7,8]=cellcentered)
0.000000e+00
6.250000e+00
1.250000e+01
1.875000e+01
2.500000e+01
3.125000e+01
3.750000e+01
4.375000e+01
5.000000e+01
5.625000e+01
6.250000e+01
6.875000e+01
7.500000e+01
8.125000e+01
8.750000e+01
9.375000e+01
1.000000e+02
1.062500e+02
1.125000e+02
1.187500e+02
1.250000e+02
1.312500e+02
1.375000e+02
1.437500e+02
1.500000e+02
1.562500e+02
1.625000e+02
1.687500e+02
1.750000e+02
1.812500e+02
1.875000e+02
1.937500e+02
2.000000e+02
0.000000e+00
6.250000e+00
1.250000e+01
1.875000e+01
2.500000e+01
3.125000e+01
3.750000e+01
4.375000e+01
5.000000e+01
5.625000e+01
6.250000e+01
6.875000e+01
7.500000e+01
8.125000e+01
8.750000e+01
9.375000e+01
1.000000e+02
1.062500e+02
1.125000e+02
1.187500e+02
1.250000e+02
1.312500e+02
1.375000e+02
1.437500e+02
1.500000e+02
1.562500e+02
1.625000e+02
1.687500e+02
1.750000e+02
1.812500e+02
1.875000e+02
1.937500e+02
2.000000e+02
0.000000e+00
6.250000e+00
1.250000e+01
1.875000e+01
2.500000e+01
3.125000e+01
3.750000e+01
4.375000e+01
5.000000e+01
5.625000e+01
6.250000e+01
6.875000e+01
7.500000e+01
8.125000e+01
8.750000e+01
9.375000e+01
1.000000e+02
1.062500e+02
1.125000e+02
1.187500e+02
1.250000e+02
1.312500e+02
1.375000e+02
1.437500e+02
1.500000e+02
1.562500e+02
1.625000e+02
1.687500e+02
1.750000e+02
1.812500e+02
1.875000e+02
1.937500e+02
2.000000e+02
0.000000e+00
6.250000e+00
1.250000e+01
1.875000e+01
2.500000e+01
3.125000e+01
3.750000e+01
4.375000e+01
5.000000e+01
5.625000e+01
6.250000e+01
6.875000e+01
7.500000e+01
8.125000e+01
8.750000e+01
9.375000e+01
1.000000e+02
1.062500e+02
1.125000e+02
1.187500e+02
1.250000e+02
1.312500e+02
1.375000e+02
1.437500e+02
1.500000e+02
1.562500e+02
1.625000e+02
1.687500e+02
1.750000e+02
1.812500e+02
1.875000e+02
1.937500e+02
2.000000e+02
0.000000e+00
6.250000e+00
1.250000e+01
1.875000e+01
2.500000e+01
3.125000e+01
3.750000e+01
4.375000e+01
5.000000e+01
5.625000e+01
6.250000e+01
6.875000e+01
7.500000e+01
8.125000e+01
8.750000e+01
9.375000e+01
1.000000e+02
1.062500e+02
1.125000e+02
1.187500e+02
1.250000e+02
1.312500e+02
1.375000e+02
1.437500e+02
1.500000e+02
1.562500e+02
1.625000e+02
1.687500e+02
1.750000e+02
1.812500e+02
1.875000e+02
1.937500e+02
2.000000e+02
0.000000e+00
6.250000e+00
1.250000e+01
1.875000e+01
2.500000e+01
3.125000e+01
3.750000e+01
4.375000e+01
5.000000e+01
5.625000e+01
6.250000e+01
6.875000e+01
7.500000e+01
8.125000e+01
8.750000e+01
9.375000e+01
1.000000e+02
1.062500e+02
1.125000e+02
1.187500e+02
1.250000e+02
1.312500e+02
1.375000e+02
1.437500e+02
1.500000e+02
1.562500e+02
1.625000e+02
1.687500e+02
1.750000e+02
1.812500e+02
1.875000e+02
1.937500e+02
2.000000e+02
0.000000e+00
6.250000e+00
1.250000e+01
1.875000e+01
2.500000e+01
3.125000e+01
3.750000e+01
4.375000e+01
5.000000e+01
5.625000e+01
6.250000e+01
6.875000e+01
7.500000e+01
8.125000e+01
8.750000e+01
9.375000e+01
1.000000e+02
1.062500e+02
1.125000e+02
1.187500e+02
1.250000e+02
1.312500e+02
1.375000e+02
1.437500e+02
1.500000e+02
1.562500e+02
1.625000e+02
1.687500e+02
1.750000e+02
1.812500e+02
1.875000e+02
1.937500e+02
2.000000e+02
0.000000e+00
6.250000e+00
1.250000e+01
1.875000e+01
2.500000e+01
3.125000e+01
3.750000e+01
4.375000e+01
5.000000e+01
5.625000e+01
6.250000e+01
6.875000e+01
7.500000e+01
8.125000e+01
8.750000e+01
9.375000e+01
1.000000e+02
1.062500e+02
1.125000e+02
1.187500e+02
1.250000e+02
1.312500e+02
1.375000e+02
1.437500e+02
1.500000e+02
1.562500e+02
1.625000e+02
1.687500e+02
1.750000e+02
1.812500e+02
1.875000e+02
1.937500e+02
2.000000e+02
0.000000e+00
6.250000e+00
1.250000e+01
1.875000e+01
2.500000e+01
3.125000e+01
3.750000e+01
4.375000e+01
5.000000e+01
5.625000e+01
6.250000e+01
6.875000e+01
7.500000e+01
8.125000e+01
8.750000e+01
9.375000e+01
1.000000e+02
1.062500e+02
1.125000e+02
1.187500e+02
1.250000e+02
1.312500e+02
1.375000e+02
1.437500e+02
1.500000e+02
1.562500e+02
1.625000e+02
1.687500e+02
1.750000e+02
1.812500e+02
1.875000e+02
1.937500e+02
2.000000e+02
0.000000e+00
6.250000e+00
1.250000e+01
1.875000e+01
2.500000e+01
3.125000e+01
3.750000e+01
4.375000e+01
5.000000e+01
5.625000e+01
6.250000e+01
6.875000e+01
7.500000e+01
8.125000e+01
8.750000e+01
9.375000e+01
1.000000e+02
1.062500e+02
1.125000e+02
1.187500e+02
1.250000e+02
1.312500e+02
1.375000e+02
1.437500e+02
1.500000e+02
1.562500e+02
1.625000e+02
1.687500e+02
1.750000e+02
1.812500e+02
1.875000e+02
1.937500e+02
2.000000e+02
0.000000e+00
6.250000e+00
1.250000e+01
1.875000e+01
2.500000e+01
3.125000e+01
3.750000e+01
4.375000e+01
5.000000e+01
5.625000e+01
6.250000e+01
6.875000e+01
7.500000e+01
8.125000e+01
8.750000e+01
9.375000e+01
1.000000e+02
1.062500e+02
1.125000e+02
1.187500e+02
1.250000e+02
1.312500e+02
1.375000e+02
1.437500e+02
1.500000e+02
1.562500e+02
1.625000e+02
1.687500e+02
1.750000e+02
1.812500e+02
1.875000e+02
1.937500e+02
2.000000e+02
0.000000e+00
6.250000e+00
1.250000e+01
1.875000e+01
2.500000e+01
3.125000e+01
3.750000e+01
4.375000e+01
5.000000e+01
5.625000e+01
6.250000e+01
6.875000e+01
7.500000e+01
8.125000e+01
8.750000e+01
9.375000e+01
1.000000e+02
1.062500e+02
1.125000e+02
1.187500e+02
1.250000e+02
1.312500e+02
1.375000e+02
1.437500e+02
1.500000e+02
1.562500e+02
1.625000e+02
1.687500e+02
1.750000e+02
1.812500e+02
1.875000e+02
1.937500e+02
2.000000e+02
0.000000e+00
6.250000e+00
1.250000e+01
1.875000e+01
2.500000e+01
3.125000e+01
3.750000e+01
4.375000e+01
5.000000e+01
5.625000e+01
6.250000e+01
6.875000e+01
7.500000e+01
8.125000e+01
8.750000e+01
9.375000e+01
1.000000e+02
1.062500e+02
1.125000e+02
1.187500e+02
1.250000e+02
1.312500e+02
1.375000e+02
1.437500e+02
1.500000e+02
1.562500e+02
1.625000e+02
1.687500e+02
1.750000e+02
1.812500e+02
1.875000e+02
1.937500e+02
2.000000e+02
0.000000e+00
6.250000e+00
1.250000e+01
1.875000e+01
2.500000e+01
3.125000e+01
3.750000e+01
4.375000e+01
5.000000e+01
5.625000e+01
6.250000e+01
6.875000e+01
7.500000e+01
8.125000e+01
8.750000e+01
9.375000e+01
1.000000e+02
1.062500e+02
1.125000e+02
1.187500e+02
1.250000e+02
1.312500e+02
1.375000e+02
1.437500e+02
1.500000e+02
1.562500e+02
1.625000e+02
1.687500e+02
1.750000e+02
1.812500e+02
1.875000e+02
1.937500e+02
2.000000e+02
0.000000e+00
6.250000e+00
1.250000e+01
1.875000e+01
2.500000e+01
3.125000e+01
3.750000e+01
4.375000e+01
5.000000e+01
5.625000e+01
6.250000e+01
6.875000e+01
7.500000e+01
8.125000e+01
8.750000e+01
9.375000e+01
1.000000e+02
1.062500e+02
1.125000e+02
1.187500e+02
1.250000e+02
1.312500e+02
1.375000e+02
1.437500e+02
1.500000e+02
1.562500e+02
1.625000e+02
1.687500e+02
1.750000e+02
1.812500e+02
1.875000e+02
1.937500e+02
2.000000e+02
0.000000e+00
6.250000e+00
1.250000e+01
1.875000e+01
2.500000e+01
3.125000e+01
3.750000e+01
4.375000e+01
5.000000e+01
5.625000e+01
6.250000e+01
6.875000e+01
7.500000e+01
8.125000e+01
8.750000e+01
9.375000e+01
1.000000e+02
1.062500e+02
1.125000e+02
1.187500e+02
1.250000e+02
1.312500e+02
1.375000e+02
1.437500e+02
1.500000e+02
1.562500e+02
1.625000e+02
1.687500e+02
1.750000e+02
1.812500e+02
1.875000e+02
1.937500e+02
2.000000e+02
0.000000e+00
6.250000e+00
1.250000e+01
1.875000e+01
2.500000e+01
3.125000e+01
3.750000e+01
4.375000e+01
5.000000e+01
5.625000e+01
6.250000e+01
6.875000e+01
7.500000e+01
8.125000e+01
8.750000e+01
9.375000e+01
1.000000e+02
1.062500e+02
1.125000e+02
1.187500e+02
1.250000e+02
1.312500e+02
1.375000e+02
1.437500e+02
1.500000e+02
1.562500e+02
1.625000e+02
1.687500e+02
1.750000e+02
1.812500e+02
1.875000e+02
1.937500e+02
2.000000e+02
0.000000e+00
0.000000e+00
0.000000e+00
0.000000e+00
0.000000e+00
0.000000e+00
0.000000e+00
0.000000e+00
0.000000e+00
0.000000e+00
0.000000e+00
0.000000e+00
0.000000e+00
0.000000e+00
0.000000e+00
0.000000e+00
0.000000e+00
0.000000e+00
0.000000e+00
0.000000e+00
0.000000e+00
0.000000e+00
0.000000e+00
0.000000e+00
0.000000e+00
0.000000e+00
0.000000e+00
0.000000e+00
0.000000e+00
0.000000e+00
0.000000e+00
0.000000e+00
0.000000e+00
6.250000e+00
6.250000e+00
6.250000e+00
6.250000e+00
6.250000e+00
6.250000e+00
6.250000e+00
6.250000e+00
6.250000e+00
6.250000e+00
6.250000e+00
6.250000e+00
6.250000e+00
6.250000e+00
6.250000e+00
6.250000e+00
6.250000e+00
6.250000e+00
6.250000e+00
6.250000e+00
6.250000e+00
6.250000e+00
6.250000e+00
6.250000e+00
6.250000e+00
6.250000e+00
6.250000e+00
6.250000e+00
6.250000e+00
6.250000e+00
6.250000e+00
6.250000e+00
6.250000e+00
1.250000e+01
1.250000e+01
1.250000e+01
1.250000e+01
1.250000e+01
1.250000e+01
1.250000e+01
1.250000e+01
1.250000e+01
1.250000e+01
1.250000e+01
1.250000e+01
1.250000e+01
1.250000e+01
1.250000e+01
1.250000e+01
1.250000e+01
1.250000e+01
1.250000e+01
1.250000e+01
1.250000e+01
1.250000e+01
1.250000e+01
1.250000e+01
1.250000e+01
1.250000e+01
1.250000e+01
1.250000e+01
1.250000e+01
1.250000e+01
1.250000e+01
1.250000e+01
1.250000e+01
1.875000e+01
1.875000e+01
1.875000e+01
1.875000e+01
1.875000e+01
1.875000e+01
1.875000e+01
1.875000e+01
1.875000e+01
1.875000e+01
1.875000e+01
1.875000e+01
1.875000e+01
1.875000e+01
1.875000e+01
1.875000e+01
1.875000e+01
1.875000e+01
1.875000e+01
1.875000e+01
1.875000e+01
1.875000e+01
1.875000e+01
1.875000e+01
1.875000e+01
1.875000e+01
1.875000e+01
1.875000e+01
1.875000e+01
1.875000e+01
1.875000e+01
1.875000e+01
1.875000e+01
2.500000e+01
2.500000e+01
2.500000e+01
2.500000e+01
2.500000e+01
2.500000e+01
2.500000e+01
2.500000e+01
2.500000e+01
2.500000e+01
2.500000e+01
2.500000e+01
2.500000e+01
2.500000e+01
2.500000e+01
2.500000e+01
2.500000e+01
2.500000e+01
2.500000e+01
2.500000e+01
2.500000e+01
2.500000e+01
2.500000e+01
2.500000e+01
2.500000e+01
2.500000e+01
2.500000e+01
2.500000e+01
2.500000e+01
2.500000e+01
2.500000e+01
2.500000e+01
2.500000e+01
3.125000e+01
3.125000e+01
3.125000e+01
3.125000e+01
3.125000e+01
3.125000e+01
3.125000e+01
3.125000e+01
3.125000e+01
3.125000e+01
3.125000e+01
3.125000e+01
3.125000e+01
3.125000e+01
3.125000e+01
3.125000e+01
3.125000e+01
3.125000e+01
3.125000e+01
3.125000e+01
3.125000e+01
3.125000e+01
3.125000e+01
3.125000e+01
3.125000e+01
3.125000e+01
3.125000e+01
3.125000e+01
3.125000e+01
3.125000e+01
3.125000e+01
3.125000e+01
3.125000e+01
3.750000e+01
3.750000e+01
3.750000e+01
3.750000e+01
3.750000e+01
3.750000e+01
3.750000e+01
3.750000e+01
3.750000e+01
3.750000e+01
3.750000e+01
3.750000e+01
3.750000e+01
3.750000e+01
3.750000e+01
3.750000e+01
3.750000e+01
3.750000e+01
3.750000e+01
3.750000e+01
3.750000e+01
3.750000e+01
3.750000e+01
3.750000e+01
3.750000e+01
3.750000e+01
3.750000e+01
3.750000e+01
3.750000e+01
3.750000e+01
3.750000e+01
3.750000e+01
3.750000e+01
4.375000e+01
4.375000e+01
4.375000e+01
4.375000e+01
4.375000e+01
4.375000e+01
4.375000e+01
4.375000e+01
4.375000e+01
4.375000e+01
4.375000e+01
4.375000e+01
4.375000e+01
4.375000e+01
4.375000e+01
4.375000e+01
4.375000e+01
4.375000e+01
4.375000e+01
4.375000e+01
4.375000e+01
4.375000e+01
4.375000e+01
4.375000e+01
4.375000e+01
4.375000e+01
4.375000e+01
4.375000e+01
4.375000e+01
4.375000e+01
4.375000e+01
4.375000e+01
4.375000e+01
5.000000e+01
5.000000e+01
5.000000e+01
5.000000e+01
5.000000e+01
5.000000e+01
5.000000e+01
5.000000e+01
5.000000e+01
5.000000e+01
5.000000e+01
5.000000e+01
5.000000e+01
5.000000e+01
5.000000e+01
5.000000e+01
5.000000e+01
5.000000e+01
5.000000e+01
5.000000e+01
5.000000e+01
5.000000e+01
5.000000e+01
5.000000e+01
5.000000e+01
5.000000e+01
5.000000e+01
5.000000e+01
5.000000e+01
5.000000e+01
5.000000e+01
5.000000e+01
5.000000e+01
5.625000e+01
5.625000e+01
5.625000e+01
5.625000e+01
5.625000e+01
5.625000e+01
5.625000e+01
5.625000e+01
5.625000e+01
5.625000e+01
5.625000e+01
5.625000e+01
5.625000e+01
5.625000e+01
5.625000e+01
5.625000e+01
5.625000e+01
5.625000e+01
5.625000e+01
5.625000e+01
5.625000e+01
5.625000e+01
5.625000e+01
5.625000e+01
5.625000e+01
5.625000e+01
5.625000e+01
5.625000e+01
5.625000e+01
5.625000e+01
5.625000e+01
5.625000e+01
5.625000e+01
6.250000e+01
6.250000e+01
6.250000e+01
6.250000e+01
6.250000e+01
6.250000e+01
6.250000e+01
6.250000e+01
6.250000e+01
6.250000e+01
6.250000e+01
6.250000e+01
6.250000e+01
6.250000e+01
6.250000e+01
6.250000e+01
6.250000e+01
6.250000e+01
6.250000e+01
6.250000e+01
6.250000e+01
6.250000e+01
6.250000e+01
6.250000e+01
6.250000e+01
6.250000e+01
6.250000e+01
6.250000e+01
6.250000e+01
6.250000e+01
6.250000e+01
6.250000e+01
6.250000e+01
6.875000e+01
6.875000e+01
6.875000e+01
6.875000e+01
6.875000e+01
6.875000e+01
6.875000e+01
6.875000e+01
6.875000e+01
6.875000e+01
6.875000e+01
6.875000e+01
6.875000e+01
6.875000e+01
6.875000e+01
6.875000e+01
6.875000e+01
6.875000e+01
6.875000e+01
6.875000e+01
6.875000e+01
6.875000e+01
6.875000e+01
6.875000e+01
6.875000e+01
6.875000e+01
6.875000e+01
6.875000e+01
6.875000e+01
6.875000e+01
6.875000e+01
6.875000e+01
6.875000e+01
7.500000e+01
7.500000e+01
7.500000e+01
7.500000e+01
7.500000e+01
7.500000e+01
7.500000e+01
7.500000e+01
7.500000e+01
7.500000e+01
7.500000e+01
7.500000e+01
7.500000e+01
7.500000e+01
7.500000e+01
7.500000e+01
7.500000e+01
7.500000e+01
7.500000e+01
7.500000e+01
7.500000e+01
7.500000e+01
7.500000e+01
7.500000e+01
7.500000e+01
7.500000e+01
7.500000e+01
7.500000e+01
7.500000e+01
7.500000e+01
7.500000e+01
7.500000e+01
7.500000e+01
8.125000e+01
8.125000e+01
8.125000e+01
8.125000e+01
8.125000e+01
8.125000e+01
8.125000e+01
8.125000e+01
8.125000e+01
8.125000e+01
8.125000e+01
8.125000e+01
8.125000e+01
8.125000e+01
8.125000e+01
8.125000e+01
8.125000e+01
8.125000e+01
8.125000e+01
8.125000e+01
8.125000e+01
8.125000e+01
8.125000e+01
8.125000e+01
8.125000e+01
8.125000e+01
8.125000e+01
8.125000e+01
8.125000e+01
8.125000e+01
8.125000e+01
8.125000e+01
8.125000e+01
8.750000e+01
8.750000e+01
8.750000e+01
8.750000e+01
8.750000e+01
8.750000e+01
8.750000e+01
8.750000e+01
8.750000e+01
8.750000e+01
8.750000e+01
8.750000e+01
8.750000e+01
8.750000e+01
8.750000e+01
8.750000e+01
8.750000e+01
8.750000e+01
8.750000e+01
8.750000e+01
8.750000e+01
8.750000e+01
8.750000e+01
8.750000e+01
8.750000e+01
8.750000e+01
8.750000e+01
8.750000e+01
8.750000e+01
8.750000e+01
8.750000e+01
8.750000e+01
8.750000e+01
9.375000e+01
9.375000e+01
9.375000e+01
9.375000e+01
9.375000e+01
9.375000e+01
9.375000e+01
9.375000e+01
9.375000e+01
9.375000e+01
9.375000e+01
9.375000e+01
9.375000e+01
9.375000e+01
9.375000e+01
9.375000e+01
9.375000e+01
9.375000e+01
9.375000e+01
9.375000e+01
9.375000e+01
9.375000e+01
9.375000e+01
9.375000e+01
9.375000e+01
9.375000e+01
9.375000e+01
9.375000e+01
9.375000e+01
9.375000e+01
9.375000e+01
9.375000e+01
9.375000e+01
1.000000e+02
1.000000e+02
1.000000e+02
1.000000e+02
1.000000e+02
1.000000e+02
1.000000e+02
1.000000e+02
1.000000e+02
1.000000e+02
1.000000e+02
1.000000e+02
1.000000e+02
1.000000e+02
1.000000e+02
1.000000e+02
1.000000e+02
1.000000e+02
1.000000e+02
1.000000e+02
1.000000e+02
1.000000e+02
1.000000e+02
1.000000e+02
1.000000e+02
1.000000e+02
1.000000e+02
1.000000e+02
1.000000e+02
1.000000e+02
1.000000e+02
1.000000e+02
1.000000e+02
0.000000e+00
-3.669408e-01
-6.548332e-01
-9.312341e-01
-1.215584e+00
-1.495015e+00
-1.770327e+00
-2.045362e+00
-2.320089e+00
-2.593389e+00
-2.864969e+00
-3.134700e+00
-3.402232e+00
-3.667338e+00
-3.930062e+00
-4.190492e+00
-4.448514e+00
-4.703787e+00
-4.955849e+00
-5.204183e+00
-5.448130e+00
-5.686908e+00
-5.919876e+00
-6.146936e+00
-6.368844e+00
-6.587407e+00
-6.805724e+00
-7.028618e+00
-7.263590e+00
-7.521332e+00
-7.805163e+00
-8.097790e+00
-8.265400e+00
0.000000e+00
-2.320296e-01
-4.759872e-01
-7.160459e-01
-9.641913e-01
-1.208702e+00
-1.449383e+00
-1.689864e+00
-1.930252e+00
-2.169436e+00
-2.407068e+00
-2.643022e+00
-2.876984e+00
-3.108743e+00
-3.338353e+00
-3.565914e+00
-3.791344e+00
-4.014332e+00
-4.234442e+00
-4.451149e+00
-4.663749e+00
-4.871320e+00
-5.072909e+00
-5.267801e+00
-5.455676e+00
-5.636653e+00
-5.811285e+00
-5.980364e+00
-6.143736e+00
-6.294710e+00
-6.408324e+00
-6.465596e+00
-6.540408e+00
0.000000e+00
-1.700683e-01
-3.501604e-01
-5.459474e-01
-7.521982e-01
-9.581469e-01
-1.163162e+00
-1.368914e+00
-1.574966e+00
-1.780333e+00
-1.984590e+00
-2.187477e+00
-2.388664e+00
-2.587944e+00
-2.785289e+00
-2.980687e+00
-3.173959e+00
-3.364730e+00
-3.552476e+00
-3.736538e+00
-3.916039e+00
-4.089864e+00
-4.256763e+00
-4.415467e+00
-4.564693e+00
-4.703084e+00
-4.829008e+00
-4.939926e+00
-5.030639e+00
-5.089977e+00
-5.105280e+00
-5.099859e+00
-5.178016e+00
0.000000e+00
-1.286607e-01
-2.657158e-01
-4.172905e-01
-5.801601e-01
-7.464944e-01
-9.151334e-01
-1.085681e+00
-1.257086e+00
-1.428435e+00
-1.599204e+00
-1.768979e+00
-1.937390e+00
-2.104189e+00
-2.269219e+00
-2.432294e+00
-2.593096e+00
-2.751146e+00
-2.905815e+00
-3.056302e+00
-3.201585e+00
-3.340416e+00
-3.471351e+00
-3.592758e+00
-3.702760e+00
-3.799161e+00
-3.879299e+00
-3.939671e+00
-3.975536e+00
-3.982420e+00
-3.968474e+00
-3.971445e+00
-4.043894e+00
0.000000e+00
-1.012439e-01
-2.067924e-01
-3.215097e-01
-4.441387e-01
-5.724904e-01
-7.047324e-01
-8.394977e-01
-9.756328e-01
-1.112285e+00
-1.248817e+00
-1.384722e+00
-1.519600e+00
-1.653141e+00
-1.785059e+00
-1.915024e+00
-2.042606e+00
-2.167249e+00
-2.288254e+00
-2.404744e+00
-2.515640e+00
-2.619654e+00
-2.715287e+00
-2.800801e+00
-2.874194e+00
-2.933221e+00
-2.975474e+00
-2.998607e+00
-3.001375e+00
-2.987578e+00
-2.975758e+00
-2.998453e+00
-3.067819e+00
0.000000e+00
-7.560672e-02
-1.538070e-01
-2.367324e-01
-3.252918e-01
-4.186969e-01
-5.158312e-01
-6.154839e-01
-7.166655e-01
-8.186078e-01
-9.206960e-01
-1.022435e+00
-1.123425e+00
-1.223316e+00
-1.321753e+00
-1.418331e+00
-1.512565e+00
-1.603865e+00
-1.691513e+00
-1.774628e+00
-1.852160e+00
-1.922883e+00
-1.985393e+00
-2.038117e+00
-2.079361e+00
-2.107461e+00
-2.121100e+00
-2.119998e+00
-2.106548e+00
-2.089251e+00
-2.086640e+00
-2.117557e+00
-2.184652e+00
0.000000e+00
-5.021482e-02
-1.019005e-01
-1.562958e-01
-2.140529e-01
-2.750880e-01
-3.388033e-01
-4.044542e-01
-4.713499e-01
-5.389135e-01
-6.066630e-01
-6.741948e-01
-7.411614e-01
-8.072328e-01
-8.720576e-01
-9.352343e-01
-9.962908e-01
-1.054664e+00
-1.109675e+00
-1.160514e+00
-1.206238e+00
-1.245783e+00
-1.277987e+00
-1.301654e+00
-1.315678e+00
-1.319289e+00
-1.312507e+00
-1.296946e+00
-1.277191e+00
-1.262633e+00
-1.267027e+00
-1.300992e+00
-1.362801e+00
0.000000e+00
-2.509227e-02
-5.089460e-02
-7.794403e-02
-1.065696e-01
-1.367817e-01
-1.683442e-01
-2.009040e-01
-2.341055e-01
-2.676277e-01
-3.011865e-01
-3.345272e-01
-3.674095e-01
-3.995854e-01
-4.307755e-01
-4.606508e-01
-4.888167e-01
-5.147971e-01
-5.380205e-01
-5.578156e-01
-5.734235e-01
-5.840285e-01
-5.888169e-01
-5.870810e-01
-5.783978e-01
-5.629143e-01
-5.417846e-01
-5.178073e-01
-4.962043e-01
-4.849896e-01
-4.932996e-01
-5.262096e-01
-5.797238e-01
0.000000e+00
-1.964367e-04
-3.867369e-04
-5.607527e-04
-7.058690e-04
-8.068132e-04
-8.450033e-04
-7.968472e-04
-6.311645e-04
-3.062512e-04
2.331906e-04
1.059700e-03
2.267848e-03
3.980471e-03
6.356737e-03
9.602489e-03
1.398197e-02
1.982761e-02
2.754337e-02
3.759732e-02
5.049876e-02
6.675173e-02
8.677281e-02
1.107597e-01
1.385002e-01
1.691140e-01
2.007247e-01
2.300987e-01
2.524327e-01
2.617473e-01
2.526863e-01
2.238192e-01
1.802341e-01
0.000000e+00
2.470896e-02
5.013865e-02
7.684576e-02
1.051842e-01
1.351944e-01
1.666770e-01
1.993254e-01
2.328448e-01
2.669953e-01
3.015997e-01
3.365423e-01
3.717632e-01
4.072464e-01
4.430106e-01
4.791112e-01
5.156470e-01
5.527640e-01
5.906491e-01
6.295150e-01
6.695725e-01
7.109757e-01
7.537309e-01
7.975658e-01
8.417672e-01
8.849931e-01
9.250803e-01
9.589273e-01
9.826406e-01
9.922264e-01
9.850914e-01
9.620750e-01
9.287522e-01
0.000000e+00
4.985793e-02
1.011933e-01
1.552629e-01
2.127408e-01
2.735712e-01
3.371898e-01
4.028957e-01
4.700541e-01
5.381619e-01
6.068324e-01
6.757850e-01
7.448278e-01
8.138254e-01
8.826697e-01
9.512685e-01
1.019546e+00
1.087439e+00
1.154884e+00
1.221802e+00
1.288066e+00
1.353456e+00
1.417570e+00
1.479730e+00
1.538880e+00
1.593483e+00
1.641435e+00
1.680105e+00
1.706632e+00
1.718639e+00
1.715368e+00
1.698989e+00
1.675375e+00
0.000000e+00
7.528849e-02
1.531731e-01
2.358003e-01
3.240937e-01
4.172854e-01
5.142859e-01
6.139210e-01
7.152494e-01
8.175632e-01
9.203242e-01
1.023134e+00
1.125712e+00
1.227848e+00
1.329355e+00
1.430032e+00
1.529654e+00
1.627950e+00
1.724587e+00
1.819167e+00
1.911191e+00
2.000030e+00
2.084869e+00
2.164680e+00
2.238195e+00
2.303876e+00
2.359905e+00
2.404269e+00
2.435075e+00
2.451143e+00
2.452851e+00
2.443109e+00
2.428064e+00
0.000000e+00
1.009761e-01
2.062571e-01
3.207204e-01
4.431085e-01
5.712395e-01
7.032973e-01
8.379432e-01
9.740609e-01
1.110840e+00
1.247693e+00
1.384173e+00
1.519953e+00
1.654795e+00
1.788496e+00
1.920825e+00
2.051463e+00
2.179954e+00
2.305701e+00
2.427956e+00
2.545796e+00
2.658116e+00
2.763654e+00
2.861048e+00
2.948888e+00
3.025748e+00
3.090210e+00
3.140943e+00
3.176937e+00
3.197910e+00
3.204935e+00
3.201280e+00
3.193302e+00
0.000000e+00
1.284716e-01
2.653321e-01
4.167241e-01
5.794072e-01
7.455363e-01
9.139553e-01
1.084289e+00
1.255513e+00
1.426740e+00
1.597458e+00
1.767274e+00
1.935829e+00
2.102874e+00
2.268253e+00
2.431787e+00
2.593132e+00
2.751695e+00
2.906630e+00
3.056823e+00
3.200847e+00
3.337009e+00
3.463511e+00
3.578621e+00
3.680791e+00
3.768738e+00
3.841500e+00
3.898478e+00
3.939538e+00
3.965210e+00
3.977088e+00
3.978529e+00
3.975849e+00
0.000000e+00
1.700127e-01
3.500360e-01
5.457536e-01
7.519215e-01
9.577398e-01
1.162567e+00
1.368089e+00
1.573891e+00
1.778993e+00
1.982958e+00
2.185495e+00
2.386224e+00
2.584864e+00
2.781309e+00
2.975472e+00
3.167036e+00
3.355325e+00
3.539289e+00
3.717452e+00
3.887832e+00
4.048031e+00
4.195588e+00
4.328302e+00
4.444415e+00
4.542730e+00
4.622714e+00
4.684518e+00
4.728957e+00
4.757531e+00
4.772530e+00
4.777414e+00
4.777970e+00
0.000000e+00
2.321400e-01
4.761819e-01
7.163139e-01
9.645259e-01
1.209046e+00
1.449663e+00
1.690023e+00
1.930250e+00
2.169233e+00
2.406587e+00
2.642124e+00
2.875431e+00
3.106170e+00
3.334253e+00
3.559638e+00
3.782006e+00
4.000582e+00
4.214109e+00
4.420745e+00
4.617921e+00
4.802484e+00
4.971223e+00
5.121347e+00
5.250735e+00
5.358106e+00
5.443185e+00
5.506751e+00
5.550620e+00
5.577617e+00
5.591465e+00
5.596504e+00
5.597732e+00
0.000000e+00
3.671824e-01
6.553034e-01
9.319427e-01
1.216537e+00
1.496169e+00
1.771628e+00
2.046783e+00
2.321627e+00
2.595037e+00
2.866683e+00
3.136365e+00
3.403623e+00
3.668093e+00
3.929665e+00
4.188250e+00
4.443424e+00
4.694230e+00
4.939111e+00
5.175769e+00
5.400995e+00
5.610887e+00
5.801467e+00
5.969234e+00
6.111455e+00
6.226413e+00
6.313658e+00
6.374171e+00
6.410514e+00
6.427075e+00
6.430227e+00
6.427847e+00
6.426475e+00
0.000000e+00
-2.245388e-01
-4.145845e-01
-6.408476e-01
-8.983646e-01
-1.186589e+00
-1.508636e+00
-1.865381e+00
-2.256388e+00
-2.681621e+00
-3.141228e+00
-3.635151e+00
-4.163222e+00
-4.725297e+00
-5.321205e+00
-5.950663e+00
-6.613267e+00
-7.308515e+00
-8.035828e+00
-8.794526e+00
-9.583817e+00
-1.040289e+01
-1.125112e+01
-1.212829e+01
-1.303497e+01
-1.397304e+01
-1.494635e+01
-1.596166e+01
-1.702991e+01
-1.816994e+01
-1.942744e+01
-2.092337e+01
-2.295050e+01
0.000000e+00
-1.398282e-01
-3.399951e-01
-5.630010e-01
-8.197040e-01
-1.109030e+00
-1.431545e+00
-1.788231e+00
-2.179417e+00
-2.605073e+00
-3.065176e+00
-3.559676e+00
-4.088420e+00
-4.651197e+00
-5.247787e+00
-5.877933e+00
-6.541296e+00
-7.237427e+00
-7.965776e+00
-8.725699e+00
-9.516460e+00
-1.033727e+01
-1.118744e+01
-1.206661e+01
-1.297515e+01
-1.391469e+01
-1.488884e+01
-1.590420e+01
-1.697205e+01
-1.811366e+01
-1.937379e+01
-2.084333e+01
-2.271406e+01
0.000000e+00
-1.048833e-01
-2.824890e-01
-5.010020e-01
-7.549173e-01
-1.043510e+00
-1.365706e+00
-1.722060e+00
-2.113157e+00
-2.539008e+00
-2.999484e+00
-3.494485e+00
-4.023836e+00
-4.587282e+00
-5.184572e+00
-5.815468e+00
-6.479679e+00
-7.176809e+00
-7.906351e+00
-8.667711e+00
-9.460215e+00
-1.028312e+01
-1.113575e+01
-1.201771e+01
-1.292931e+01
-1.387213e+01
-1.484983e+01
-1.586944e+01
-1.694386e+01
-1.809579e+01
-1.935375e+01
-2.073242e+01
-2.221274e+01
0.000000e+00
-9.237532e-02
-2.510476e-01
-4.580904e-01
-7.065165e-01
-9.918346e-01
-1.312194e+00
-1.667499e+00
-2.058044e+00
-2.483735e+00
-2.944361e+00
-3.439736e+00
-3.969627e+00
-4.533749e+00
-5.131839e+00
-5.763671e+00
-6.428983e+00
-7.127421e+00
-7.858533e+00
-8.621778e+00
-9.416534e+00
-1.024211e+01
-1.109787e+01
-1.198347e+01
-1.289921e+01
-1.384664e+01
-1.482938e+01
-1.585449e+01
-1.693442e+01
-1.808676e+01
-1.931304e+01
-2.057367e+01
-2.174165e+01
0.000000e+00
-9.082981e-02
-2.375064e-01
-4.338393e-01
-6.742942e-01
-9.544165e-01
-1.271559e+00
-1.624975e+00
-2.014411e+00
-2.439558e+00
-2.900082e+00
-3.395681e+00
-3.926050e+00
-4.490881e+00
-5.089907e+00
-5.722898e+00
-6.389603e+00
-7.089699e+00
-7.822781e+00
-8.588351e+00
-9.385819e+00
-1.021453e+01
-1.107389e+01
-1.196355e+01
-1.288373e+01
-1.383571e+01
-1.482255e+01
-1.584993e+01
-1.692665e+01
-1.806015e+01
-1.923248e+01
-2.037941e+01
-2.140536e+01
0.000000e+00
-9.060589e-02
-2.316348e-01
-4.205805e-01
-6.542200e-01
-9.290186e-01
-1.242639e+00
-1.593820e+00
-1.981876e+00
-2.406276e+00
-2.866549e+00
-3.362277e+00
-3.893090e+00
-4.458664e+00
-5.058727e+00
-5.693039e+00
-6.361349e+00
-7.063358e+00
-7.798688e+00
-8.566862e+00
-9.367297e+00
-1.019933e+01
-1.106234e+01
-1.195586e+01
-1.287981e+01
-1.383485e+01
-1.482274e+01
-1.584653e+01
-1.690949e+01
-1.800901e+01
-1.911717e+01
-2.017593e+01
-2.111387e+01
0.000000e+00
-9.048055e-02
-2.287075e-01
-4.133050e-01
-6.422066e-01
-9.129876e-01
-1.223660e+00
-1.572859e+00
-1.959662e+00
-2.383371e+00
-2.843403e+00
-3.339256e+00
-3.870516e+00
-4.436848e+00
-5.037977e+00
-5.673658e+00
-6.343644e+00
-7.047646e+00
-7.785301e+00
-8.556127e+00
-9.359509e+00
-1.019472e+01
-1.106099e+01
-1.195758e+01
-1.288388e+01
-1.383956e+01
-1.482463e+01
-1.583897e+01
-1.688050e+01
-1.793946e+01
-1.898694e+01
-1.997585e+01
-2.085218e+01
0.000000e+00
-9.046044e-02
-2.272939e-01
-4.096025e-01
-6.358673e-01
-9.042555e-01
-1.213079e+00
-1.560993e+00
-1.946992e+00
-2.370294e+00
-2.830246e+00
-3.326305e+00
-3.858038e+00
-4.425109e+00
-5.027249e+00
-5.664219e+00
-6.335781e+00
-7.041660e+00
-7.781490e+00
-8.554763e+00
-9.360793e+00
-1.019872e+01
-1.106752e+01
-1.196600e+01
-1.289285e+01
-1.384658e+01
-1.482531e+01
-1.582604e+01
-1.684270e+01
-1.786206e+01
-1.885785e+01
-1.979301e+01
-2.062719e+01
0.000000e+00
-9.046989e-02
-2.268880e-01
-4.085077e-01
-6.339708e-01
-9.016299e-01
-1.209902e+00
-1.557470e+00
-1.943314e+00
-2.366634e+00
-2.826764e+00
-3.323158e+00
-3.855389e+00
-4.423136e+00
-5.026145e+00
-5.664199e+00
-6.337080e+00
-7.044528e+00
-7.786174e+00
-8.561465e+00
-9.369612e+00
-1.020956e+01
-1.107994e+01
-1.197902e+01
-1.290467e+01
-1.385422e+01
-1.482414e+01
-1.580924e+01
-1.680110e+01
-1.778560e+01
-1.874028e+01
-1.963641e+01
-2.044372e+01
0.000000e+00
-9.047088e-02
-2.273497e-01
-4.097447e-01
-6.361420e-01
-9.047136e-01
-1.213778e+00
-1.562003e+00
-1.948398e+00
-2.372201e+00
-2.832788e+00
-3.329642e+00
-3.862370e+00
-4.430676e+00
-5.034337e+00
-5.673166e+00
-6.346982e+00
-7.055547e+00
-7.798485e+00
-8.575199e+00
-9.384778e+00
-1.022593e+01
-1.109690e+01
-1.199536e+01
-1.291836e+01
-1.386218e+01
-1.482200e+01
-1.579123e+01
-1.676046e+01
-1.771622e+01
-1.863997e+01
-1.950962e+01
-2.030218e+01
0.000000e+00
-9.049693e-02
-2.288081e-01
-4.135716e-01
-6.427297e-01
-9.138658e-01
-1.225005e+00
-1.574803e+00
-1.962369e+00
-2.387049e+00
-2.848303e+00
-3.345690e+00
-3.878864e+00
-4.447566e+00
-5.051604e+00
-5.690837e+00
-6.365126e+00
-7.074263e+00
-7.817876e+00
-8.595325e+00
-9.405580e+00
-1.024710e+01
-1.111772e+01
-1.201454e+01
-1.293386e+01
-1.387111e+01
-1.482056e+01
-1.577489e+01
-1.672464e+01
-1.765774e+01
-1.855929e+01
-1.941249e+01
-2.019991e+01
0.000000e+00
-9.061750e-02
-2.317582e-01
-4.209365e-01
-6.549395e-01
-9.302415e-01
-1.244521e+00
-1.596547e+00
-1.985682e+00
-2.411450e+00
-2.873447e+00
-3.371338e+00
-3.904841e+00
-4.473732e+00
-5.077851e+00
-5.717100e+00
-6.391387e+00
-7.100536e+00
-7.844185e+00
-8.621661e+00
-9.431827e+00
-1.027291e+01
-1.114234e+01
-1.203671e+01
-1.295173e+01
-1.388215e+01
-1.482168e+01
-1.576274e+01
-1.669635e+01
-1.761208e+01
-1.849826e+01
-1.934253e+01
-2.013228e+01
0.000000e+00
-9.081964e-02
-2.376237e-01
-4.342393e-01
-6.751392e-01
-9.558777e-01
-1.273826e+00
-1.628274e+00
-2.019026e+00
-2.445843e+00
-2.908473e+00
-3.406710e+00
-3.940352e+00
-4.509200e+00
-5.113115e+00
-5.752033e+00
-6.425901e+00
-7.134563e+00
-7.877657e+00
-8.654490e+00
-9.463831e+00
-1.030369e+01
-1.117116e+01
-1.206245e+01
-1.297278e+01
-1.389649e+01
-1.482694e+01
-1.575660e+01
-1.667711e+01
-1.757967e+01
-1.845538e+01
-1.929586e+01
-2.009335e+01
0.000000e+00
-9.232733e-02
-2.511378e-01
-4.584937e-01
-7.074137e-01
-9.934168e-01
-1.314672e+00
-1.671127e+00
-2.063138e+00
-2.490692e+00
-2.953665e+00
-3.451977e+00
-3.985501e+00
-4.554066e+00
-5.157541e+00
-5.795876e+00
-6.469027e+00
-7.176824e+00
-7.918884e+00
-8.694477e+00
-9.502281e+00
-1.034012e+01
-1.120487e+01
-1.209243e+01
-1.299778e+01
-1.391498e+01
-1.483729e+01
-1.575733e+01
-1.666738e+01
-1.755989e+01
-1.842831e+01
-1.926792e+01
-2.007623e+01
0.000000e+00
-1.048112e-01
-2.825643e-01
-5.013986e-01
-7.558209e-01
-1.045121e+00
-1.368248e+00
-1.725801e+00
-2.118433e+00
-2.546234e+00
-3.009165e+00
-3.507231e+00
-4.040362e+00
-4.608416e+00
-5.211277e+00
-5.848884e+00
-6.521149e+00
-7.227848e+00
-7.968527e+00
-8.742369e+00
-9.547939e+00
-1.038293e+01
-1.124407e+01
-1.212715e+01
-1.302707e+01
-1.393786e+01
-1.485280e+01
-1.576474e+01
-1.666643e+01
-1.755123e+01
-1.841424e+01
-1.925383e+01
-2.007310e+01
0.000000e+00
-1.397765e-01
-3.400886e-01
-5.634105e-01
-8.206153e-01
-1.110642e+00
-1.434086e+00
-1.791979e+00
-2.184715e+00
-2.612339e+00
-3.074914e+00
-3.572486e+00
-4.105001e+00
-4.672359e+00
-5.274477e+00
-5.911263e+00
-6.582547e+00
-7.287998e+00
-8.027033e+00
-8.798675e+00
-9.601322e+00
-1.043255e+01
-1.128907e+01
-1.216672e+01
-1.306050e+01
-1.396458e+01
-1.487247e+01
-1.577726e+01
-1.667210e+01
-1.755089e+01
-1.840967e+01
-1.924873e+01
-2.007553e+01
0.000000e+00
-2.245520e-01
-4.147283e-01
-6.413081e-01
-8.993194e-01
-1.188229e+00
-1.511192e+00
-1.869138e+00
-2.261694e+00
-2.688890e+00
-3.150951e+00
-3.647902e+00
-4.179668e+00
-4.746209e+00
-5.347487e+00
-5.983373e+00
-6.653576e+00
-7.357611e+00
-8.094721e+00
-8.863701e+00
-9.662717e+00
-1.048923e+01
-1.133999e+01