TITLE = "Solution"
VARIABLES = x, y, u, v, psiu, psiv, t, stress
ZONE T="structure" N=153 E=128 F=FEBLOCK ET=QUADRILATERAL VARLOCATION=([7,8]=cellcentered)
0.000000e+00
1.250000e+01
2.500000e+01
3.750000e+01
5.000000e+01
6.250000e+01
7.500000e+01
8.750000e+01
1.000000e+02
1.125000e+02
1.250000e+02
1.375000e+02
1.500000e+02
1.625000e+02
1.750000e+02
1.875000e+02
2.000000e+02
0.000000e+00
1.250000e+01
2.500000e+01
3.750000e+01
5.000000e+01
6.250000e+01
7.500000e+01
8.750000e+01
1.000000e+02
1.125000e+02
1.250000e+02
1.375000e+02
1.500000e+02
1.625000e+02
1.750000e+02
1.875000e+02
2.000000e+02
0.000000e+00
1.250000e+01
2.500000e+01
3.750000e+01
5.000000e+01
6.250000e+01
7.500000e+01
8.750000e+01
1.000000e+02
1.125000e+02
1.250000e+02
1.375000e+02
1.500000e+02
1.625000e+02
1.750000e+02
1.875000e+02
2.000000e+02
0.000000e+00
1.250000e+01
2.500000e+01
3.750000e+01
5.000000e+01
6.250000e+01
7.500000e+01
8.750000e+01
1.000000e+02
1.125000e+02
1.250000e+02
1.375000e+02
1.500000e+02
1.625000e+02
1.750000e+02
1.875000e+02
2.000000e+02
0.000000e+00
1.250000e+01
2.500000e+01
3.750000e+01
5.000000e+01
6.250000e+01
7.500000e+01
8.750000e+01
1.000000e+02
1.125000e+02
1.250000e+02
1.375000e+02
1.500000e+02
1.625000e+02
1.750000e+02
1.875000e+02
2.000000e+02
0.000000e+00
1.250000e+01
2.500000e+01
3.750000e+01
5.000000e+01
6.250000e+01
7.500000e+01
8.750000e+01
1.000000e+02
1.125000e+02
1.250000e+02
1.375000e+02
1.500000e+02
1.625000e+02
1.750000e+02
1.875000e+02
2.000000e+02
0.000000e+00
1.250000e+01
2.500000e+01
3.750000e+01
5.000000e+01
6.250000e+01
7.500000e+01
8.750000e+01
1.000000e+02
1.125000e+02
1.250000e+02
1.375000e+02
1.500000e+02
1.625000e+02
1.750000e+02
1.875000e+02
2.000000e+02
0.000000e+00
1.250000e+01
2.500000e+01
3.750000e+01
5.000000e+01
6.250000e+01
7.500000e+01
8.750000e+01
1.000000e+02
1.125000e+02
1.250000e+02
1.375000e+02
1.500000e+02
1.625000e+02
1.750000e+02
1.875000e+02
2.000000e+02
0.000000e+00
1.250000e+01
2.500000e+01
3.750000e+01
5.000000e+01
6.250000e+01
7.500000e+01
8.750000e+01
1.000000e+02
1.125000e+02
1.250000e+02
1.375000e+02
1.500000e+02
1.625000e+02
1.750000e+02
1.875000e+02
2.000000e+02
0.000000e+00
0.000000e+00
0.000000e+00
0.000000e+00
0.000000e+00
0.000000e+00
0.000000e+00
0.000000e+00
0.000000e+00
0.000000e+00
0.000000e+00
0.000000e+00
0.000000e+00
0.000000e+00
0.000000e+00
0.000000e+00
0.000000e+00
1.250000e+01
1.250000e+01
1.250000e+01
1.250000e+01
1.250000e+01
1.250000e+01
1.250000e+01
1.250000e+01
1.250000e+01
1.250000e+01
1.250000e+01
1.250000e+01
1.250000e+01
1.250000e+01
1.250000e+01
1.250000e+01
1.250000e+01
2.500000e+01
2.500000e+01
2.500000e+01
2.500000e+01
2.500000e+01
2.500000e+01
2.500000e+01
2.500000e+01
2.500000e+01
2.500000e+01
2.500000e+01
2.500000e+01
2.500000e+01
2.500000e+01
2.500000e+01
2.500000e+01
2.500000e+01
3.750000e+01
3.750000e+01
3.750000e+01
3.750000e+01
3.750000e+01
3.750000e+01
3.750000e+01
3.750000e+01
3.750000e+01
3.750000e+01
3.750000e+01
3.750000e+01
3.750000e+01
3.750000e+01
3.750000e+01
3.750000e+01
3.750000e+01
5.000000e+01
5.000000e+01
5.000000e+01
5.000000e+01
5.000000e+01
5.000000e+01
5.000000e+01
5.000000e+01
5.000000e+01
5.000000e+01
5.000000e+01
5.000000e+01
5.000000e+01
5.000000e+01
5.000000e+01
5.000000e+01
5.000000e+01
6.250000e+01
6.250000e+01
6.250000e+01
6.250000e+01
6.250000e+01
6.250000e+01
6.250000e+01
6.250000e+01
6.250000e+01
6.250000e+01
6.250000e+01
6.250000e+01
6.250000e+01
6.250000e+01
6.250000e+01
6.250000e+01
6.250000e+01
7.500000e+01
7.500000e+01
7.500000e+01
7.500000e+01
7.500000e+01
7.500000e+01
7.500000e+01
7.500000e+01
7.500000e+01
7.500000e+01
7.500000e+01
7.500000e+01
7.500000e+01
7.500000e+01
7.500000e+01
7.500000e+01
7.500000e+01
8.750000e+01
8.750000e+01
8.750000e+01
8.750000e+01
8.750000e+01
8.750000e+01
8.750000e+01
8.750000e+01
8.750000e+01
8.750000e+01
8.750000e+01
8.750000e+01
8.750000e+01
8.750000e+01
8.750000e+01
8.750000e+01
8.750000e+01
1.000000e+02
1.000000e+02
1.000000e+02
1.000000e+02
1.000000e+02
1.000000e+02
1.000000e+02
1.000000e+02
1.000000e+02
1.000000e+02
1.000000e+02
1.000000e+02
1.000000e+02
1.000000e+02
1.000000e+02
1.000000e+02
1.000000e+02
0.000000e+00
-9.176053e-01
-1.604676e+00
-2.306085e+00
-2.993099e+00
-3.651267e+00
-4.325969e+00
-4.994215e+00
-5.654885e+00
-6.318944e+00
-6.983657e+00
-7.666060e+00
-8.382290e+00
-9.119631e+00
-9.862953e+00
-1.055355e+01
-1.100058e+01
0.000000e+00
-4.525614e-01
-9.365686e-01
-1.439169e+00
-1.956066e+00
-2.448251e+00
-2.952819e+00
-3.455781e+00
-3.951389e+00
-4.447715e+00
-4.940708e+00
-5.435576e+00
-5.933232e+00
-6.398471e+00
-6.733660e+00
-6.818086e+00
-6.983731e+00
0.000000e+00
-2.051253e-01
-4.536789e-01
-7.636599e-01
-1.102708e+00
-1.433960e+00
-1.776999e+00
-2.119169e+00
-2.456548e+00
-2.790643e+00
-3.113442e+00
-3.415939e+00
-3.678989e+00
-3.862462e+00
-3.913866e+00
-3.891046e+00
-4.043914e+00
0.000000e+00
-8.987828e-02
-1.933244e-01
-3.369216e-01
-4.910768e-01
-6.590524e-01
-8.305020e-01
-9.999094e-01
-1.166061e+00
-1.323486e+00
-1.463472e+00
-1.571766e+00
-1.628617e+00
-1.616918e+00
-1.554052e+00
-1.551857e+00
-1.681808e+00
0.000000e+00
-1.488548e-03
-2.984004e-03
-4.201581e-03
-4.703616e-03
-3.753009e-03
-2.702414e-04
7.590113e-03
2.245583e-02
4.771896e-02
8.903073e-02
1.544605e-01
2.496068e-01
3.666296e-01
4.628100e-01
4.711685e-01
3.679379e-01
0.000000e+00
8.733643e-02
1.883242e-01
3.296022e-01
4.825764e-01
6.515812e-01
8.282185e-01
1.010234e+00
1.200488e+00
1.399787e+00
1.608868e+00
1.824201e+00
2.034984e+00
2.218946e+00
2.339102e+00
2.361823e+00
2.302194e+00
0.000000e+00
2.039574e-01
4.512258e-01
7.598527e-01
1.097721e+00
1.428331e+00
1.772694e+00
2.119873e+00
2.466129e+00
2.817158e+00
3.171820e+00
3.518783e+00
3.831290e+00
4.078344e+00
4.233956e+00
4.287163e+00
4.272755e+00
0.000000e+00
4.527223e-01
9.364639e-01
1.438713e+00
1.955184e+00
2.445585e+00
2.947749e+00
3.448266e+00
3.935391e+00
4.418273e+00
4.899971e+00
5.365332e+00
5.771592e+00
6.076543e+00
6.264581e+00
6.345971e+00
6.361044e+00
0.000000e+00
9.187794e-01
1.606792e+00
2.309502e+00
2.998112e+00
3.656136e+00
4.329106e+00
4.994084e+00
5.640621e+00
6.278933e+00
6.911072e+00
7.510106e+00
8.009458e+00
8.349219e+00
8.518410e+00
8.560350e+00
8.559263e+00
0.000000e+00
-5.700664e-01
-1.220363e+00
-2.085471e+00
-3.119309e+00
-4.320555e+00
-5.701456e+00
-7.253040e+00
-8.977243e+00
-1.087704e+01
-1.295206e+01
-1.521078e+01
-1.766283e+01
-2.031285e+01
-2.319880e+01
-2.652504e+01
-3.143505e+01
0.000000e+00
-3.709818e-01
-1.052588e+00
-1.904552e+00
-2.945041e+00
-4.146396e+00
-5.525407e+00
-7.079428e+00
-8.804588e+00
-1.070520e+01
-1.278053e+01
-1.503648e+01
-1.748815e+01
-2.015468e+01
-2.308067e+01
-2.642647e+01
-3.046557e+01
0.000000e+00
-3.263874e-01
-9.477952e-01
-1.791555e+00
-2.823354e+00
-4.023140e+00
-5.401974e+00
-6.956814e+00
-8.684847e+00
-1.059007e+01
-1.267268e+01
-1.493976e+01
-1.740872e+01
-2.010823e+01
-2.307275e+01
-2.625288e+01
-2.923546e+01
0.000000e+00
-3.501278e-01
-9.243739e-01
-1.744034e+00
-2.756707e+00
-3.953693e+00
-5.332599e+00
-6.888854e+00
-8.622396e+00
-1.053633e+01
-1.263383e+01
-1.492202e+01
-1.741147e+01
-2.011597e+01
-2.301970e+01
-2.592544e+01
-2.845839e+01
0.000000e+00
-3.596047e-01
-9.285746e-01
-1.731723e+00
-2.739997e+00
-3.935223e+00
-5.316377e+00
-6.877054e+00
-8.617097e+00
-1.054017e+01
-1.265209e+01
-1.495725e+01
-1.745185e+01
-2.011959e+01
-2.289016e+01
-2.557320e+01
-2.786299e+01
0.000000e+00
-3.500376e-01
-9.251588e-01
-1.746698e+00
-2.762773e+00
-3.964576e+00
-5.350414e+00
-6.917182e+00
-8.663072e+00
-1.059091e+01
-1.270890e+01
-1.501898e+01
-1.750224e+01
-2.011255e+01
-2.275758e+01
-2.527954e+01
-2.746429e+01
0.000000e+00
-3.263447e-01
-9.491470e-01
-1.795862e+00
-2.833126e+00
-4.040865e+00
-5.431197e+00
-7.003271e+00
-8.751812e+00
-1.068030e+01
-1.279660e+01
-1.510139e+01
-1.756463e+01
-2.012037e+01
-2.267141e+01
-2.509632e+01
-2.727641e+01
0.000000e+00
-3.710015e-01
-1.054053e+00
-1.909249e+00
-2.955689e+00
-4.165993e+00
-5.558145e+00
-7.131017e+00
-8.878981e+00
-1.080652e+01
-1.291904e+01
-1.521306e+01
-1.765186e+01
-2.016200e+01
-2.264875e+01
-2.501801e+01
-2.723195e+01
0.000000e+00
-5.703036e-01
-1.221997e+00
-2.090471e+00
-3.130109e+00
-4.340096e+00
-5.734234e+00
-7.303550e+00
-9.048291e+00
-1.097439e+01
-1.308320e+01
-1.536178e+01
-1.776713e+01
-2.023040e+01
-2.266807e+01
-2.500345e+01
-2.723293e+01


0.000000e+00
1.398369e-05
2.438017e-05
3.610573e-05
5.063799e-05
6.382984e-05
7.683674e-05
9.049887e-05
1.035520e-04
1.161289e-04
1.289690e-04
1.416190e-04
1.515407e-04
1.578222e-04
1.618618e-04
1.654065e-04
1.696378e-04
0.000000e+00
1.030259e-05
1.951921e-05
2.813668e-05
3.987259e-05
5.019832e-05
5.960876e-05
6.997907e-05
7.982365e-05
8.882501e-05
9.808241e-05
1.067715e-04
1.123164e-04
1.136662e-04
1.135400e-04
1.164817e-04
1.212418e-04
0.000000e+00
8.271989e-06
1.473998e-05
2.055448e-05
2.866111e-05
3.549361e-05
4.163163e-05
4.838651e-05
5.457394e-05
5.998319e-05
6.507708e-05
6.917572e-05
7.105112e-05
7.061530e-05
7.040786e-05
7.314582e-05
7.782845e-05
0.000000e+00
4.333513e-06
6.992490e-06
1.060491e-05
1.429682e-05
1.740144e-05
2.067008e-05
2.375771e-05
2.644791e-05
2.873149e-05
3.024712e-05
3.088033e-05
3.071202e-05
3.064124e-05
3.149688e-05
3.434841e-05
3.870048e-05
0.000000e+00
-3.782927e-08
-8.711429e-08
-1.459295e-07
-2.164201e-07
-3.002914e-07
-3.970330e-07
-5.305878e-07
-7.445825e-07
-1.127858e-06
-1.884376e-06
-2.976972e-06
-4.136743e-06
-4.633387e-06
-3.756706e-06
-1.949348e-06
5.568146e-07
0.000000e+00
-4.397548e-06
-7.133295e-06
-1.085110e-05
-1.467340e-05
-1.790255e-05
-2.132734e-05
-2.460463e-05
-2.745079e-05
-3.007079e-05
-3.231945e-05
-3.412488e-05
-3.566915e-05
-3.672637e-05
-3.735886e-05
-3.753341e-05
-3.689132e-05
0.000000e+00
-8.289062e-06
-1.479544e-05
-2.069389e-05
-2.888114e-05
-3.579922e-05
-4.209304e-05
-4.887984e-05
-5.493945e-05
-6.035459e-05
-6.506151e-05
-6.801642e-05
-6.966581e-05
-7.101729e-05
-7.218159e-05
-7.302251e-05
-7.320225e-05
0.000000e+00
-1.028641e-05
-1.949772e-05
-2.814138e-05
-3.988428e-05
-5.020635e-05
-5.971988e-05
-7.005296e-05
-7.969642e-05
-8.894574e-05
-9.774856e-05
-1.038622e-04
-1.068858e-04
-1.086068e-04
-1.096435e-04
-1.101492e-04
-1.102960e-04
0.000000e+00
-1.397624e-05
-2.433181e-05
-3.600548e-05
-5.046076e-05
-6.351840e-05
-7.643685e-05
-8.996786e-05
-1.027640e-04
-1.155914e-04
-1.284734e-04
-1.385464e-04
-1.446880e-04
-1.475789e-04
-1.484240e-04
-1.484095e-04
-1.483252e-04
0.000000e+00
1.176222e-05
1.934454e-05
3.050920e-05
4.510079e-05
6.125599e-05
8.142925e-05
1.056515e-04
1.326909e-04
1.632589e-04
1.977130e-04
2.350104e-04
2.741062e-04
3.163152e-04
3.657104e-04
4.221913e-04
4.792505e-04
0.000000e+00
6.730697e-06
1.505816e-05
2.473388e-05
3.882646e-05
5.559358e-05
7.562329e-05
9.972279e-05
1.271376e-04
1.578397e-04
1.922829e-04
2.303572e-04
2.713618e-04
3.150227e-04
3.625964e-04
4.165033e-04
4.717617e-04
0.000000e+00
3.359846e-06
1.104210e-05
2.031640e-05
3.383176e-05
5.112727e-05
7.139768e-05
9.541045e-05
1.231976e-04
1.542346e-04
1.888713e-04
2.275786e-04
2.698758e-04
3.144377e-04
3.587468e-04
4.088226e-04
4.619183e-04
0.000000e+00
2.116063e-06
8.931934e-06
1.840796e-05
3.183477e-05
4.919256e-05
6.968157e-05
9.382096e-05
1.217463e-04
1.531178e-04
1.880316e-04
2.266378e-04
2.692029e-04
3.136071e-04
3.557169e-04
4.010324e-04
4.501308e-04
0.000000e+00
1.763333e-06
8.305193e-06
1.783209e-05
3.133553e-05
4.858015e-05
6.914972e-05
9.339835e-05
1.213620e-04
1.529535e-04
1.881170e-04
2.265828e-04
2.689180e-04
3.134301e-04
3.546809e-04
3.960215e-04
4.400400e-04
0.000000e+00
2.146234e-06
8.964125e-06
1.843570e-05
3.184450e-05
4.913968e-05
6.959082e-05
9.373579e-05
1.216328e-04
1.532479e-04
1.887485e-04
2.275336e-04
2.697452e-04
3.135536e-04
3.551551e-04
3.948060e-04
4.343700e-04
0.000000e+00
3.405440e-06
1.109433e-05
2.037067e-05
3.385615e-05
5.104025e-05
7.125265e-05
9.523165e-05
1.229102e-04
1.544186e-04
1.901993e-04
2.294412e-04
2.712536e-04
3.140221e-04
3.551896e-04
3.944205e-04
4.324293e-04
0.000000e+00
6.777118e-06
1.512993e-05
2.481263e-05
3.887170e-05
5.554000e-05
7.547797e-05
9.947137e-05
1.267964e-04
1.579860e-04
1.934724e-04
2.320450e-04
2.726780e-04
3.144122e-04
3.550721e-04
3.942023e-04
4.322323e-04
0.000000e+00
1.180520e-05
1.942140e-05
3.060142e-05
4.515274e-05
6.123093e-05
8.132327e-05
1.053651e-04
1.323823e-04
1.634976e-04
1.983375e-04
2.351329e-04
2.741485e-04
3.148133e-04
3.550938e-04
3.941157e-04
4.323049e-04


3.054877e+00
2.931999e+00
2.984182e+00
2.914311e+00
2.908379e+00
3.155966e+00
3.380732e+00
3.690299e+00
4.132097e+00
4.688184e+00
5.507659e+00
6.486671e+00
7.201791e+00
7.171220e+00
6.169992e+00
5.160150e+00
4.849733e+00
4.727338e+00
4.696049e+00
4.617331e+00
4.571579e+00
4.725026e+00
4.865935e+00
5.059218e+00
5.348865e+00
5.714829e+00
6.249985e+00
6.892429e+00
7.325388e+00
7.021411e+00
5.763287e+00
4.493546e+00
6.856307e+00
6.788403e+00
6.752514e+00
6.665537e+00
6.626423e+00
6.677485e+00
6.709197e+00
6.763956e+00
6.854476e+00
6.956954e+00
7.108517e+00
7.299850e+00
7.388921e+00
6.960856e+00
5.777130e+00
4.704560e+00
7.776373e+00
7.748789e+00
7.727073e+00
7.670583e+00
7.649082e+00
7.646847e+00
7.627072e+00
7.602996e+00
7.567951e+00
7.500504e+00
7.402174e+00
7.308077e+00
7.242017e+00
7.001889e+00
6.425356e+00
5.911354e+00
7.775544e+00
7.746857e+00
7.723504e+00
7.664739e+00
7.639825e+00
7.632561e+00
7.604687e+00
7.562312e+00
7.495996e+00
7.394005e+00
7.256223e+00
7.128772e+00
7.107914e+00
7.141878e+00
7.106763e+00
7.033113e+00
6.853018e+00
6.781498e+00
6.739515e+00
6.644756e+00
6.593938e+00
6.631307e+00
6.642564e+00
6.649135e+00
6.683846e+00
6.770030e+00
6.898284e+00
7.028318e+00
7.194261e+00
7.406206e+00
7.581141e+00
7.667826e+00
4.845453e+00
4.717660e+00
4.679055e+00
4.591002e+00
4.531092e+00
4.674251e+00
4.802017e+00
4.957071e+00
5.262313e+00
5.771211e+00
6.417205e+00
6.989155e+00
7.391214e+00
7.675245e+00
7.861394e+00
7.947549e+00
3.052266e+00
2.925077e+00
2.972369e+00
2.898192e+00
2.884306e+00
3.133469e+00
3.369037e+00
3.678585e+00
4.223509e+00
5.079635e+00
6.116564e+00
6.986845e+00
7.527336e+00
7.825583e+00
7.981124e+00
8.046041e+00


-6.491105e-01
-2.171005e-01
-2.699727e-01
-2.710825e-01
-1.644373e-01
-2.228833e-01
-2.087205e-01
-1.810191e-01
-1.910363e-01
-1.873650e-01
-2.265567e-01
-2.961548e-01
-2.558682e-01
3.820895e-03
4.668842e-01
-7.379027e-01
5.640159e-01
4.213578e-01
3.207242e-01
2.544631e-01
2.999716e-01
2.519714e-01
2.426675e-01
2.484839e-01
2.383381e-01
2.512497e-01
2.790063e-01
3.471163e-01
5.183997e-01
7.652389e-01
7.361037e-01
-1.185589e+00
8.046152e-01
6.370441e-01
4.600691e-01
4.022145e-01
3.908122e-01
3.570851e-01
3.525287e-01
3.550640e-01
3.590119e-01
3.830292e-01
4.245042e-01
4.777762e-01
5.005037e-01
3.815440e-01
1.345099e-01
-3.004318e-01
8.436390e-01
7.016157e-01
5.150966e-01
4.215339e-01
3.719026e-01
3.482470e-01
3.455887e-01
3.500550e-01
3.548039e-01
3.521996e-01
3.277226e-01
2.585745e-01
1.032646e-01
-1.196963e-01
-1.210347e-01
1.665721e-02
8.447079e-01
7.029262e-01
5.163638e-01
4.204420e-01
3.664451e-01
3.344951e-01
3.174650e-01
3.022892e-01
2.784157e-01
2.284624e-01
1.409247e-01
1.933888e-02
-1.155601e-01
-1.587866e-01
4.721759e-02
4.294787e-01
8.070894e-01
6.402936e-01
4.635710e-01
4.019463e-01
3.828160e-01
3.331518e-01
2.994788e-01
2.620454e-01
2.010848e-01
1.134992e-01
1.204543e-02
-5.533240e-02
-3.684049e-02
1.255446e-01
4.418025e-01
7.991684e-01
5.655803e-01
4.235590e-01
3.226446e-01
2.546624e-01
2.982602e-01
2.417092e-01
2.148174e-01
2.046021e-01
1.545619e-01
7.855389e-02
2.262588e-02
7.354873e-02
2.498690e-01
5.087608e-01
7.829013e-01
9.638906e-01
-6.518808e-01
-2.185120e-01
-2.721131e-01
-2.738445e-01
-1.614197e-01
-2.165069e-01
-2.007120e-01
-1.428800e-01
-1.274143e-01
-1.270634e-01
-5.145873e-02
2.058516e-01
5.574234e-01
8.299677e-01
9.657998e-01
9.992948e-01
1 2 19 18
2 3 20 19
3 4 21 20
4 5 22 21
5 6 23 22
6 7 24 23
7 8 25 24
8 9 26 25
9 10 27 26
10 11 28 27
11 12 29 28
12 13 30 29
13 14 31 30
14 15 32 31
15 16 33 32
16 17 34 33
18 19 36 35
19 20 37 36
20 21 38 37
21 22 39 38
22 23 40 39
23 24 41 40
24 25 42 41
25 26 43 42
26 27 44 43
27 28 45 44
28 29 46 45
29 30 47 46
30 31 48 47
31 32 49 48
32 33 50 49
33 34 51 50
35 36 53 52
36 37 54 53
37 38 55 54
38 39 56 55
39 40 57 56
40 41 58 57
41 42 59 58
42 43 60 59
43 44 61 60
44 45 62 61
45 46 63 62
46 47 64 63
47 48 65 64
48 49 66 65
49 50 67 66
50 51 68 67
52 53 70 69
53 54 71 70
54 55 72 71
55 56 73 72
56 57 74 73
57 58 75 74
58 59 76 75
59 60 77 76
60 61 78 77
61 62 79 78
62 63 80 79
63 64 81 80
64 65 82 81
65 66 83 82
66 67 84 83
67 68 85 84
69 70 87 86
70 71 88 87
71 72 89 88
72 73 90 89
73 74 91 90
74 75 92 91
75 76 93 92
76 77 94 93
77 78 95 94
78 79 96 95
79 80 97 96
80 81 98 97
81 82 99 98
82 83 100 99
83 84 101 100
84 85 102 101
86 87 104 103
87 88 105 104
88 89 106 105
89 90 107 106
90 91 108 107
91 92 109 108
92 93 110 109
93 94 111 110
94 95 112 111
95 96 113 112
96 97 114 113
97 98 115 114
98 99 116 115
99 100 117 116
100 101 118 117
101 102 119 118
103 104 121 120
104 105 122 121
105 106 123 122
106 107 124 123
107 108 125 124
108 109 126 125
109 110 127 126
110 111 128 127
111 112 129 128
112 113 130 129
113 114 131 130
114 115 132 131
115 116 133 132
116 117 134 133
117 118 135 134
118 119 136 135
120 121 138 137
121 122 139 138
122 123 140 139
123 124 141 140
124 125 142 141
125 126 143 142
126 127 144 143
127 128 145 144
128 129 146 145
129 130 147 146
130 131 148 147
131 132 149 148
132 133 150 149
133 134 151 150
134 135 152 151
135 136 153 152
