TITLE = "Solution"
VARIABLES = x, y, u, v, psiu, psiv, t, stress
ZONE T="structure" N=153 E=128 F=FEBLOCK ET=QUADRILATERAL VARLOCATION=([7,8]=cellcentered)
0.000000e+00
1.250000e+01
2.500000e+01
3.750000e+01
5.000000e+01
6.250000e+01
7.500000e+01
8.750000e+01
1.000000e+02
1.125000e+02
1.250000e+02
1.375000e+02
1.500000e+02
1.625000e+02
1.750000e+02
1.875000e+02
2.000000e+02
0.000000e+00
1.250000e+01
2.500000e+01
3.750000e+01
5.000000e+01
6.250000e+01
7.500000e+01
8.750000e+01
1.000000e+02
1.125000e+02
1.250000e+02
1.375000e+02
1.500000e+02
1.625000e+02
1.750000e+02
1.875000e+02
2.000000e+02
0.000000e+00
1.250000e+01
2.500000e+01
3.750000e+01
5.000000e+01
6.250000e+01
7.500000e+01
8.750000e+01
1.000000e+02
1.125000e+02
1.250000e+02
1.375000e+02
1.500000e+02
1.625000e+02
1.750000e+02
1.875000e+02
2.000000e+02
0.000000e+00
1.250000e+01
2.500000e+01
3.750000e+01
5.000000e+01
6.250000e+01
7.500000e+01
8.750000e+01
1.000000e+02
1.125000e+02
1.250000e+02
1.375000e+02
1.500000e+02
1.625000e+02
1.750000e+02
1.875000e+02
2.000000e+02
0.000000e+00
1.250000e+01
2.500000e+01
3.750000e+01
5.000000e+01
6.250000e+01
7.500000e+01
8.750000e+01
1.000000e+02
1.125000e+02
1.250000e+02
1.375000e+02
1.500000e+02
1.625000e+02
1.750000e+02
1.875000e+02
2.000000e+02
0.000000e+00
1.250000e+01
2.500000e+01
3.750000e+01
5.000000e+01
6.250000e+01
7.500000e+01
8.750000e+01
1.000000e+02
1.125000e+02
1.250000e+02
1.375000e+02
1.500000e+02
1.625000e+02
1.750000e+02
1.875000e+02
2.000000e+02
0.000000e+00
1.250000e+01
2.500000e+01
3.750000e+01
5.000000e+01
6.250000e+01
7.500000e+01
8.750000e+01
1.000000e+02
1.125000e+02
1.250000e+02
1.375000e+02
1.500000e+02
1.625000e+02
1.750000e+02
1.875000e+02
2.000000e+02
0.000000e+00
1.250000e+01
2.500000e+01
3.750000e+01
5.000000e+01
6.250000e+01
7.500000e+01
8.750000e+01
1.000000e+02
1.125000e+02
1.250000e+02
1.375000e+02
1.500000e+02
1.625000e+02
1.750000e+02
1.875000e+02
2.000000e+02
0.000000e+00
1.250000e+01
2.500000e+01
3.750000e+01
5.000000e+01
6.250000e+01
7.500000e+01
8.750000e+01
1.000000e+02
1.125000e+02
1.250000e+02
1.375000e+02
1.500000e+02
1.625000e+02
1.750000e+02
1.875000e+02
2.000000e+02
0.000000e+00
0.000000e+00
0.000000e+00
0.000000e+00
0.000000e+00
0.000000e+00
0.000000e+00
0.000000e+00
0.000000e+00
0.000000e+00
0.000000e+00
0.000000e+00
0.000000e+00
0.000000e+00
0.000000e+00
0.000000e+00
0.000000e+00
1.250000e+01
1.250000e+01
1.250000e+01
1.250000e+01
1.250000e+01
1.250000e+01
1.250000e+01
1.250000e+01
1.250000e+01
1.250000e+01
1.250000e+01
1.250000e+01
1.250000e+01
1.250000e+01
1.250000e+01
1.250000e+01
1.250000e+01
2.500000e+01
2.500000e+01
2.500000e+01
2.500000e+01
2.500000e+01
2.500000e+01
2.500000e+01
2.500000e+01
2.500000e+01
2.500000e+01
2.500000e+01
2.500000e+01
2.500000e+01
2.500000e+01
2.500000e+01
2.500000e+01
2.500000e+01
3.750000e+01
3.750000e+01
3.750000e+01
3.750000e+01
3.750000e+01
3.750000e+01
3.750000e+01
3.750000e+01
3.750000e+01
3.750000e+01
3.750000e+01
3.750000e+01
3.750000e+01
3.750000e+01
3.750000e+01
3.750000e+01
3.750000e+01
5.000000e+01
5.000000e+01
5.000000e+01
5.000000e+01
5.000000e+01
5.000000e+01
5.000000e+01
5.000000e+01
5.000000e+01
5.000000e+01
5.000000e+01
5.000000e+01
5.000000e+01
5.000000e+01
5.000000e+01
5.000000e+01
5.000000e+01
6.250000e+01
6.250000e+01
6.250000e+01
6.250000e+01
6.250000e+01
6.250000e+01
6.250000e+01
6.250000e+01
6.250000e+01
6.250000e+01
6.250000e+01
6.250000e+01
6.250000e+01
6.250000e+01
6.250000e+01
6.250000e+01
6.250000e+01
7.500000e+01
7.500000e+01
7.500000e+01
7.500000e+01
7.500000e+01
7.500000e+01
7.500000e+01
7.500000e+01
7.500000e+01
7.500000e+01
7.500000e+01
7.500000e+01
7.500000e+01
7.500000e+01
7.500000e+01
7.500000e+01
7.500000e+01
8.750000e+01
8.750000e+01
8.750000e+01
8.750000e+01
8.750000e+01
8.750000e+01
8.750000e+01
8.750000e+01
8.750000e+01
8.750000e+01
8.750000e+01
8.750000e+01
8.750000e+01
8.750000e+01
8.750000e+01
8.750000e+01
8.750000e+01
1.000000e+02
1.000000e+02
1.000000e+02
1.000000e+02
1.000000e+02
1.000000e+02
1.000000e+02
1.000000e+02
1.000000e+02
1.000000e+02
1.000000e+02
1.000000e+02
1.000000e+02
1.000000e+02
1.000000e+02
1.000000e+02
1.000000e+02
0.000000e+00
-9.954276e-01
-1.679202e+00
-2.431215e+00
-3.116793e+00
-3.751098e+00
-4.457929e+00
-5.087458e+00
-5.763268e+00
-6.405605e+00
-7.055782e+00
-7.723565e+00
-8.376599e+00
-9.146790e+00
-1.007756e+01
-1.083397e+01
-1.128410e+01
0.000000e+00
-4.457392e-01
-9.067108e-01
-1.419032e+00
-1.930557e+00
-2.410974e+00
-2.924970e+00
-3.423101e+00
-3.919227e+00
-4.421492e+00
-4.914161e+00
-5.417010e+00
-5.901895e+00
-6.421623e+00
-6.897729e+00
-7.023994e+00
-7.202876e+00
0.000000e+00
-1.461321e-01
-3.490351e-01
-6.396479e-01
-9.776401e-01
-1.302773e+00
-1.656019e+00
-2.012894e+00
-2.356678e+00
-2.718598e+00
-3.057550e+00
-3.391777e+00
-3.687451e+00
-3.927374e+00
-4.036533e+00
-4.034526e+00
-4.182962e+00
0.000000e+00
-7.897247e-02
-1.621640e-01
-3.096328e-01
-4.548179e-01
-6.283114e-01
-8.137000e-01
-9.791687e-01
-1.166698e+00
-1.328720e+00
-1.489736e+00
-1.628784e+00
-1.722157e+00
-1.730319e+00
-1.656704e+00
-1.635794e+00
-1.752874e+00
0.000000e+00
-3.308848e-03
-7.205119e-03
-1.125109e-02
-1.561545e-02
-1.899753e-02
-1.982119e-02
-1.702304e-02
-8.195768e-03
8.646587e-03
3.304074e-02
7.791435e-02
1.604096e-01
2.753621e-01
3.951634e-01
4.359811e-01
3.378045e-01
0.000000e+00
7.318837e-02
1.504999e-01
2.906210e-01
4.290672e-01
5.958526e-01
7.745611e-01
9.434048e-01
1.149273e+00
1.344596e+00
1.562346e+00
1.782682e+00
2.009176e+00
2.216576e+00
2.352381e+00
2.385281e+00
2.319617e+00
0.000000e+00
1.437826e-01
3.437755e-01
6.306467e-01
9.656869e-01
1.290947e+00
1.643235e+00
1.999630e+00
2.359699e+00
2.764880e+00
3.144025e+00
3.511046e+00
3.843952e+00
4.119553e+00
4.296285e+00
4.350914e+00
4.328265e+00
0.000000e+00
4.464290e-01
9.074707e-01
1.419539e+00
1.930351e+00
2.409327e+00
2.920273e+00
3.415634e+00
3.903488e+00
4.396730e+00
4.875047e+00
5.350183e+00
5.778389e+00
6.126062e+00
6.343140e+00
6.438945e+00
6.456651e+00
0.000000e+00
9.976593e-01
1.684291e+00
2.440044e+00
3.127579e+00
3.762649e+00
4.468517e+00
5.096189e+00
5.747311e+00
6.331656e+00
6.905106e+00
7.505953e+00
8.036348e+00
8.448407e+00
8.649691e+00
8.702442e+00
8.702974e+00
0.000000e+00
-6.186074e-01
-1.361679e+00
-2.362889e+00
-3.537001e+00
-4.880654e+00
-6.411921e+00
-8.098063e+00
-9.958501e+00
-1.198192e+01
-1.416675e+01
-1.651748e+01
-1.903117e+01
-2.176234e+01
-2.472656e+01
-2.808610e+01
-3.310183e+01
0.000000e+00
-4.156617e-01
-1.193280e+00
-2.176758e+00
-3.367881e+00
-4.706424e+00
-6.234487e+00
-7.929349e+00
-9.782289e+00
-1.181429e+01
-1.399447e+01
-1.634980e+01
-1.885825e+01
-2.156970e+01
-2.458640e+01
-2.800233e+01
-3.205231e+01
0.000000e+00
-3.900701e-01
-1.091519e+00
-2.073358e+00
-3.248660e+00
-4.580592e+00
-6.114625e+00
-7.799621e+00
-9.663251e+00
-1.169250e+01
-1.388382e+01
-1.625050e+01
-1.876918e+01
-2.150745e+01
-2.457644e+01
-2.785043e+01
-3.088298e+01
0.000000e+00
-4.490555e-01
-1.087890e+00
-2.047243e+00
-3.186096e+00
-4.511162e+00
-6.052737e+00
-7.723119e+00
-9.605549e+00
-1.163397e+01
-1.384687e+01
-1.623344e+01
-1.877763e+01
-2.151776e+01
-2.450683e+01
-2.754071e+01
-3.016650e+01
0.000000e+00
-4.560566e-01
-1.110242e+00
-2.031591e+00
-3.171943e+00
-4.501224e+00
-6.031388e+00
-7.721197e+00
-9.595539e+00
-1.164610e+01
-1.387342e+01
-1.626723e+01
-1.881887e+01
-2.151890e+01
-2.435627e+01
-2.717418e+01
-2.956204e+01
0.000000e+00
-4.477744e-01
-1.087562e+00
-2.049334e+00
-3.193040e+00
-4.528391e+00
-6.080216e+00
-7.759940e+00
-9.657574e+00
-1.171187e+01
-1.394361e+01
-1.631939e+01
-1.884983e+01
-2.150890e+01
-2.422135e+01
-2.685448e+01
-2.912379e+01
0.000000e+00
-3.883615e-01
-1.091510e+00
-2.078134e+00
-3.262400e+00
-4.609828e+00
-6.160417e+00
-7.869112e+00
-9.762822e+00
-1.182801e+01
-1.403007e+01
-1.638660e+01
-1.888912e+01
-2.150880e+01
-2.413892e+01
-2.664732e+01
-2.889015e+01
0.000000e+00
-4.140812e-01
-1.193355e+00
-2.182383e+00
-3.384001e+00
-4.737563e+00
-6.285643e+00
-8.010146e+00
-9.901443e+00
-1.196520e+01
-1.414522e+01
-1.648511e+01
-1.896633e+01
-2.155038e+01
-2.411837e+01
-2.655976e+01
-2.882968e+01
0.000000e+00
-6.176233e-01
-1.362384e+00
-2.369202e+00
-3.553529e+00
-4.911699e+00
-6.463759e+00
-8.178562e+00
-1.007397e+01
-1.212075e+01
-1.430034e+01
-1.663338e+01
-1.909001e+01
-2.163240e+01
-2.414299e+01
-2.654487e+01
-2.882854e+01


0.000000e+00
1.541829e-05
2.509019e-05
3.749300e-05
5.358536e-05
6.718541e-05
8.316284e-05
9.715996e-05
1.118413e-04
1.257489e-04
1.408791e-04
1.552088e-04
1.717875e-04
1.875751e-04
1.975995e-04
2.033255e-04
2.102573e-04
0.000000e+00
1.145991e-05
1.973951e-05
2.840696e-05
4.099567e-05
5.171536e-05
6.183714e-05
7.295484e-05
8.314990e-05
9.455474e-05
1.052232e-04
1.155922e-04
1.264801e-04
1.358178e-04
1.373787e-04
1.411270e-04
1.469510e-04
0.000000e+00
9.532535e-06
1.502433e-05
2.020095e-05
2.884601e-05
3.552779e-05
4.125887e-05
4.860731e-05
5.457886e-05
6.193692e-05
6.835776e-05
7.401728e-05
7.874238e-05
8.091647e-05
8.015604e-05
8.253517e-05
8.677032e-05
0.000000e+00
5.185390e-06
6.844985e-06
9.617836e-06
1.305934e-05
1.352386e-05
1.585520e-05
1.727573e-05
2.085211e-05
2.430485e-05
2.806018e-05
2.910279e-05
2.852417e-05
2.708741e-05
2.684010e-05
2.988783e-05
3.555952e-05
0.000000e+00
-1.749162e-07
-4.355843e-07
-8.568532e-07
-1.723569e-06
-2.880877e-06
-4.986032e-06
-7.225322e-06
-7.812000e-06
-7.835549e-06
-8.778492e-06
-1.193357e-05
-1.468192e-05
-1.608254e-05
-1.575853e-05
-1.359820e-05
-9.607944e-06
0.000000e+00
-5.449289e-06
-7.434286e-06
-1.074539e-05
-1.465632e-05
-1.607754e-05
-2.050087e-05
-2.431544e-05
-3.020915e-05
-3.333696e-05
-3.745106e-05
-4.219008e-05
-4.729785e-05
-4.904797e-05
-4.959418e-05
-5.007221e-05
-4.834746e-05
0.000000e+00
-9.532713e-06
-1.509112e-05
-2.036917e-05
-2.895187e-05
-3.531964e-05
-4.073013e-05
-4.872447e-05
-5.589921e-05
-6.354982e-05
-6.882957e-05
-7.384851e-05
-7.801138e-05
-8.153929e-05
-8.344966e-05
-8.536804e-05
-8.611610e-05
0.000000e+00
-1.138971e-05
-1.965178e-05
-2.830170e-05
-4.077490e-05
-5.165276e-05
-6.159807e-05
-7.279418e-05
-8.317914e-05
-9.456111e-05
-1.052227e-04
-1.135442e-04
-1.183428e-04
-1.233578e-04
-1.269507e-04
-1.282475e-04
-1.283436e-04
0.000000e+00
-1.542873e-05
-2.503117e-05
-3.733898e-05
-5.337531e-05
-6.701280e-05
-8.285324e-05
-9.590288e-05
-1.099521e-04
-1.233536e-04
-1.410157e-04
-1.567968e-04
-1.665251e-04
-1.717309e-04
-1.739412e-04
-1.741572e-04
-1.739755e-04
0.000000e+00
1.259887e-05
1.999945e-05
3.243790e-05
4.874956e-05
6.687322e-05
9.130880e-05
1.201641e-04
1.534537e-04
1.902240e-04
2.303878e-04
2.743977e-04
3.243525e-04
3.784567e-04
4.399588e-04
5.107819e-04
5.841456e-04
0.000000e+00
7.679609e-06
1.611010e-05
2.633729e-05
4.228443e-05
6.091559e-05
8.485135e-05
1.142867e-04
1.472237e-04
1.840946e-04
2.240588e-04
2.681834e-04
3.177744e-04
3.735315e-04
4.347185e-04
5.034012e-04
5.737889e-04
0.000000e+00
4.326032e-06
1.229613e-05
2.172353e-05
3.646980e-05
5.568911e-05
7.943538e-05
1.097708e-04
1.430700e-04
1.796136e-04
2.194605e-04
2.636505e-04
3.139855e-04
3.711510e-04
4.305805e-04
4.959230e-04
5.640999e-04
0.000000e+00
3.199838e-06
1.059534e-05
2.008533e-05
3.451499e-05
5.203374e-05
7.641800e-05
1.087685e-04
1.436169e-04
1.781964e-04
2.173888e-04
2.620263e-04
3.132357e-04
3.697421e-04
4.278469e-04
4.880864e-04
5.499388e-04
0.000000e+00
2.811871e-06
1.027043e-05
2.004461e-05
3.424468e-05
5.074698e-05
7.529286e-05
1.097844e-04
1.448720e-04
1.780852e-04
2.155891e-04
2.619785e-04
3.134923e-04
3.698668e-04
4.267038e-04
4.816992e-04
5.338175e-04
0.000000e+00
3.342572e-06
1.078564e-05
2.045922e-05
3.485452e-05
5.184242e-05
7.715814e-05
1.106910e-04
1.454807e-04
1.778927e-04
2.159604e-04
2.634970e-04
3.158539e-04
3.701686e-04
4.266057e-04
4.793799e-04
5.228050e-04
0.000000e+00
4.479302e-06
1.252431e-05
2.206611e-05
3.674952e-05
5.576572e-05
8.039772e-05
1.117592e-04
1.447901e-04
1.789647e-04
2.182630e-04
2.667349e-04
3.193481e-04
3.722435e-04
4.256878e-04
4.766406e-04
5.193448e-04
0.000000e+00
7.803676e-06
1.634606e-05
2.663745e-05
4.254049e-05
6.131984e-05
8.581236e-05
1.159455e-04
1.482184e-04
1.832704e-04
2.229269e-04
2.704783e-04
3.223855e-04
3.744377e-04
4.258212e-04
4.746240e-04
5.198124e-04
0.000000e+00
1.271179e-05
2.023532e-05
3.272856e-05
4.908575e-05
6.740464e-05
9.234378e-05
1.216131e-04
1.543799e-04
1.894920e-04
2.301624e-04
2.748192e-04
3.246445e-04
3.756159e-04
4.261301e-04
4.741403e-04
5.200783e-04


5.655587e+00
6.127385e+00
6.857502e+00
5.912352e+00
5.622338e+00
6.355924e+00
6.280212e+00
6.344054e+00
5.928740e+00
5.894811e+00
6.279001e+00
7.147317e+00
8.844278e+00
9.825508e+00
9.146219e+00
7.997209e+00
8.073977e+00
8.453280e+00
8.655813e+00
8.352675e+00
8.178163e+00
8.423688e+00
8.597066e+00
8.395531e+00
8.377786e+00
8.265710e+00
8.412509e+00
8.840213e+00
9.503518e+00
9.838128e+00
8.390800e+00
6.470199e+00
9.839437e+00
9.821068e+00
9.996108e+00
9.834358e+00
9.832789e+00
9.951917e+00
9.831200e+00
9.938345e+00
9.844738e+00
9.876908e+00
9.894417e+00
9.872665e+00
9.890989e+00
9.392155e+00
7.995184e+00
6.186944e+00
9.998083e+00
9.998048e+00
9.998031e+00
9.997842e+00
9.997578e+00
9.997047e+00
9.996443e+00
9.996433e+00
9.996773e+00
9.996708e+00
9.995250e+00
9.479314e+00
8.829434e+00
8.369633e+00
7.985878e+00
7.911779e+00
9.998073e+00
9.998025e+00
9.997989e+00
9.997735e+00
9.997294e+00
9.996326e+00
9.931454e+00
9.962106e+00
9.994056e+00
9.914383e+00
9.354777e+00
8.588826e+00
7.706902e+00
7.744588e+00
8.646458e+00
9.161571e+00
9.839699e+00
9.820949e+00
9.995905e+00
9.833702e+00
9.831113e+00
9.694013e+00
9.314491e+00
9.513163e+00
9.383129e+00
8.860467e+00
8.306077e+00
7.895009e+00
8.198336e+00
8.751943e+00
9.443678e+00
9.993227e+00
8.075686e+00
8.453904e+00
8.654912e+00
8.350396e+00
8.093467e+00
7.973789e+00
7.800940e+00
7.743963e+00
7.831786e+00
7.325516e+00
7.474593e+00
8.488278e+00
9.288669e+00
9.845377e+00
9.996051e+00
9.997627e+00
5.659997e+00
6.128642e+00
6.856197e+00
5.903158e+00
5.585678e+00
6.001805e+00
5.835647e+00
6.303171e+00
6.171834e+00
6.475495e+00
7.852350e+00
9.109684e+00
9.982446e+00
9.996925e+00
9.997876e+00
9.998205e+00


-8.171843e-01
-1.696627e-01
-3.964882e-01
-2.573446e-01
-9.571518e-02
-3.050890e-01
-1.242048e-01
-2.097068e-01
-1.614203e-01
-1.586014e-01
-2.145347e-01
-1.500649e-01
-4.620201e-01
-6.849599e-01
3.159763e-01
-8.469441e-01
6.110589e-01
4.805835e-01
2.957251e-01
2.255060e-01
2.901270e-01
1.680957e-01
1.756037e-01
1.726160e-01
1.104196e-01
1.478476e-01
1.285176e-01
2.414875e-01
3.024291e-01
5.097420e-01
6.954334e-01
-9.349137e-01
7.230822e-01
4.714492e-01
5.703342e-02
-2.112942e-02
-3.720791e-02
-1.866386e-01
-8.031067e-02
-1.372536e-01
-7.659915e-02
-1.868815e-02
3.218304e-02
1.859831e-01
2.784627e-01
1.481439e-01
-2.516108e-02
-1.682069e-01
7.282998e-01
5.563484e-01
1.931488e-01
6.242844e-02
-2.287792e-02
-1.052340e-01
-1.682796e-02
-6.126825e-02
1.355643e-02
1.747394e-02
5.907049e-02
1.176782e-01
5.848311e-02
-2.626031e-01
-3.836124e-01
-7.793453e-02
7.312059e-01
5.602785e-01
2.011042e-01
7.054717e-02
-1.919542e-02
-1.112487e-01
-3.707741e-02
-1.019373e-01
-5.170626e-02
-4.229316e-02
2.134744e-02
1.465752e-02
-3.776832e-02
-1.302961e-01
-1.023700e-01
3.108657e-01
7.298916e-01
4.816226e-01
7.507157e-02
-3.226351e-03
-2.550825e-02
-1.613159e-01
-7.558308e-02
-1.890307e-01
-1.818722e-01
-1.087727e-01
-7.788953e-02
-9.774626e-02
-1.109831e-01
4.535209e-02
3.342367e-01
7.247078e-01
6.151487e-01
4.863697e-01
3.032260e-01
2.305693e-01
2.864096e-01
1.616373e-01
1.526383e-01
1.016972e-01
-5.664879e-02
-4.047374e-02
-9.687819e-02
-5.774233e-02
5.754313e-02
3.651052e-01
7.128828e-01
9.479051e-01
-8.226903e-01
-1.753238e-01
-4.040415e-01
-2.604426e-01
-9.528372e-02
-2.992196e-01
-1.199947e-01
-1.563406e-01
-5.608497e-02
-2.189924e-02
-9.256341e-02
9.885814e-02
3.879455e-01
7.720836e-01
9.528897e-01
9.987355e-01
1 2 19 18
2 3 20 19
3 4 21 20
4 5 22 21
5 6 23 22
6 7 24 23
7 8 25 24
8 9 26 25
9 10 27 26
10 11 28 27
11 12 29 28
12 13 30 29
13 14 31 30
14 15 32 31
15 16 33 32
16 17 34 33
18 19 36 35
19 20 37 36
20 21 38 37
21 22 39 38
22 23 40 39
23 24 41 40
24 25 42 41
25 26 43 42
26 27 44 43
27 28 45 44
28 29 46 45
29 30 47 46
30 31 48 47
31 32 49 48
32 33 50 49
33 34 51 50
35 36 53 52
36 37 54 53
37 38 55 54
38 39 56 55
39 40 57 56
40 41 58 57
41 42 59 58
42 43 60 59
43 44 61 60
44 45 62 61
45 46 63 62
46 47 64 63
47 48 65 64
48 49 66 65
49 50 67 66
50 51 68 67
52 53 70 69
53 54 71 70
54 55 72 71
55 56 73 72
56 57 74 73
57 58 75 74
58 59 76 75
59 60 77 76
60 61 78 77
61 62 79 78
62 63 80 79
63 64 81 80
64 65 82 81
65 66 83 82
66 67 84 83
67 68 85 84
69 70 87 86
70 71 88 87
71 72 89 88
72 73 90 89
73 74 91 90
74 75 92 91
75 76 93 92
76 77 94 93
77 78 95 94
78 79 96 95
79 80 97 96
80 81 98 97
81 82 99 98
82 83 100 99
83 84 101 100
84 85 102 101
86 87 104 103
87 88 105 104
88 89 106 105
89 90 107 106
90 91 108 107
91 92 109 108
92 93 110 109
93 94 111 110
94 95 112 111
95 96 113 112
96 97 114 113
97 98 115 114
98 99 116 115
99 100 117 116
100 101 118 117
101 102 119 118
103 104 121 120
104 105 122 121
105 106 123 122
106 107 124 123
107 108 125 124
108 109 126 125
109 110 127 126
110 111 128 127
111 112 129 128
112 113 130 129
113 114 131 130
114 115 132 131
115 116 133 132
116 117 134 133
117 118 135 134
118 119 136 135
120 121 138 137
121 122 139 138
122 123 140 139
123 124 141 140
124 125 142 141
125 126 143 142
126 127 144 143
127 128 145 144
128 129 146 145
129 130 147 146
130 131 148 147
131 132 149 148
132 133 150 149
133 134 151 150
134 135 152 151
135 136 153 152
