TITLE = "Solution"
VARIABLES = x, y, u, v, psiu, psiv, t, stress
ZONE T="structure" N=153 E=128 F=FEBLOCK ET=QUADRILATERAL VARLOCATION=([7,8]=cellcentered)
0.000000e+00
1.250000e+01
2.500000e+01
3.750000e+01
5.000000e+01
6.250000e+01
7.500000e+01
8.750000e+01
1.000000e+02
1.125000e+02
1.250000e+02
1.375000e+02
1.500000e+02
1.625000e+02
1.750000e+02
1.875000e+02
2.000000e+02
0.000000e+00
1.250000e+01
2.500000e+01
3.750000e+01
5.000000e+01
6.250000e+01
7.500000e+01
8.750000e+01
1.000000e+02
1.125000e+02
1.250000e+02
1.375000e+02
1.500000e+02
1.625000e+02
1.750000e+02
1.875000e+02
2.000000e+02
0.000000e+00
1.250000e+01
2.500000e+01
3.750000e+01
5.000000e+01
6.250000e+01
7.500000e+01
8.750000e+01
1.000000e+02
1.125000e+02
1.250000e+02
1.375000e+02
1.500000e+02
1.625000e+02
1.750000e+02
1.875000e+02
2.000000e+02
0.000000e+00
1.250000e+01
2.500000e+01
3.750000e+01
5.000000e+01
6.250000e+01
7.500000e+01
8.750000e+01
1.000000e+02
1.125000e+02
1.250000e+02
1.375000e+02
1.500000e+02
1.625000e+02
1.750000e+02
1.875000e+02
2.000000e+02
0.000000e+00
1.250000e+01
2.500000e+01
3.750000e+01
5.000000e+01
6.250000e+01
7.500000e+01
8.750000e+01
1.000000e+02
1.125000e+02
1.250000e+02
1.375000e+02
1.500000e+02
1.625000e+02
1.750000e+02
1.875000e+02
2.000000e+02
0.000000e+00
1.250000e+01
2.500000e+01
3.750000e+01
5.000000e+01
6.250000e+01
7.500000e+01
8.750000e+01
1.000000e+02
1.125000e+02
1.250000e+02
1.375000e+02
1.500000e+02
1.625000e+02
1.750000e+02
1.875000e+02
2.000000e+02
0.000000e+00
1.250000e+01
2.500000e+01
3.750000e+01
5.000000e+01
6.250000e+01
7.500000e+01
8.750000e+01
1.000000e+02
1.125000e+02
1.250000e+02
1.375000e+02
1.500000e+02
1.625000e+02
1.750000e+02
1.875000e+02
2.000000e+02
0.000000e+00
1.250000e+01
2.500000e+01
3.750000e+01
5.000000e+01
6.250000e+01
7.500000e+01
8.750000e+01
1.000000e+02
1.125000e+02
1.250000e+02
1.375000e+02
1.500000e+02
1.625000e+02
1.750000e+02
1.875000e+02
2.000000e+02
0.000000e+00
1.250000e+01
2.500000e+01
3.750000e+01
5.000000e+01
6.250000e+01
7.500000e+01
8.750000e+01
1.000000e+02
1.125000e+02
1.250000e+02
1.375000e+02
1.500000e+02
1.625000e+02
1.750000e+02
1.875000e+02
2.000000e+02
0.000000e+00
0.000000e+00
0.000000e+00
0.000000e+00
0.000000e+00
0.000000e+00
0.000000e+00
0.000000e+00
0.000000e+00
0.000000e+00
0.000000e+00
0.000000e+00
0.000000e+00
0.000000e+00
0.000000e+00
0.000000e+00
0.000000e+00
1.250000e+01
1.250000e+01
1.250000e+01
1.250000e+01
1.250000e+01
1.250000e+01
1.250000e+01
1.250000e+01
1.250000e+01
1.250000e+01
1.250000e+01
1.250000e+01
1.250000e+01
1.250000e+01
1.250000e+01
1.250000e+01
1.250000e+01
2.500000e+01
2.500000e+01
2.500000e+01
2.500000e+01
2.500000e+01
2.500000e+01
2.500000e+01
2.500000e+01
2.500000e+01
2.500000e+01
2.500000e+01
2.500000e+01
2.500000e+01
2.500000e+01
2.500000e+01
2.500000e+01
2.500000e+01
3.750000e+01
3.750000e+01
3.750000e+01
3.750000e+01
3.750000e+01
3.750000e+01
3.750000e+01
3.750000e+01
3.750000e+01
3.750000e+01
3.750000e+01
3.750000e+01
3.750000e+01
3.750000e+01
3.750000e+01
3.750000e+01
3.750000e+01
5.000000e+01
5.000000e+01
5.000000e+01
5.000000e+01
5.000000e+01
5.000000e+01
5.000000e+01
5.000000e+01
5.000000e+01
5.000000e+01
5.000000e+01
5.000000e+01
5.000000e+01
5.000000e+01
5.000000e+01
5.000000e+01
5.000000e+01
6.250000e+01
6.250000e+01
6.250000e+01
6.250000e+01
6.250000e+01
6.250000e+01
6.250000e+01
6.250000e+01
6.250000e+01
6.250000e+01
6.250000e+01
6.250000e+01
6.250000e+01
6.250000e+01
6.250000e+01
6.250000e+01
6.250000e+01
7.500000e+01
7.500000e+01
7.500000e+01
7.500000e+01
7.500000e+01
7.500000e+01
7.500000e+01
7.500000e+01
7.500000e+01
7.500000e+01
7.500000e+01
7.500000e+01
7.500000e+01
7.500000e+01
7.500000e+01
7.500000e+01
7.500000e+01
8.750000e+01
8.750000e+01
8.750000e+01
8.750000e+01
8.750000e+01
8.750000e+01
8.750000e+01
8.750000e+01
8.750000e+01
8.750000e+01
8.750000e+01
8.750000e+01
8.750000e+01
8.750000e+01
8.750000e+01
8.750000e+01
8.750000e+01
1.000000e+02
1.000000e+02
1.000000e+02
1.000000e+02
1.000000e+02
1.000000e+02
1.000000e+02
1.000000e+02
1.000000e+02
1.000000e+02
1.000000e+02
1.000000e+02
1.000000e+02
1.000000e+02
1.000000e+02
1.000000e+02
1.000000e+02
0.000000e+00
-7.819651e-01
-1.431816e+00
-2.040218e+00
-2.656735e+00
-3.265696e+00
-3.852930e+00
-4.410893e+00
-4.932976e+00
-5.413761e+00
-5.851225e+00
-6.248692e+00
-6.617322e+00
-6.979697e+00
-7.375257e+00
-7.850477e+00
-8.202238e+00
0.000000e+00
-4.504717e-01
-9.354045e-01
-1.398972e+00
-1.862609e+00
-2.320086e+00
-2.759956e+00
-3.178106e+00
-3.569418e+00
-3.929034e+00
-4.253515e+00
-4.541187e+00
-4.791169e+00
-4.998826e+00
-5.144226e+00
-5.176182e+00
-5.286276e+00
0.000000e+00
-2.687056e-01
-5.588232e-01
-8.682268e-01
-1.179614e+00
-1.484629e+00
-1.777447e+00
-2.055114e+00
-2.313099e+00
-2.546720e+00
-2.751085e+00
-2.920572e+00
-3.047272e+00
-3.118846e+00
-3.121981e+00
-3.095164e+00
-3.208125e+00
0.000000e+00
-1.253117e-01
-2.644276e-01
-4.155885e-01
-5.714911e-01
-7.232390e-01
-8.690296e-01
-1.005892e+00
-1.130604e+00
-1.239246e+00
-1.327074e+00
-1.388412e+00
-1.417160e+00
-1.410291e+00
-1.382312e+00
-1.389387e+00
-1.474568e+00
0.000000e+00
4.117219e-04
6.060848e-04
4.938531e-04
6.959294e-04
1.173892e-03
2.631076e-03
5.696841e-03
1.184429e-02
2.329297e-02
4.295164e-02
7.374988e-02
1.165427e-01
1.650871e-01
1.989462e-01
1.906296e-01
1.335457e-01
0.000000e+00
1.269340e-01
2.662472e-01
4.174570e-01
5.729903e-01
7.260896e-01
8.739961e-01
1.015413e+00
1.149392e+00
1.275567e+00
1.393983e+00
1.504273e+00
1.603630e+00
1.683878e+00
1.731423e+00
1.735606e+00
1.706429e+00
0.000000e+00
2.705041e-01
5.626768e-01
8.726150e-01
1.184325e+00
1.489086e+00
1.782458e+00
2.060913e+00
2.320789e+00
2.558353e+00
2.770203e+00
2.953081e+00
3.103016e+00
3.214551e+00
3.281753e+00
3.303682e+00
3.296892e+00
0.000000e+00
4.505005e-01
9.376801e-01
1.406935e+00
1.873063e+00
2.328620e+00
2.767204e+00
3.182987e+00
3.569150e+00
3.918091e+00
4.222430e+00
4.475771e+00
4.673297e+00
4.812748e+00
4.896160e+00
4.931773e+00
4.938327e+00
0.000000e+00
7.813926e-01
1.430817e+00
2.051692e+00
2.671414e+00
3.279379e+00
3.865828e+00
4.422304e+00
4.938665e+00
5.403553e+00
5.805263e+00
6.132686e+00
6.376731e+00
6.533392e+00
6.609266e+00
6.627944e+00
6.627549e+00
0.000000e+00
-4.761946e-01
-9.578376e-01
-1.591811e+00
-2.377902e+00
-3.317006e+00
-4.405937e+00
-5.638909e+00
-7.005900e+00
-8.495345e+00
-1.009535e+01
-1.179579e+01
-1.359258e+01
-1.549673e+01
-1.756439e+01
-1.997219e+01
-2.354869e+01
0.000000e+00
-2.957679e-01
-7.981062e-01
-1.430689e+00
-2.216818e+00
-3.160025e+00
-4.255869e+00
-5.497576e+00
-6.875083e+00
-8.376456e+00
-9.988987e+00
-1.170154e+01
-1.350895e+01
-1.542206e+01
-1.749065e+01
-1.988385e+01
-2.287311e+01
0.000000e+00
-2.301720e-01
-6.880003e-01
-1.316659e+00
-2.103073e+00
-3.049220e+00
-4.150420e+00
-5.399072e+00
-6.785359e+00
-8.297431e+00
-9.922616e+00
-1.164989e+01
-1.347444e+01
-1.540532e+01
-1.747709e+01
-1.973023e+01
-2.189695e+01
0.000000e+00
-2.086764e-01
-6.358366e-01
-1.250512e+00
-2.036374e+00
-2.984545e+00
-4.089642e+00
-5.343814e+00
-6.737553e+00
-8.259324e+00
-9.896643e+00
-1.163809e+01
-1.347623e+01
-1.540970e+01
-1.743383e+01
-1.947941e+01
-2.133477e+01
0.000000e+00
-2.041057e-01
-6.207538e-01
-1.230002e+00
-2.014736e+00
-2.964544e+00
-4.072024e+00
-5.329944e+00
-6.729089e+00
-8.258195e+00
-9.904402e+00
-1.165425e+01
-1.349419e+01
-1.540755e+01
-1.735900e+01
-1.926790e+01
-2.099609e+01
0.000000e+00
-2.084347e-01
-6.351469e-01
-1.250408e+00
-2.037433e+00
-2.987881e+00
-4.095968e+00
-5.355024e+00
-6.756343e+00
-8.288688e+00
-9.938257e+00
-1.168855e+01
-1.351920e+01
-1.540174e+01
-1.729195e+01
-1.912272e+01
-2.080565e+01
0.000000e+00
-2.300139e-01
-6.867823e-01
-1.315940e+00
-2.105180e+00
-3.054909e+00
-4.161099e+00
-5.417954e+00
-6.817111e+00
-8.347235e+00
-9.993560e+00
-1.173701e+01
-1.355231e+01
-1.540531e+01
-1.725143e+01
-1.903968e+01
-2.072127e+01
0.000000e+00
-2.960619e-01
-7.969554e-01
-1.430015e+00
-2.219666e+00
-3.166491e+00
-4.268206e+00
-5.519263e+00
-6.911392e+00
-8.433103e+00
-1.006918e+01
-1.179938e+01
-1.359653e+01
-1.542480e+01
-1.724121e+01
-1.900524e+01
-2.070149e+01
0.000000e+00
-4.764829e-01
-9.579306e-01
-1.593156e+00
-2.380891e+00
-3.323343e+00
-4.418310e+00
-5.660383e+00
-7.040908e+00
-8.548217e+00
-1.016704e+01
-1.187718e+01
-1.365169e+01
-1.545590e+01
-1.724980e+01
-1.899892e+01
-2.070184e+01


0.000000e+00
6.409846e-06
1.295828e-05
1.867985e-05
2.390351e-05
2.855610e-05
3.245069e-05
3.549516e-05
3.775227e-05
3.935862e-05
4.046303e-05
4.120724e-05
4.172143e-05
4.212551e-05
4.252746e-05
4.308632e-05
4.381323e-05
0.000000e+00
4.651104e-06
1.033465e-05
1.474583e-05
1.862922e-05
2.207785e-05
2.492751e-05
2.709915e-05
2.865681e-05
2.972719e-05
3.042806e-05
3.085981e-05
3.109485e-05
3.118448e-05
3.128235e-05
3.173365e-05
3.247862e-05
0.000000e+00
3.403370e-06
7.072763e-06
1.007542e-05
1.271823e-05
1.497902e-05
1.681586e-05
1.820398e-05
1.918622e-05
1.983831e-05
2.023495e-05
2.044366e-05
2.052115e-05
2.053599e-05
2.062022e-05
2.098057e-05
2.157468e-05
0.000000e+00
1.683663e-06
3.283504e-06
4.862339e-06
6.233500e-06
7.364281e-06
8.269227e-06
8.958126e-06
9.448226e-06
9.764900e-06
9.944218e-06
1.002664e-05
1.005846e-05
1.009611e-05
1.018960e-05
1.039953e-05
1.074200e-05
0.000000e+00
-2.744505e-08
-5.130660e-08
-7.259160e-08
-9.363474e-08
-1.150496e-07
-1.372891e-07
-1.598434e-07
-1.845542e-07
-2.128660e-07
-2.429921e-07
-2.671017e-07
-2.703786e-07
-2.390929e-07
-1.797963e-07
-9.059532e-08
6.859287e-08
0.000000e+00
-1.744327e-06
-3.397962e-06
-5.020295e-06
-6.432156e-06
-7.602431e-06
-8.541854e-06
-9.263764e-06
-9.788580e-06
-1.014584e-05
-1.037139e-05
-1.049859e-05
-1.055491e-05
-1.056638e-05
-1.056284e-05
-1.054754e-05
-1.048622e-05
0.000000e+00
-3.458623e-06
-7.206245e-06
-1.027377e-05
-1.296511e-05
-1.525204e-05
-1.709531e-05
-1.848632e-05
-1.947176e-05
-2.012710e-05
-2.053276e-05
-2.076489e-05
-2.088758e-05
-2.095100e-05
-2.098867e-05
-2.100566e-05
-2.098974e-05
0.000000e+00
-4.666639e-06
-1.044761e-05
-1.498797e-05
-1.894303e-05
-2.239572e-05
-2.521951e-05
-2.736311e-05
-2.889336e-05
-2.993010e-05
-3.059589e-05
-3.100282e-05
-3.124231e-05
-3.138076e-05
-3.145974e-05
-3.149758e-05
-3.150321e-05
0.000000e+00
-6.408247e-06
-1.302126e-05
-1.891680e-05
-2.422306e-05
-2.887778e-05
-3.273403e-05
-3.573503e-05
-3.794630e-05
-3.949886e-05
-4.054052e-05
-4.121091e-05
-4.162584e-05
-4.187034e-05
-4.199969e-05
-4.204947e-05
-4.205799e-05
0.000000e+00
5.665488e-06
9.818096e-06
1.446043e-05
2.036899e-05
2.739064e-05
3.532183e-05
4.400988e-05
5.331894e-05
6.310447e-05
7.323408e-05
8.361275e-05
9.419590e-05
1.050589e-04
1.166074e-04
1.291327e-04
1.419189e-04
0.000000e+00
2.883860e-06
7.137105e-06
1.203171e-05
1.816249e-05
2.548396e-05
3.379822e-05
4.287494e-05
5.251721e-05
6.256301e-05
7.288471e-05
8.339739e-05
9.406503e-05
1.049258e-04
1.161555e-04
1.281939e-04
1.406913e-04
0.000000e+00
1.276217e-06
5.047292e-06
1.021517e-05
1.656110e-05
2.412165e-05
3.270764e-05
4.206038e-05
5.194536e-05
6.218517e-05
7.265427e-05
8.327283e-05
9.400269e-05
1.048201e-04
1.157115e-04
1.272096e-04
1.392644e-04
0.000000e+00
7.458360e-07
4.125858e-06
9.300613e-06
1.580022e-05
2.349453e-05
3.219719e-05
4.166479e-05
5.166128e-05
6.199987e-05
7.254794e-05
8.322040e-05
9.396407e-05
1.047208e-04
1.154546e-04
1.265569e-04
1.380788e-04
0.000000e+00
6.410102e-07
3.878696e-06
9.005752e-06
1.556831e-05
2.331421e-05
3.205173e-05
4.155021e-05
5.158024e-05
6.195168e-05
7.252561e-05
8.320950e-05
9.394019e-05
1.046626e-04
1.153570e-04
1.262367e-04
1.372928e-04
0.000000e+00
7.400947e-07
4.117104e-06
9.299034e-06
1.581159e-05
2.351664e-05
3.222245e-05
4.169116e-05
5.169241e-05
6.203829e-05
7.258977e-05
8.325061e-05
9.395539e-05
1.046585e-04
1.153501e-04
1.261056e-04
1.368674e-04
0.000000e+00
1.275507e-06
5.038922e-06
1.021624e-05
1.658772e-05
2.416351e-05
3.275273e-05
4.210859e-05
5.200414e-05
6.225929e-05
7.273835e-05
8.334369e-05
9.400828e-05
1.046887e-04
1.153668e-04
1.260494e-04
1.366767e-04
0.000000e+00
2.907243e-06
7.159354e-06
1.206541e-05
1.821414e-05
2.553720e-05
3.384923e-05
4.293030e-05
5.258582e-05
6.264924e-05
7.298477e-05
8.348962e-05
9.408911e-05
1.047319e-04
1.153857e-04
1.260264e-04
1.366147e-04
0.000000e+00
5.714300e-06
9.908048e-06
1.456823e-05
2.045129e-05
2.744612e-05
3.536469e-05
4.405599e-05
5.337518e-05
6.317327e-05
7.331327e-05
8.368340e-05
9.419620e-05
1.047868e-04
1.154089e-04
1.260248e-04
1.366054e-04


2.111557e+00
2.097502e+00
2.182885e+00
2.401512e+00
2.579353e+00
2.736897e+00
2.888797e+00
3.023997e+00
3.134220e+00
3.216719e+00
3.272995e+00
3.307013e+00
3.316966e+00
3.283797e+00
3.212157e+00
3.157273e+00
2.388209e+00
2.371200e+00
2.465133e+00
2.608853e+00
2.744759e+00
2.861227e+00
2.982729e+00
3.090308e+00
3.178176e+00
3.243928e+00
3.288674e+00
3.315210e+00
3.320555e+00
3.285106e+00
3.214993e+00
3.162144e+00
2.821770e+00
2.822072e+00
2.862938e+00
2.943041e+00
2.999665e+00
3.068354e+00
3.136687e+00
3.197748e+00
3.247926e+00
3.285561e+00
3.311062e+00
3.325668e+00
3.326232e+00
3.296940e+00
3.241862e+00
3.201875e+00
3.130765e+00
3.118281e+00
3.129584e+00
3.150877e+00
3.178757e+00
3.209816e+00
3.240720e+00
3.268807e+00
3.292233e+00
3.309986e+00
3.322093e+00
3.329094e+00
3.329287e+00
3.314030e+00
3.284895e+00
3.263899e+00
3.132027e+00
3.119923e+00
3.126890e+00
3.150480e+00
3.178118e+00
3.208757e+00
3.239342e+00
3.266928e+00
3.289672e+00
3.306794e+00
3.318697e+00
3.326522e+00
3.330525e+00
3.327878e+00
3.319005e+00
3.312311e+00
2.833452e+00
2.816792e+00
2.854974e+00
2.928394e+00
2.998311e+00
3.066354e+00
3.134101e+00
3.194681e+00
3.243767e+00
3.280114e+00
3.305078e+00
3.321511e+00
3.332022e+00
3.337521e+00
3.339076e+00
3.339229e+00
2.392806e+00
2.378640e+00
2.455738e+00
2.602907e+00
2.733998e+00
2.860549e+00
2.981723e+00
3.090292e+00
3.178279e+00
3.243275e+00
3.287537e+00
3.315914e+00
3.333391e+00
3.343625e+00
3.349082e+00
3.351371e+00
2.122105e+00
2.105156e+00
2.215811e+00
2.402006e+00
2.573819e+00
2.735413e+00
2.889899e+00
3.027370e+00
3.139033e+00
3.221612e+00
3.277709e+00
3.313284e+00
3.334613e+00
3.346735e+00
3.353061e+00
3.355749e+00


-3.385808e-01
-1.310560e-01
-7.132652e-03
-2.283304e-02
2.194813e-03
7.319127e-02
1.619674e-01
2.654062e-01
3.776759e-01
4.886884e-01
5.878708e-01
6.664941e-01
7.195427e-01
7.455821e-01
7.697077e-01
1.070414e-02
5.262665e-01
4.284810e-01
4.333474e-01
4.283730e-01
4.415697e-01
4.777935e-01
5.222390e-01
5.771990e-01
6.411443e-01
7.107427e-01
7.821915e-01
8.520211e-01
9.159465e-01
9.595014e-01
8.628351e-01
-4.570653e-01
8.378321e-01
7.687265e-01
7.231727e-01
7.099033e-01
7.127464e-01
7.221485e-01
7.366725e-01
7.578007e-01
7.855657e-01
8.187923e-01
8.539861e-01
8.832091e-01
8.896102e-01
8.359539e-01
6.456680e-01
3.054560e-01
9.552287e-01
9.046075e-01
8.666490e-01
8.480430e-01
8.404596e-01
8.352073e-01
8.319135e-01
8.304338e-01
8.309071e-01
8.322328e-01
8.307249e-01
8.189967e-01
7.869334e-01
7.320776e-01
6.889423e-01
6.802353e-01
9.549461e-01
9.051361e-01
8.671032e-01
8.479051e-01
8.388683e-01
8.321569e-01
8.251530e-01
8.173091e-01
8.080243e-01
7.963692e-01
7.810868e-01
7.620763e-01
7.449121e-01
7.478832e-01
7.931260e-01
8.703122e-01
8.357229e-01
7.684470e-01
7.242229e-01
7.105544e-01
7.109350e-01
7.164999e-01
7.240098e-01
7.323519e-01
7.401993e-01
7.461233e-01
7.502723e-01
7.569652e-01
7.767237e-01
8.214067e-01
8.894909e-01
9.599236e-01
5.235731e-01
4.226444e-01
4.257305e-01
4.254090e-01
4.445784e-01
4.766505e-01
5.179240e-01
5.675138e-01
6.232720e-01
6.809885e-01
7.368468e-01
7.901892e-01
8.444736e-01
9.029762e-01
9.581981e-01
9.930228e-01
-3.378816e-01
-1.352305e-01
-4.057399e-02
-3.349417e-02
7.506432e-03
7.655782e-02
1.674086e-01
2.801028e-01
4.111881e-01
5.519689e-01
6.903101e-01
8.128020e-01
9.071160e-01
9.662845e-01
9.933902e-01
9.998612e-01
1 2 19 18
2 3 20 19
3 4 21 20
4 5 22 21
5 6 23 22
6 7 24 23
7 8 25 24
8 9 26 25
9 10 27 26
10 11 28 27
11 12 29 28
12 13 30 29
13 14 31 30
14 15 32 31
15 16 33 32
16 17 34 33
18 19 36 35
19 20 37 36
20 21 38 37
21 22 39 38
22 23 40 39
23 24 41 40
24 25 42 41
25 26 43 42
26 27 44 43
27 28 45 44
28 29 46 45
29 30 47 46
30 31 48 47
31 32 49 48
32 33 50 49
33 34 51 50
35 36 53 52
36 37 54 53
37 38 55 54
38 39 56 55
39 40 57 56
40 41 58 57
41 42 59 58
42 43 60 59
43 44 61 60
44 45 62 61
45 46 63 62
46 47 64 63
47 48 65 64
48 49 66 65
49 50 67 66
50 51 68 67
52 53 70 69
53 54 71 70
54 55 72 71
55 56 73 72
56 57 74 73
57 58 75 74
58 59 76 75
59 60 77 76
60 61 78 77
61 62 79 78
62 63 80 79
63 64 81 80
64 65 82 81
65 66 83 82
66 67 84 83
67 68 85 84
69 70 87 86
70 71 88 87
71 72 89 88
72 73 90 89
73 74 91 90
74 75 92 91
75 76 93 92
76 77 94 93
77 78 95 94
78 79 96 95
79 80 97 96
80 81 98 97
81 82 99 98
82 83 100 99
83 84 101 100
84 85 102 101
86 87 104 103
87 88 105 104
88 89 106 105
89 90 107 106
90 91 108 107
91 92 109 108
92 93 110 109
93 94 111 110
94 95 112 111
95 96 113 112
96 97 114 113
97 98 115 114
98 99 116 115
99 100 117 116
100 101 118 117
101 102 119 118
103 104 121 120
104 105 122 121
105 106 123 122
106 107 124 123
107 108 125 124
108 109 126 125
109 110 127 126
110 111 128 127
111 112 129 128
112 113 130 129
113 114 131 130
114 115 132 131
115 116 133 132
116 117 134 133
117 118 135 134
118 119 136 135
120 121 138 137
121 122 139 138
122 123 140 139
123 124 141 140
124 125 142 141
125 126 143 142
126 127 144 143
127 128 145 144
128 129 146 145
129 130 147 146
130 131 148 147
131 132 149 148
132 133 150 149
133 134 151 150
134 135 152 151
135 136 153 152
