TITLE = "Solution"
VARIABLES = x, y, u, v, psiu, psiv, t, stress
ZONE T="structure" N=153 E=128 F=FEBLOCK ET=QUADRILATERAL VARLOCATION=([7,8]=cellcentered)
0.000000e+00
1.250000e+01
2.500000e+01
3.750000e+01
5.000000e+01
6.250000e+01
7.500000e+01
8.750000e+01
1.000000e+02
1.125000e+02
1.250000e+02
1.375000e+02
1.500000e+02
1.625000e+02
1.750000e+02
1.875000e+02
2.000000e+02
0.000000e+00
1.250000e+01
2.500000e+01
3.750000e+01
5.000000e+01
6.250000e+01
7.500000e+01
8.750000e+01
1.000000e+02
1.125000e+02
1.250000e+02
1.375000e+02
1.500000e+02
1.625000e+02
1.750000e+02
1.875000e+02
2.000000e+02
0.000000e+00
1.250000e+01
2.500000e+01
3.750000e+01
5.000000e+01
6.250000e+01
7.500000e+01
8.750000e+01
1.000000e+02
1.125000e+02
1.250000e+02
1.375000e+02
1.500000e+02
1.625000e+02
1.750000e+02
1.875000e+02
2.000000e+02
0.000000e+00
1.250000e+01
2.500000e+01
3.750000e+01
5.000000e+01
6.250000e+01
7.500000e+01
8.750000e+01
1.000000e+02
1.125000e+02
1.250000e+02
1.375000e+02
1.500000e+02
1.625000e+02
1.750000e+02
1.875000e+02
2.000000e+02
0.000000e+00
1.250000e+01
2.500000e+01
3.750000e+01
5.000000e+01
6.250000e+01
7.500000e+01
8.750000e+01
1.000000e+02
1.125000e+02
1.250000e+02
1.375000e+02
1.500000e+02
1.625000e+02
1.750000e+02
1.875000e+02
2.000000e+02
0.000000e+00
1.250000e+01
2.500000e+01
3.750000e+01
5.000000e+01
6.250000e+01
7.500000e+01
8.750000e+01
1.000000e+02
1.125000e+02
1.250000e+02
1.375000e+02
1.500000e+02
1.625000e+02
1.750000e+02
1.875000e+02
2.000000e+02
0.000000e+00
1.250000e+01
2.500000e+01
3.750000e+01
5.000000e+01
6.250000e+01
7.500000e+01
8.750000e+01
1.000000e+02
1.125000e+02
1.250000e+02
1.375000e+02
1.500000e+02
1.625000e+02
1.750000e+02
1.875000e+02
2.000000e+02
0.000000e+00
1.250000e+01
2.500000e+01
3.750000e+01
5.000000e+01
6.250000e+01
7.500000e+01
8.750000e+01
1.000000e+02
1.125000e+02
1.250000e+02
1.375000e+02
1.500000e+02
1.625000e+02
1.750000e+02
1.875000e+02
2.000000e+02
0.000000e+00
1.250000e+01
2.500000e+01
3.750000e+01
5.000000e+01
6.250000e+01
7.500000e+01
8.750000e+01
1.000000e+02
1.125000e+02
1.250000e+02
1.375000e+02
1.500000e+02
1.625000e+02
1.750000e+02
1.875000e+02
2.000000e+02
0.000000e+00
0.000000e+00
0.000000e+00
0.000000e+00
0.000000e+00
0.000000e+00
0.000000e+00
0.000000e+00
0.000000e+00
0.000000e+00
0.000000e+00
0.000000e+00
0.000000e+00
0.000000e+00
0.000000e+00
0.000000e+00
0.000000e+00
1.250000e+01
1.250000e+01
1.250000e+01
1.250000e+01
1.250000e+01
1.250000e+01
1.250000e+01
1.250000e+01
1.250000e+01
1.250000e+01
1.250000e+01
1.250000e+01
1.250000e+01
1.250000e+01
1.250000e+01
1.250000e+01
1.250000e+01
2.500000e+01
2.500000e+01
2.500000e+01
2.500000e+01
2.500000e+01
2.500000e+01
2.500000e+01
2.500000e+01
2.500000e+01
2.500000e+01
2.500000e+01
2.500000e+01
2.500000e+01
2.500000e+01
2.500000e+01
2.500000e+01
2.500000e+01
3.750000e+01
3.750000e+01
3.750000e+01
3.750000e+01
3.750000e+01
3.750000e+01
3.750000e+01
3.750000e+01
3.750000e+01
3.750000e+01
3.750000e+01
3.750000e+01
3.750000e+01
3.750000e+01
3.750000e+01
3.750000e+01
3.750000e+01
5.000000e+01
5.000000e+01
5.000000e+01
5.000000e+01
5.000000e+01
5.000000e+01
5.000000e+01
5.000000e+01
5.000000e+01
5.000000e+01
5.000000e+01
5.000000e+01
5.000000e+01
5.000000e+01
5.000000e+01
5.000000e+01
5.000000e+01
6.250000e+01
6.250000e+01
6.250000e+01
6.250000e+01
6.250000e+01
6.250000e+01
6.250000e+01
6.250000e+01
6.250000e+01
6.250000e+01
6.250000e+01
6.250000e+01
6.250000e+01
6.250000e+01
6.250000e+01
6.250000e+01
6.250000e+01
7.500000e+01
7.500000e+01
7.500000e+01
7.500000e+01
7.500000e+01
7.500000e+01
7.500000e+01
7.500000e+01
7.500000e+01
7.500000e+01
7.500000e+01
7.500000e+01
7.500000e+01
7.500000e+01
7.500000e+01
7.500000e+01
7.500000e+01
8.750000e+01
8.750000e+01
8.750000e+01
8.750000e+01
8.750000e+01
8.750000e+01
8.750000e+01
8.750000e+01
8.750000e+01
8.750000e+01
8.750000e+01
8.750000e+01
8.750000e+01
8.750000e+01
8.750000e+01
8.750000e+01
8.750000e+01
1.000000e+02
1.000000e+02
1.000000e+02
1.000000e+02
1.000000e+02
1.000000e+02
1.000000e+02
1.000000e+02
1.000000e+02
1.000000e+02
1.000000e+02
1.000000e+02
1.000000e+02
1.000000e+02
1.000000e+02
1.000000e+02
1.000000e+02
0.000000e+00
-9.309655e-01
-1.618629e+00
-2.328093e+00
-3.013426e+00
-3.670350e+00
-4.348697e+00
-5.014168e+00
-5.672997e+00
-6.338873e+00
-6.999779e+00
-7.675012e+00
-8.395271e+00
-9.152395e+00
-9.926264e+00
-1.063005e+01
-1.108004e+01
0.000000e+00
-4.506705e-01
-9.317572e-01
-1.435591e+00
-1.952167e+00
-2.442978e+00
-2.950403e+00
-3.452764e+00
-3.947942e+00
-4.447555e+00
-4.941018e+00
-5.434241e+00
-5.937436e+00
-6.419922e+00
-6.776118e+00
-6.867252e+00
-7.036339e+00
0.000000e+00
-1.947869e-01
-4.361549e-01
-7.432880e-01
-1.082868e+00
-1.413428e+00
-1.759098e+00
-2.102791e+00
-2.442310e+00
-2.780994e+00
-3.108120e+00
-3.415135e+00
-3.685083e+00
-3.878225e+00
-3.937907e+00
-3.917671e+00
-4.070073e+00
0.000000e+00
-8.728977e-02
-1.865816e-01
-3.297274e-01
-4.816469e-01
-6.503427e-01
-8.225002e-01
-9.926595e-01
-1.160716e+00
-1.320765e+00
-1.464580e+00
-1.577302e+00
-1.637674e+00
-1.627654e+00
-1.562796e+00
-1.558341e+00
-1.687411e+00
0.000000e+00
-1.747234e-03
-3.548739e-03
-5.066806e-03
-5.899421e-03
-5.222155e-03
-1.882137e-03
5.880631e-03
2.081952e-02
4.617642e-02
8.707801e-02
1.518140e-01
2.465045e-01
3.647426e-01
4.655732e-01
4.782579e-01
3.745717e-01
0.000000e+00
8.430616e-02
1.807190e-01
3.209523e-01
4.710869e-01
6.403849e-01
8.173045e-01
1.000019e+00
1.192736e+00
1.395332e+00
1.609184e+00
1.829531e+00
2.043640e+00
2.230200e+00
2.353497e+00
2.377914e+00
2.316516e+00
0.000000e+00
1.934818e-01
4.335065e-01
7.389917e-01
1.077106e+00
1.406946e+00
1.753495e+00
2.102394e+00
2.452079e+00
2.808380e+00
3.168796e+00
3.524030e+00
3.844364e+00
4.096672e+00
4.255940e+00
4.310250e+00
4.294647e+00
0.000000e+00
4.507504e-01
9.318215e-01
1.435080e+00
1.951121e+00
2.440587e+00
2.944739e+00
3.444599e+00
3.932600e+00
4.416490e+00
4.897068e+00
5.366890e+00
5.783371e+00
6.097605e+00
6.292054e+00
6.376471e+00
6.391959e+00
0.000000e+00
9.320246e-01
1.621095e+00
2.331810e+00
3.018672e+00
3.676455e+00
4.352102e+00
5.013819e+00
5.659586e+00
6.294324e+00
6.918759e+00
7.518800e+00
8.029053e+00
8.380415e+00
8.557755e+00
8.603011e+00
8.602371e+00
0.000000e+00
-5.789053e-01
-1.246467e+00
-2.135584e+00
-3.193499e+00
-4.419352e+00
-5.825509e+00
-7.400143e+00
-9.147454e+00
-1.106998e+01
-1.316361e+01
-1.543765e+01
-1.790665e+01
-2.057760e+01
-2.348429e+01
-2.682849e+01
-3.177781e+01
0.000000e+00
-3.787434e-01
-1.078604e+00
-1.953875e+00
-3.020016e+00
-4.244707e+00
-5.649162e+00
-7.227061e+00
-8.974359e+00
-1.089783e+01
-1.299315e+01
-1.526374e+01
-1.772860e+01
-2.041239e+01
-2.336259e+01
-2.673199e+01
-3.078786e+01
0.000000e+00
-3.373485e-01
-9.747776e-01
-1.842281e+00
-2.898470e+00
-4.121279e+00
-5.525458e+00
-7.103815e+00
-8.853754e+00
-1.078174e+01
-1.288473e+01
-1.516678e+01
-1.764758e+01
-2.036239e+01
-2.335497e+01
-2.656197e+01
-2.956297e+01
0.000000e+00
-3.672824e-01
-9.551202e-01
-1.798250e+00
-2.832073e+00
-4.052500e+00
-5.455948e+00
-7.035117e+00
-8.790920e+00
-1.072710e+01
-1.284526e+01
-1.515022e+01
-1.765196e+01
-2.036962e+01
-2.330105e+01
-2.623818e+01
-2.879254e+01
0.000000e+00
-3.770659e-01
-9.621989e-01
-1.785938e+00
-2.816330e+00
-4.034499e+00
-5.439869e+00
-7.023577e+00
-8.786157e+00
-1.073111e+01
-1.286352e+01
-1.518671e+01
-1.769406e+01
-2.037381e+01
-2.316823e+01
-2.588323e+01
-2.819271e+01
0.000000e+00
-3.670356e-01
-9.558989e-01
-1.801018e+00
-2.838335e+00
-4.064246e+00
-5.474866e+00
-7.064833e+00
-8.834254e+00
-1.078388e+01
-1.292097e+01
-1.524804e+01
-1.774433e+01
-2.036731e+01
-2.303340e+01
-2.558214e+01
-2.778309e+01
0.000000e+00
-3.371310e-01
-9.761708e-01
-1.846808e+00
-2.908692e+00
-4.140472e+00
-5.556744e+00
-7.153016e+00
-8.925436e+00
-1.087615e+01
-1.300949e+01
-1.532889e+01
-1.780563e+01
-2.037545e+01
-2.294610e+01
-2.539267e+01
-2.758687e+01
0.000000e+00
-3.786219e-01
-1.080076e+00
-1.958795e+00
-3.031212e+00
-4.265763e+00
-5.684265e+00
-7.281967e+00
-9.053856e+00
-1.100366e+01
-1.313231e+01
-1.543991e+01
-1.789301e+01
-2.041842e+01
-2.292351e+01
-2.531134e+01
-2.753909e+01
0.000000e+00
-5.790744e-01
-1.248144e+00
-2.140763e+00
-3.204981e+00
-4.440339e+00
-5.860485e+00
-7.454259e+00
-9.223281e+00
-1.117052e+01
-1.329566e+01
-1.558988e+01
-1.801091e+01
-2.048953e+01
-2.294420e+01
-2.529636e+01
-2.753962e+01


0.000000e+00
1.427635e-05
2.455957e-05
3.643906e-05
5.125994e-05
6.455377e-05
7.794149e-05
9.199225e-05
1.054320e-04
1.186516e-04
1.321153e-04
1.459539e-04
1.578266e-04
1.653720e-04
1.698024e-04
1.734832e-04
1.781345e-04
0.000000e+00
1.051697e-05
1.961136e-05
2.830151e-05
4.035598e-05
5.079715e-05
6.041472e-05
7.111336e-05
8.125106e-05
9.060026e-05
1.001933e-04
1.096847e-04
1.166178e-04
1.187121e-04
1.184435e-04
1.214915e-04
1.264612e-04
0.000000e+00
8.524859e-06
1.490315e-05
2.072167e-05
2.914308e-05
3.605361e-05
4.227383e-05
4.925471e-05
5.557616e-05
6.110172e-05
6.629728e-05
7.070965e-05
7.305276e-05
7.261735e-05
7.220453e-05
7.488283e-05
7.957849e-05
0.000000e+00
4.513067e-06
7.070100e-06
1.071169e-05
1.453265e-05
1.759339e-05
2.094821e-05
2.406250e-05
2.672419e-05
2.898964e-05
3.032178e-05
3.061743e-05
2.997534e-05
2.953397e-05
3.039838e-05
3.354866e-05
3.825941e-05
0.000000e+00
-4.560210e-08
-1.074271e-07
-1.848705e-07
-2.801744e-07
-3.980835e-07
-5.401862e-07
-7.243198e-07
-1.021914e-06
-1.531430e-06
-2.515413e-06
-3.973963e-06
-5.778570e-06
-6.908389e-06
-6.103980e-06
-3.955843e-06
-1.053015e-06
0.000000e+00
-4.588069e-06
-7.243803e-06
-1.101566e-05
-1.501515e-05
-1.826534e-05
-2.181829e-05
-2.523640e-05
-2.815251e-05
-3.079559e-05
-3.303114e-05
-3.484069e-05
-3.669841e-05
-3.832338e-05
-3.946313e-05
-3.982132e-05
-3.915885e-05
0.000000e+00
-8.543687e-06
-1.495922e-05
-2.087725e-05
-2.942451e-05
-3.642437e-05
-4.283976e-05
-4.996844e-05
-5.609268e-05
-6.153917e-05
-6.647573e-05
-6.951138e-05
-7.124606e-05
-7.297224e-05
-7.461323e-05
-7.585746e-05
-7.621619e-05
0.000000e+00
-1.049897e-05
-1.957946e-05
-2.829360e-05
-4.038274e-05
-5.078354e-05
-6.049846e-05
-7.129634e-05
-8.109766e-05
-9.059026e-05
-1.002084e-04
-1.072592e-04
-1.107355e-04
-1.127658e-04
-1.139533e-04
-1.145032e-04
-1.147000e-04
0.000000e+00
-1.427518e-05
-2.451408e-05
-3.632233e-05
-5.106258e-05
-6.418689e-05
-7.740749e-05
-9.139713e-05
-1.044885e-04
-1.178242e-04
-1.320779e-04
-1.437705e-04
-1.510859e-04
-1.543267e-04
-1.549503e-04
-1.546411e-04
-1.544534e-04
0.000000e+00
1.195959e-05
1.956453e-05
3.101987e-05
4.589693e-05
6.223768e-05
8.283928e-05
1.075662e-04
1.352115e-04
1.666500e-04
2.023076e-04
2.416588e-04
2.835193e-04
3.285122e-04
3.811017e-04
4.409198e-04
5.015179e-04
0.000000e+00
6.931041e-06
1.533210e-05
2.514474e-05
3.955394e-05
5.652190e-05
7.688783e-05
1.015019e-04
1.294926e-04
1.610255e-04
1.965823e-04
2.363511e-04
2.800443e-04
3.269331e-04
3.778266e-04
4.349802e-04
4.934549e-04
0.000000e+00
3.531213e-06
1.130422e-05
2.060564e-05
3.439143e-05
5.194313e-05
7.252304e-05
9.700646e-05
1.254157e-04
1.572703e-04
1.929044e-04
2.331217e-04
2.780560e-04
3.264358e-04
3.740830e-04
4.273183e-04
4.834806e-04
0.000000e+00
2.271834e-06
9.172719e-06
1.866198e-05
3.232251e-05
4.996299e-05
7.077253e-05
9.539149e-05
1.239474e-04
1.561325e-04
1.920390e-04
2.319184e-04
2.772713e-04
3.257436e-04
3.712870e-04
4.192747e-04
4.709127e-04
0.000000e+00
1.895387e-06
8.550611e-06
1.810279e-05
3.181700e-05
4.934843e-05
7.023506e-05
9.497461e-05
1.235693e-04
1.559532e-04
1.921091e-04
2.317975e-04
2.770167e-04
3.259668e-04
3.704475e-04
4.137042e-04
4.595277e-04
0.000000e+00
2.315459e-06
9.226137e-06
1.871142e-05
3.236347e-05
4.993761e-05
7.066744e-05
9.530298e-05
1.238081e-04
1.561144e-04
1.926691e-04
2.329235e-04
2.781946e-04
3.263154e-04
3.711175e-04
4.123255e-04
4.530464e-04
0.000000e+00
3.596521e-06
1.138878e-05
2.069592e-05
3.447291e-05
5.188993e-05
7.235207e-05
9.682216e-05
1.250149e-04
1.571469e-04
1.941069e-04
2.352622e-04
2.801998e-04
3.268458e-04
3.709947e-04
4.118804e-04
4.511273e-04
0.000000e+00
6.993844e-06
1.543841e-05
2.527367e-05
3.965720e-05
5.650585e-05
7.674622e-05
1.012269e-04
1.289695e-04
1.608306e-04
1.976952e-04
2.384306e-04
2.819758e-04
3.272069e-04
3.706238e-04
4.116479e-04
4.512026e-04
0.000000e+00
1.201811e-05
1.967351e-05
3.116773e-05
4.600812e-05
6.223757e-05
8.276749e-05
1.072779e-04
1.346525e-04
1.666346e-04
2.031707e-04
2.420504e-04
2.837356e-04
3.275330e-04
3.705207e-04
4.115122e-04
4.513783e-04


3.337221e+00
3.232582e+00
3.286827e+00
3.125508e+00
3.060642e+00
3.289898e+00
3.475794e+00
3.771973e+00
4.203124e+00
4.702765e+00
5.503217e+00
6.589679e+00
7.465983e+00
7.565002e+00
6.573322e+00
5.499710e+00
5.296115e+00
5.188961e+00
5.144647e+00
5.014358e+00
4.923253e+00
5.062856e+00
5.175991e+00
5.354008e+00
5.630883e+00
5.946954e+00
6.441337e+00
7.112394e+00
7.629021e+00
7.397660e+00
6.090585e+00
4.687950e+00
7.357691e+00
7.294214e+00
7.257772e+00
7.144727e+00
7.095216e+00
7.139804e+00
7.157162e+00
7.203543e+00
7.284796e+00
7.355178e+00
7.449739e+00
7.588145e+00
7.663713e+00
7.255739e+00
6.007940e+00
4.813223e+00
8.223189e+00
8.198432e+00
8.178689e+00
8.120790e+00
8.099657e+00
8.096037e+00
8.072850e+00
8.045717e+00
8.003314e+00
7.908031e+00
7.728272e+00
7.503579e+00
7.357574e+00
7.143636e+00
6.601274e+00
6.075205e+00
8.222044e+00
8.196038e+00
8.174221e+00
8.113339e+00
8.088575e+00
8.078847e+00
8.046776e+00
8.001320e+00
7.919767e+00
7.769655e+00
7.517095e+00
7.214118e+00
7.094721e+00
7.197565e+00
7.298213e+00
7.294159e+00
7.352706e+00
7.285123e+00
7.239862e+00
7.116167e+00
7.052208e+00
7.076930e+00
7.071323e+00
7.065107e+00
7.058376e+00
7.073977e+00
7.111726e+00
7.128099e+00
7.249084e+00
7.547304e+00
7.851501e+00
8.008830e+00
5.288375e+00
5.175165e+00
5.119801e+00
4.976540e+00
4.866115e+00
4.984531e+00
5.083525e+00
5.212865e+00
5.459829e+00
5.912168e+00
6.567968e+00
7.173910e+00
7.609186e+00
7.959254e+00
8.210904e+00
8.328555e+00
3.330074e+00
3.222009e+00
3.268629e+00
3.101375e+00
3.025345e+00
3.244666e+00
3.444745e+00
3.737629e+00
4.228599e+00
5.064751e+00
6.212120e+00
7.219002e+00
7.838293e+00
8.182282e+00
8.364473e+00
8.439948e+00


-6.757573e-01
-2.134586e-01
-2.890638e-01
-2.671526e-01
-1.593314e-01
-2.359208e-01
-2.020126e-01
-1.768263e-01
-2.017176e-01
-1.812446e-01
-2.098160e-01
-3.184391e-01
-3.361211e-01
-9.241294e-02
4.400079e-01
-7.770664e-01
5.735710e-01
4.282010e-01
3.160849e-01
2.472289e-01
2.963841e-01
2.352800e-01
2.324323e-01
2.359852e-01
2.140270e-01
2.310348e-01
2.620168e-01
3.171252e-01
4.753425e-01
7.338042e-01
7.306364e-01
-1.154296e+00
7.943102e-01
6.116702e-01
4.072689e-01
3.484518e-01
3.354597e-01
2.950050e-01
2.959164e-01
2.994776e-01
3.016337e-01
3.307880e-01
3.811272e-01
4.441885e-01
4.742150e-01
3.464889e-01
1.116073e-01
-2.809722e-01
8.254428e-01
6.748713e-01
4.632195e-01
3.629913e-01
3.049751e-01
2.786661e-01
2.799535e-01
2.881801e-01
2.983635e-01
3.046583e-01
2.934762e-01
2.410289e-01
9.108446e-02
-1.629601e-01
-1.727647e-01
-3.261005e-03
8.267532e-01
6.764620e-01
4.651743e-01
3.626357e-01
2.996739e-01
2.650588e-01
2.512961e-01
2.383784e-01
2.217227e-01
1.834065e-01
1.113624e-01
1.086692e-02
-1.171991e-01
-1.886447e-01
-3.315242e-03
3.982287e-01
7.973104e-01
6.155995e-01
4.125771e-01
3.503750e-01
3.283747e-01
2.725557e-01
2.423706e-01
2.016342e-01
1.413873e-01
5.969115e-02
-3.733198e-02
-8.963333e-02
-6.032032e-02
9.293588e-02
4.080020e-01
7.840719e-01
5.754911e-01
4.301849e-01
3.188611e-01
2.481117e-01
2.939601e-01
2.265620e-01
2.031921e-01
1.854597e-01
1.289825e-01
5.330825e-02
-1.980346e-02
2.358621e-02
2.117079e-01
4.794252e-01
7.661922e-01
9.603304e-01
-6.780543e-01
-2.162967e-01
-2.906487e-01
-2.696199e-01
-1.590997e-01
-2.258720e-01
-1.932262e-01
-1.435931e-01
-1.233585e-01
-1.116444e-01
-6.488427e-02
1.675870e-01
5.292807e-01
8.166919e-01
9.623586e-01
9.991697e-01
1 2 19 18
2 3 20 19
3 4 21 20
4 5 22 21
5 6 23 22
6 7 24 23
7 8 25 24
8 9 26 25
9 10 27 26
10 11 28 27
11 12 29 28
12 13 30 29
13 14 31 30
14 15 32 31
15 16 33 32
16 17 34 33
18 19 36 35
19 20 37 36
20 21 38 37
21 22 39 38
22 23 40 39
23 24 41 40
24 25 42 41
25 26 43 42
26 27 44 43
27 28 45 44
28 29 46 45
29 30 47 46
30 31 48 47
31 32 49 48
32 33 50 49
33 34 51 50
35 36 53 52
36 37 54 53
37 38 55 54
38 39 56 55
39 40 57 56
40 41 58 57
41 42 59 58
42 43 60 59
43 44 61 60
44 45 62 61
45 46 63 62
46 47 64 63
47 48 65 64
48 49 66 65
49 50 67 66
50 51 68 67
52 53 70 69
53 54 71 70
54 55 72 71
55 56 73 72
56 57 74 73
57 58 75 74
58 59 76 75
59 60 77 76
60 61 78 77
61 62 79 78
62 63 80 79
63 64 81 80
64 65 82 81
65 66 83 82
66 67 84 83
67 68 85 84
69 70 87 86
70 71 88 87
71 72 89 88
72 73 90 89
73 74 91 90
74 75 92 91
75 76 93 92
76 77 94 93
77 78 95 94
78 79 96 95
79 80 97 96
80 81 98 97
81 82 99 98
82 83 100 99
83 84 101 100
84 85 102 101
86 87 104 103
87 88 105 104
88 89 106 105
89 90 107 106
90 91 108 107
91 92 109 108
92 93 110 109
93 94 111 110
94 95 112 111
95 96 113 112
96 97 114 113
97 98 115 114
98 99 116 115
99 100 117 116
100 101 118 117
101 102 119 118
103 104 121 120
104 105 122 121
105 106 123 122
106 107 124 123
107 108 125 124
108 109 126 125
109 110 127 126
110 111 128 127
111 112 129 128
112 113 130 129
113 114 131 130
114 115 132 131
115 116 133 132
116 117 134 133
117 118 135 134
118 119 136 135
120 121 138 137
121 122 139 138
122 123 140 139
123 124 141 140
124 125 142 141
125 126 143 142
126 127 144 143
127 128 145 144
128 129 146 145
129 130 147 146
130 131 148 147
131 132 149 148
132 133 150 149
133 134 151 150
134 135 152 151
135 136 153 152
