TITLE = "Solution"
VARIABLES = x, y, u, v, psiu, psiv, t, stress
ZONE T="structure" N=153 E=128 F=FEBLOCK ET=QUADRILATERAL VARLOCATION=([7,8]=cellcentered)
0.000000e+00
1.250000e+01
2.500000e+01
3.750000e+01
5.000000e+01
6.250000e+01
7.500000e+01
8.750000e+01
1.000000e+02
1.125000e+02
1.250000e+02
1.375000e+02
1.500000e+02
1.625000e+02
1.750000e+02
1.875000e+02
2.000000e+02
0.000000e+00
1.250000e+01
2.500000e+01
3.750000e+01
5.000000e+01
6.250000e+01
7.500000e+01
8.750000e+01
1.000000e+02
1.125000e+02
1.250000e+02
1.375000e+02
1.500000e+02
1.625000e+02
1.750000e+02
1.875000e+02
2.000000e+02
0.000000e+00
1.250000e+01
2.500000e+01
3.750000e+01
5.000000e+01
6.250000e+01
7.500000e+01
8.750000e+01
1.000000e+02
1.125000e+02
1.250000e+02
1.375000e+02
1.500000e+02
1.625000e+02
1.750000e+02
1.875000e+02
2.000000e+02
0.000000e+00
1.250000e+01
2.500000e+01
3.750000e+01
5.000000e+01
6.250000e+01
7.500000e+01
8.750000e+01
1.000000e+02
1.125000e+02
1.250000e+02
1.375000e+02
1.500000e+02
1.625000e+02
1.750000e+02
1.875000e+02
2.000000e+02
0.000000e+00
1.250000e+01
2.500000e+01
3.750000e+01
5.000000e+01
6.250000e+01
7.500000e+01
8.750000e+01
1.000000e+02
1.125000e+02
1.250000e+02
1.375000e+02
1.500000e+02
1.625000e+02
1.750000e+02
1.875000e+02
2.000000e+02
0.000000e+00
1.250000e+01
2.500000e+01
3.750000e+01
5.000000e+01
6.250000e+01
7.500000e+01
8.750000e+01
1.000000e+02
1.125000e+02
1.250000e+02
1.375000e+02
1.500000e+02
1.625000e+02
1.750000e+02
1.875000e+02
2.000000e+02
0.000000e+00
1.250000e+01
2.500000e+01
3.750000e+01
5.000000e+01
6.250000e+01
7.500000e+01
8.750000e+01
1.000000e+02
1.125000e+02
1.250000e+02
1.375000e+02
1.500000e+02
1.625000e+02
1.750000e+02
1.875000e+02
2.000000e+02
0.000000e+00
1.250000e+01
2.500000e+01
3.750000e+01
5.000000e+01
6.250000e+01
7.500000e+01
8.750000e+01
1.000000e+02
1.125000e+02
1.250000e+02
1.375000e+02
1.500000e+02
1.625000e+02
1.750000e+02
1.875000e+02
2.000000e+02
0.000000e+00
1.250000e+01
2.500000e+01
3.750000e+01
5.000000e+01
6.250000e+01
7.500000e+01
8.750000e+01
1.000000e+02
1.125000e+02
1.250000e+02
1.375000e+02
1.500000e+02
1.625000e+02
1.750000e+02
1.875000e+02
2.000000e+02
0.000000e+00
0.000000e+00
0.000000e+00
0.000000e+00
0.000000e+00
0.000000e+00
0.000000e+00
0.000000e+00
0.000000e+00
0.000000e+00
0.000000e+00
0.000000e+00
0.000000e+00
0.000000e+00
0.000000e+00
0.000000e+00
0.000000e+00
1.250000e+01
1.250000e+01
1.250000e+01
1.250000e+01
1.250000e+01
1.250000e+01
1.250000e+01
1.250000e+01
1.250000e+01
1.250000e+01
1.250000e+01
1.250000e+01
1.250000e+01
1.250000e+01
1.250000e+01
1.250000e+01
1.250000e+01
2.500000e+01
2.500000e+01
2.500000e+01
2.500000e+01
2.500000e+01
2.500000e+01
2.500000e+01
2.500000e+01
2.500000e+01
2.500000e+01
2.500000e+01
2.500000e+01
2.500000e+01
2.500000e+01
2.500000e+01
2.500000e+01
2.500000e+01
3.750000e+01
3.750000e+01
3.750000e+01
3.750000e+01
3.750000e+01
3.750000e+01
3.750000e+01
3.750000e+01
3.750000e+01
3.750000e+01
3.750000e+01
3.750000e+01
3.750000e+01
3.750000e+01
3.750000e+01
3.750000e+01
3.750000e+01
5.000000e+01
5.000000e+01
5.000000e+01
5.000000e+01
5.000000e+01
5.000000e+01
5.000000e+01
5.000000e+01
5.000000e+01
5.000000e+01
5.000000e+01
5.000000e+01
5.000000e+01
5.000000e+01
5.000000e+01
5.000000e+01
5.000000e+01
6.250000e+01
6.250000e+01
6.250000e+01
6.250000e+01
6.250000e+01
6.250000e+01
6.250000e+01
6.250000e+01
6.250000e+01
6.250000e+01
6.250000e+01
6.250000e+01
6.250000e+01
6.250000e+01
6.250000e+01
6.250000e+01
6.250000e+01
7.500000e+01
7.500000e+01
7.500000e+01
7.500000e+01
7.500000e+01
7.500000e+01
7.500000e+01
7.500000e+01
7.500000e+01
7.500000e+01
7.500000e+01
7.500000e+01
7.500000e+01
7.500000e+01
7.500000e+01
7.500000e+01
7.500000e+01
8.750000e+01
8.750000e+01
8.750000e+01
8.750000e+01
8.750000e+01
8.750000e+01
8.750000e+01
8.750000e+01
8.750000e+01
8.750000e+01
8.750000e+01
8.750000e+01
8.750000e+01
8.750000e+01
8.750000e+01
8.750000e+01
8.750000e+01
1.000000e+02
1.000000e+02
1.000000e+02
1.000000e+02
1.000000e+02
1.000000e+02
1.000000e+02
1.000000e+02
1.000000e+02
1.000000e+02
1.000000e+02
1.000000e+02
1.000000e+02
1.000000e+02
1.000000e+02
1.000000e+02
1.000000e+02
0.000000e+00
-9.488819e-01
-1.637095e+00
-2.357743e+00
-3.040991e+00
-3.695839e+00
-4.377977e+00
-5.039847e+00
-5.695300e+00
-6.360765e+00
-7.019393e+00
-7.683576e+00
-8.398863e+00
-9.173772e+00
-9.986690e+00
-1.070619e+01
-1.115827e+01
0.000000e+00
-4.483791e-01
-9.252036e-01
-1.430396e+00
-1.946398e+00
-2.434788e+00
-2.945251e+00
-3.447104e+00
-3.940760e+00
-4.443202e+00
-4.938760e+00
-5.429523e+00
-5.933758e+00
-6.434180e+00
-6.818170e+00
-6.917978e+00
-7.090639e+00
0.000000e+00
-1.806988e-01
-4.118785e-01
-7.144806e-01
-1.054769e+00
-1.383904e+00
-1.733095e+00
-2.079117e+00
-2.421155e+00
-2.765586e+00
-3.098648e+00
-3.411281e+00
-3.688381e+00
-3.893081e+00
-3.963972e+00
-3.947408e+00
-4.098853e+00
0.000000e+00
-8.424662e-02
-1.782754e-01
-3.214847e-01
-4.704590e-01
-6.406110e-01
-8.138031e-01
-9.849927e-01
-1.155651e+00
-1.318767e+00
-1.467850e+00
-1.587007e+00
-1.652627e+00
-1.644904e+00
-1.577079e+00
-1.569073e+00
-1.696395e+00
0.000000e+00
-2.067764e-03
-4.281457e-03
-6.172797e-03
-7.464892e-03
-7.238274e-03
-4.130076e-03
3.354947e-03
1.787571e-02
4.271163e-02
8.188038e-02
1.439817e-01
2.361097e-01
3.540461e-01
4.608161e-01
4.803268e-01
3.769885e-01
0.000000e+00
8.069766e-02
1.713161e-01
3.108014e-01
4.571247e-01
6.272124e-01
8.046669e-01
9.880176e-01
1.183817e+00
1.389610e+00
1.608731e+00
1.834732e+00
2.051154e+00
2.238655e+00
2.364677e+00
2.391216e+00
2.327738e+00
0.000000e+00
1.791761e-01
4.089956e-01
7.095679e-01
1.047680e+00
1.376256e+00
1.725930e+00
2.077069e+00
2.432032e+00
2.796493e+00
3.163968e+00
3.529548e+00
3.858741e+00
4.115527e+00
4.277866e+00
4.332639e+00
4.315207e+00
0.000000e+00
4.481671e-01
9.256418e-01
1.430134e+00
1.944789e+00
2.433158e+00
2.939929e+00
3.437426e+00
3.926799e+00
4.413074e+00
4.890500e+00
5.363479e+00
5.791968e+00
6.116949e+00
6.318938e+00
6.406863e+00
6.422733e+00
0.000000e+00
9.495110e-01
1.640251e+00
2.362380e+00
3.046440e+00
3.704347e+00
4.383956e+00
5.038493e+00
5.683298e+00
6.313069e+00
6.923316e+00
7.520300e+00
8.042777e+00
8.408662e+00
8.596649e+00
8.646478e+00
8.646563e+00
0.000000e+00
-5.904729e-01
-1.280622e+00
-2.201947e+00
-3.292655e+00
-4.552049e+00
-5.992759e+00
-7.598905e+00
-9.376875e+00
-1.132926e+01
-1.344813e+01
-1.574047e+01
-1.822606e+01
-2.091866e+01
-2.384643e+01
-2.720563e+01
-3.219125e+01
0.000000e+00
-3.890169e-01
-1.112646e+00
-2.019127e+00
-3.120327e+00
-4.376953e+00
-5.816106e+00
-7.426666e+00
-9.203698e+00
-1.115677e+01
-1.327866e+01
-1.556843e+01
-1.804584e+01
-2.074491e+01
-2.372010e+01
-2.711227e+01
-3.117933e+01
0.000000e+00
-3.519731e-01
-1.009934e+00
-1.909587e+00
-2.999046e+00
-4.253330e+00
-5.692061e+00
-7.302698e+00
-9.082182e+00
-1.103943e+01
-1.316971e+01
-1.547153e+01
-1.796341e+01
-2.069006e+01
-2.371256e+01
-2.694743e+01
-2.996471e+01
0.000000e+00
-3.903305e-01
-9.951061e-01
-1.870648e+00
-2.932801e+00
-4.185461e+00
-5.622412e+00
-7.232954e+00
-9.019081e+00
-1.098400e+01
-1.312979e+01
-1.545674e+01
-1.797028e+01
-2.069608e+01
-2.365617e+01
-2.662878e+01
-2.920504e+01
0.000000e+00
-4.000479e-01
-1.006280e+00
-1.857830e+00
-2.918392e+00
-4.167923e+00
-5.606554e+00
-7.221754e+00
-9.014950e+00
-1.098887e+01
-1.314800e+01
-1.549466e+01
-1.801407e+01
-2.069995e+01
-2.351769e+01
-2.627073e+01
-2.860218e+01
0.000000e+00
-3.897466e-01
-9.957849e-01
-1.873608e+00
-2.939130e+00
-4.198197e+00
-5.643353e+00
-7.264331e+00
-9.066098e+00
-1.104500e+01
-1.320649e+01
-1.555457e+01
-1.806275e+01
-2.069353e+01
-2.338024e+01
-2.596091e+01
-2.818080e+01
0.000000e+00
-3.513087e-01
-1.011198e+00
-1.914485e+00
-3.009581e+00
-4.274445e+00
-5.727137e+00
-7.355957e+00
-9.160874e+00
-1.114194e+01
-1.329632e+01
-1.563197e+01
-1.812099e+01
-2.070171e+01
-2.329223e+01
-2.576380e+01
-2.797441e+01
0.000000e+00
-3.884919e-01
-1.113938e+00
-2.024319e+00
-3.132062e+00
-4.400039e+00
-5.855381e+00
-7.486908e+00
-9.291233e+00
-1.127140e+01
-1.341940e+01
-1.574070e+01
-1.820727e+01
-2.074617e+01
-2.327018e+01
-2.567876e+01
-2.792220e+01
0.000000e+00
-5.903960e-01
-1.282290e+00
-2.207214e+00
-3.304899e+00
-4.575408e+00
-6.031464e+00
-7.658535e+00
-9.461079e+00
-1.143657e+01
-1.358058e+01
-1.589124e+01
-1.832794e+01
-2.082082e+01
-2.329279e+01
-2.566335e+01
-2.792202e+01


0.000000e+00
1.462821e-05
2.474009e-05
3.676797e-05
5.188716e-05
6.521487e-05
7.911999e-05
9.353395e-05
1.072211e-04
1.213888e-04
1.354116e-04
1.497959e-04
1.643980e-04
1.742349e-04
1.794458e-04
1.834465e-04
1.888295e-04
0.000000e+00
1.078639e-05
1.968490e-05
2.843577e-05
4.080915e-05
5.133546e-05
6.127024e-05
7.223345e-05
8.252082e-05
9.254581e-05
1.023162e-04
1.121094e-04
1.211032e-04
1.250483e-04
1.246619e-04
1.278650e-04
1.331459e-04
0.000000e+00
8.845166e-06
1.505850e-05
2.085554e-05
2.964362e-05
3.660535e-05
4.295423e-05
5.013845e-05
5.648578e-05
6.231926e-05
6.754951e-05
7.208906e-05
7.527257e-05
7.526308e-05
7.459018e-05
7.715987e-05
8.177254e-05
0.000000e+00
4.745253e-06
7.140600e-06
1.077727e-05
1.479041e-05
1.771062e-05
2.118992e-05
2.431505e-05
2.684723e-05
2.913154e-05
3.033037e-05
3.025429e-05
2.919130e-05
2.825946e-05
2.907929e-05
3.248386e-05
3.756712e-05
0.000000e+00
-5.731077e-08
-1.394558e-07
-2.458650e-07
-3.817119e-07
-5.479197e-07
-7.645151e-07
-1.034004e-06
-1.462331e-06
-2.208834e-06
-3.551796e-06
-5.539732e-06
-8.033334e-06
-9.742548e-06
-9.039559e-06
-6.547512e-06
-3.189048e-06
0.000000e+00
-4.836760e-06
-7.363320e-06
-1.117769e-05
-1.542161e-05
-1.865468e-05
-2.239690e-05
-2.594720e-05
-2.895462e-05
-3.166081e-05
-3.405045e-05
-3.626223e-05
-3.867986e-05
-4.070214e-05
-4.215656e-05
-4.265147e-05
-4.186672e-05
0.000000e+00
-8.868859e-06
-1.512444e-05
-2.101625e-05
-3.000020e-05
-3.710474e-05
-4.363203e-05
-5.111941e-05
-5.724573e-05
-6.262301e-05
-6.770917e-05
-7.105943e-05
-7.323029e-05
-7.542287e-05
-7.746831e-05
-7.910975e-05
-7.964696e-05
0.000000e+00
-1.077007e-05
-1.965327e-05
-2.839046e-05
-4.083277e-05
-5.133953e-05
-6.126440e-05
-7.249181e-05
-8.247183e-05
-9.220555e-05
-1.024033e-04
-1.103397e-04
-1.145660e-04
-1.172331e-04
-1.187834e-04
-1.194326e-04
-1.196622e-04
0.000000e+00
-1.464161e-05
-2.471142e-05
-3.662642e-05
-5.163090e-05
-6.479972e-05
-7.838466e-05
-9.274013e-05
-1.062307e-04
-1.202373e-04
-1.358091e-04
-1.491227e-04
-1.577617e-04
-1.615306e-04
-1.621790e-04
-1.617026e-04
-1.614313e-04
0.000000e+00
1.218825e-05
1.978785e-05
3.157305e-05
4.676087e-05
6.330845e-05
8.442216e-05
1.096060e-04
1.379653e-04
1.705919e-04
2.073442e-04
2.487684e-04
2.943466e-04
3.426280e-04
3.986725e-04
4.624601e-04
5.274742e-04
0.000000e+00
7.176868e-06
1.563842e-05
2.559905e-05
4.037377e-05
5.753446e-05
7.830186e-05
1.034812e-04
1.320544e-04
1.646776e-04
2.015155e-04
2.428793e-04
2.896289e-04
3.403809e-04
3.950682e-04
4.560821e-04
5.185169e-04
0.000000e+00
3.757030e-06
1.161418e-05
2.092768e-05
3.502218e-05
5.280468e-05
7.377284e-05
9.879912e-05
1.277874e-04
1.607013e-04
1.975840e-04
2.392501e-04
2.869217e-04
3.397313e-04
3.914740e-04
4.485462e-04
5.084928e-04
0.000000e+00
2.487707e-06
9.478816e-06
1.893569e-05
3.286581e-05
5.077976e-05
7.196242e-05
9.714795e-05
1.263139e-04
1.594361e-04
1.965802e-04
2.378729e-04
2.861777e-04
3.390718e-04
3.889426e-04
4.404128e-04
4.951363e-04
0.000000e+00
2.081796e-06
8.873858e-06
1.840655e-05
3.234322e-05
5.017975e-05
7.141316e-05
9.671058e-05
1.259620e-04
1.591683e-04
1.964340e-04
2.378154e-04
2.861646e-04
3.396653e-04
3.882111e-04
4.342421e-04
4.821726e-04
0.000000e+00
2.549933e-06
9.568310e-06
1.902184e-05
3.293413e-05
5.079735e-05
7.183841e-05
9.699952e-05
1.261577e-04
1.591725e-04
1.968797e-04
2.392183e-04
2.878768e-04
3.402305e-04
3.889613e-04
4.325643e-04
4.745221e-04
0.000000e+00
3.847207e-06
1.175722e-05
2.107350e-05
3.515952e-05
5.281200e-05
7.354006e-05
9.850675e-05
1.272354e-04
1.600919e-04
1.984193e-04
2.420873e-04
2.905253e-04
3.410047e-04
3.885964e-04
4.318206e-04
4.724623e-04
0.000000e+00
7.263441e-06
1.579878e-05
2.579962e-05
4.055043e-05
5.756967e-05
7.812982e-05
1.030835e-04
1.312461e-04
1.639107e-04
2.023810e-04
2.458261e-04
2.927837e-04
3.415514e-04
3.880176e-04
4.314009e-04
4.727860e-04
0.000000e+00
1.227421e-05
1.994299e-05
3.178835e-05
4.696104e-05
6.334508e-05
8.431972e-05
1.092651e-04
1.370596e-04
1.699846e-04
2.084033e-04
2.499448e-04
2.948800e-04
3.419130e-04
3.878541e-04
4.311853e-04
4.730553e-04


3.797003e+00
3.749113e+00
3.845925e+00
3.533135e+00
3.350254e+00
3.543847e+00
3.685975e+00
3.946190e+00
4.351023e+00
4.796977e+00
5.510959e+00
6.650060e+00
7.739726e+00
8.064653e+00
7.131158e+00
5.992460e+00
5.958018e+00
5.899757e+00
5.858299e+00
5.661667e+00
5.488024e+00
5.606681e+00
5.690395e+00
5.831920e+00
6.085248e+00
6.346188e+00
6.754300e+00
7.397116e+00
8.008107e+00
7.910326e+00
6.569984e+00
4.998558e+00
8.037097e+00
7.984566e+00
7.962718e+00
7.818490e+00
7.757353e+00
7.792423e+00
7.796133e+00
7.827830e+00
7.891721e+00
7.938120e+00
7.965088e+00
8.021716e+00
8.063682e+00
7.691755e+00
6.369968e+00
5.007440e+00
8.781416e+00
8.762126e+00
8.747596e+00
8.693684e+00
8.673981e+00
8.669249e+00
8.646372e+00
8.618484e+00
8.571207e+00
8.459634e+00
8.200971e+00
7.795360e+00
7.520340e+00
7.339761e+00
6.860156e+00
6.323968e+00
8.780082e+00
8.759518e+00
8.742857e+00
8.684931e+00
8.661430e+00
8.650384e+00
8.617125e+00
8.571830e+00
8.476375e+00
8.271460e+00
7.870260e+00
7.301293e+00
7.010614e+00
7.225445e+00
7.545341e+00
7.644591e+00
8.030102e+00
7.974191e+00
7.940946e+00
7.780314e+00
7.701479e+00
7.710349e+00
7.684011e+00
7.660287e+00
7.583521e+00
7.479222e+00
7.374256e+00
7.205133e+00
7.258940e+00
7.699156e+00
8.201706e+00
8.453295e+00
5.944455e+00
5.883092e+00
5.827836e+00
5.609167e+00
5.410854e+00
5.493549e+00
5.554517e+00
5.639691e+00
5.777618e+00
6.108019e+00
6.748494e+00
7.400722e+00
7.884888e+00
8.331944e+00
8.660269e+00
8.806881e+00
3.779960e+00
3.736801e+00
3.826656e+00
3.500681e+00
3.304788e+00
3.474518e+00
3.623924e+00
3.891299e+00
4.281746e+00
5.055199e+00
6.344503e+00
7.538134e+00
8.257620e+00
8.646929e+00
8.844432e+00
8.923742e+00


-7.123057e-01
-2.072640e-01
-3.150334e-01
-2.618932e-01
-1.504440e-01
-2.496409e-01
-1.937422e-01
-1.672409e-01
-2.071675e-01
-1.813075e-01
-1.834631e-01
-3.123359e-01
-4.170465e-01
-2.238068e-01
4.065784e-01
-8.134280e-01
5.860801e-01
4.392037e-01
3.114664e-01
2.378069e-01
2.930097e-01
2.133808e-01
2.169253e-01
2.202977e-01
1.833994e-01
2.000225e-01
2.396966e-01
2.896424e-01
4.243772e-01
6.878119e-01
7.223825e-01
-1.103593e+00
7.780111e-01
5.744735e-01
3.251908e-01
2.647270e-01
2.479499e-01
1.969168e-01
2.059758e-01
2.125206e-01
2.153477e-01
2.493310e-01
3.127532e-01
3.954750e-01
4.394695e-01
2.959271e-01
7.740080e-02
-2.514526e-01
7.997414e-01
6.392516e-01
3.902312e-01
2.823607e-01
2.117552e-01
1.823495e-01
1.896170e-01
2.031057e-01
2.222380e-01
2.382970e-01
2.442640e-01
2.220295e-01
8.782088e-02
-2.148744e-01
-2.447853e-01
-2.407229e-02
8.014287e-01
6.411619e-01
3.929720e-01
2.831778e-01
2.066444e-01
1.683389e-01
1.615944e-01
1.517317e-01
1.474916e-01
1.277622e-01
7.980327e-02
1.968994e-02
-8.833881e-02
-2.044546e-01
-6.234136e-02
3.627710e-01
7.818690e-01
5.791808e-01
3.327739e-01
2.705432e-01
2.416865e-01
1.750316e-01
1.539472e-01
1.079638e-01
5.361846e-02
-1.073979e-02
-9.723389e-02
-1.179083e-01
-6.575664e-02
6.792220e-02
3.697921e-01
7.657633e-01
5.887979e-01
4.404136e-01
3.151705e-01
2.413634e-01
2.881542e-01
2.051180e-01
1.892039e-01
1.564886e-01
8.878101e-02
2.271227e-02
-7.130526e-02
-3.758692e-02
1.704944e-01
4.459276e-01
7.456260e-01
9.557060e-01
-7.128087e-01
-2.136853e-01
-3.167748e-01
-2.613197e-01
-1.571135e-01
-2.389562e-01
-1.746736e-01
-1.451207e-01
-1.197064e-01
-8.045450e-02
-6.917088e-02
1.222113e-01
4.947230e-01
7.998071e-01
9.578007e-01
9.989797e-01
1 2 19 18
2 3 20 19
3 4 21 20
4 5 22 21
5 6 23 22
6 7 24 23
7 8 25 24
8 9 26 25
9 10 27 26
10 11 28 27
11 12 29 28
12 13 30 29
13 14 31 30
14 15 32 31
15 16 33 32
16 17 34 33
18 19 36 35
19 20 37 36
20 21 38 37
21 22 39 38
22 23 40 39
23 24 41 40
24 25 42 41
25 26 43 42
26 27 44 43
27 28 45 44
28 29 46 45
29 30 47 46
30 31 48 47
31 32 49 48
32 33 50 49
33 34 51 50
35 36 53 52
36 37 54 53
37 38 55 54
38 39 56 55
39 40 57 56
40 41 58 57
41 42 59 58
42 43 60 59
43 44 61 60
44 45 62 61
45 46 63 62
46 47 64 63
47 48 65 64
48 49 66 65
49 50 67 66
50 51 68 67
52 53 70 69
53 54 71 70
54 55 72 71
55 56 73 72
56 57 74 73
57 58 75 74
58 59 76 75
59 60 77 76
60 61 78 77
61 62 79 78
62 63 80 79
63 64 81 80
64 65 82 81
65 66 83 82
66 67 84 83
67 68 85 84
69 70 87 86
70 71 88 87
71 72 89 88
72 73 90 89
73 74 91 90
74 75 92 91
75 76 93 92
76 77 94 93
77 78 95 94
78 79 96 95
79 80 97 96
80 81 98 97
81 82 99 98
82 83 100 99
83 84 101 100
84 85 102 101
86 87 104 103
87 88 105 104
88 89 106 105
89 90 107 106
90 91 108 107
91 92 109 108
92 93 110 109
93 94 111 110
94 95 112 111
95 96 113 112
96 97 114 113
97 98 115 114
98 99 116 115
99 100 117 116
100 101 118 117
101 102 119 118
103 104 121 120
104 105 122 121
105 106 123 122
106 107 124 123
107 108 125 124
108 109 126 125
109 110 127 126
110 111 128 127
111 112 129 128
112 113 130 129
113 114 131 130
114 115 132 131
115 116 133 132
116 117 134 133
117 118 135 134
118 119 136 135
120 121 138 137
121 122 139 138
122 123 140 139
123 124 141 140
124 125 142 141
125 126 143 142
126 127 144 143
127 128 145 144
128 129 146 145
129 130 147 146
130 131 148 147
131 132 149 148
132 133 150 149
133 134 151 150
134 135 152 151
135 136 153 152
