TITLE = "Solution"
VARIABLES = x, y, u, v, psiu, psiv, t, stress
ZONE T="structure" N=153 E=128 F=FEBLOCK ET=QUADRILATERAL VARLOCATION=([7,8]=cellcentered)
0.000000e+00
1.250000e+01
2.500000e+01
3.750000e+01
5.000000e+01
6.250000e+01
7.500000e+01
8.750000e+01
1.000000e+02
1.125000e+02
1.250000e+02
1.375000e+02
1.500000e+02
1.625000e+02
1.750000e+02
1.875000e+02
2.000000e+02
0.000000e+00
1.250000e+01
2.500000e+01
3.750000e+01
5.000000e+01
6.250000e+01
7.500000e+01
8.750000e+01
1.000000e+02
1.125000e+02
1.250000e+02
1.375000e+02
1.500000e+02
1.625000e+02
1.750000e+02
1.875000e+02
2.000000e+02
0.000000e+00
1.250000e+01
2.500000e+01
3.750000e+01
5.000000e+01
6.250000e+01
7.500000e+01
8.750000e+01
1.000000e+02
1.125000e+02
1.250000e+02
1.375000e+02
1.500000e+02
1.625000e+02
1.750000e+02
1.875000e+02
2.000000e+02
0.000000e+00
1.250000e+01
2.500000e+01
3.750000e+01
5.000000e+01
6.250000e+01
7.500000e+01
8.750000e+01
1.000000e+02
1.125000e+02
1.250000e+02
1.375000e+02
1.500000e+02
1.625000e+02
1.750000e+02
1.875000e+02
2.000000e+02
0.000000e+00
1.250000e+01
2.500000e+01
3.750000e+01
5.000000e+01
6.250000e+01
7.500000e+01
8.750000e+01
1.000000e+02
1.125000e+02
1.250000e+02
1.375000e+02
1.500000e+02
1.625000e+02
1.750000e+02
1.875000e+02
2.000000e+02
0.000000e+00
1.250000e+01
2.500000e+01
3.750000e+01
5.000000e+01
6.250000e+01
7.500000e+01
8.750000e+01
1.000000e+02
1.125000e+02
1.250000e+02
1.375000e+02
1.500000e+02
1.625000e+02
1.750000e+02
1.875000e+02
2.000000e+02
0.000000e+00
1.250000e+01
2.500000e+01
3.750000e+01
5.000000e+01
6.250000e+01
7.500000e+01
8.750000e+01
1.000000e+02
1.125000e+02
1.250000e+02
1.375000e+02
1.500000e+02
1.625000e+02
1.750000e+02
1.875000e+02
2.000000e+02
0.000000e+00
1.250000e+01
2.500000e+01
3.750000e+01
5.000000e+01
6.250000e+01
7.500000e+01
8.750000e+01
1.000000e+02
1.125000e+02
1.250000e+02
1.375000e+02
1.500000e+02
1.625000e+02
1.750000e+02
1.875000e+02
2.000000e+02
0.000000e+00
1.250000e+01
2.500000e+01
3.750000e+01
5.000000e+01
6.250000e+01
7.500000e+01
8.750000e+01
1.000000e+02
1.125000e+02
1.250000e+02
1.375000e+02
1.500000e+02
1.625000e+02
1.750000e+02
1.875000e+02
2.000000e+02
0.000000e+00
0.000000e+00
0.000000e+00
0.000000e+00
0.000000e+00
0.000000e+00
0.000000e+00
0.000000e+00
0.000000e+00
0.000000e+00
0.000000e+00
0.000000e+00
0.000000e+00
0.000000e+00
0.000000e+00
0.000000e+00
0.000000e+00
1.250000e+01
1.250000e+01
1.250000e+01
1.250000e+01
1.250000e+01
1.250000e+01
1.250000e+01
1.250000e+01
1.250000e+01
1.250000e+01
1.250000e+01
1.250000e+01
1.250000e+01
1.250000e+01
1.250000e+01
1.250000e+01
1.250000e+01
2.500000e+01
2.500000e+01
2.500000e+01
2.500000e+01
2.500000e+01
2.500000e+01
2.500000e+01
2.500000e+01
2.500000e+01
2.500000e+01
2.500000e+01
2.500000e+01
2.500000e+01
2.500000e+01
2.500000e+01
2.500000e+01
2.500000e+01
3.750000e+01
3.750000e+01
3.750000e+01
3.750000e+01
3.750000e+01
3.750000e+01
3.750000e+01
3.750000e+01
3.750000e+01
3.750000e+01
3.750000e+01
3.750000e+01
3.750000e+01
3.750000e+01
3.750000e+01
3.750000e+01
3.750000e+01
5.000000e+01
5.000000e+01
5.000000e+01
5.000000e+01
5.000000e+01
5.000000e+01
5.000000e+01
5.000000e+01
5.000000e+01
5.000000e+01
5.000000e+01
5.000000e+01
5.000000e+01
5.000000e+01
5.000000e+01
5.000000e+01
5.000000e+01
6.250000e+01
6.250000e+01
6.250000e+01
6.250000e+01
6.250000e+01
6.250000e+01
6.250000e+01
6.250000e+01
6.250000e+01
6.250000e+01
6.250000e+01
6.250000e+01
6.250000e+01
6.250000e+01
6.250000e+01
6.250000e+01
6.250000e+01
7.500000e+01
7.500000e+01
7.500000e+01
7.500000e+01
7.500000e+01
7.500000e+01
7.500000e+01
7.500000e+01
7.500000e+01
7.500000e+01
7.500000e+01
7.500000e+01
7.500000e+01
7.500000e+01
7.500000e+01
7.500000e+01
7.500000e+01
8.750000e+01
8.750000e+01
8.750000e+01
8.750000e+01
8.750000e+01
8.750000e+01
8.750000e+01
8.750000e+01
8.750000e+01
8.750000e+01
8.750000e+01
8.750000e+01
8.750000e+01
8.750000e+01
8.750000e+01
8.750000e+01
8.750000e+01
1.000000e+02
1.000000e+02
1.000000e+02
1.000000e+02
1.000000e+02
1.000000e+02
1.000000e+02
1.000000e+02
1.000000e+02
1.000000e+02
1.000000e+02
1.000000e+02
1.000000e+02
1.000000e+02
1.000000e+02
1.000000e+02
1.000000e+02
0.000000e+00
-9.948933e-01
-1.679435e+00
-2.431255e+00
-3.116316e+00
-3.751780e+00
-4.457620e+00
-5.087710e+00
-5.763336e+00
-6.405621e+00
-7.056068e+00
-7.723562e+00
-8.376740e+00
-9.147150e+00
-1.007769e+01
-1.083396e+01
-1.128407e+01
0.000000e+00
-4.454738e-01
-9.069625e-01
-1.419038e+00
-1.930437e+00
-2.411276e+00
-2.925134e+00
-3.423189e+00
-3.919490e+00
-4.421548e+00
-4.914417e+00
-5.417118e+00
-5.902019e+00
-6.421873e+00
-6.897735e+00
-7.023916e+00
-7.202788e+00
0.000000e+00
-1.461675e-01
-3.492347e-01
-6.397380e-01
-9.777289e-01
-1.302983e+00
-1.656361e+00
-2.012950e+00
-2.356998e+00
-2.718631e+00
-3.057720e+00
-3.391855e+00
-3.687508e+00
-3.927436e+00
-4.036491e+00
-4.034437e+00
-4.182902e+00
0.000000e+00
-7.895725e-02
-1.622138e-01
-3.096177e-01
-4.547438e-01
-6.284758e-01
-8.134895e-01
-9.793150e-01
-1.166558e+00
-1.328655e+00
-1.489651e+00
-1.628681e+00
-1.721996e+00
-1.730129e+00
-1.656590e+00
-1.635780e+00
-1.752912e+00
0.000000e+00
-3.296571e-03
-7.179861e-03
-1.121552e-02
-1.555558e-02
-1.888146e-02
-1.966084e-02
-1.680862e-02
-7.935746e-03
8.886590e-03
3.328303e-02
7.805073e-02
1.604930e-01
2.754810e-01
3.952741e-01
4.360059e-01
3.378329e-01
0.000000e+00
7.319998e-02
1.505886e-01
2.906633e-01
4.290781e-01
5.961293e-01
7.746708e-01
9.441592e-01
1.149837e+00
1.345163e+00
1.562520e+00
1.782962e+00
2.009323e+00
2.216515e+00
2.352346e+00
2.385296e+00
2.319677e+00
0.000000e+00
1.438361e-01
3.439968e-01
6.307683e-01
9.657827e-01
1.291049e+00
1.643337e+00
1.999590e+00
2.360409e+00
2.765177e+00
3.144225e+00
3.511329e+00
3.844389e+00
4.119735e+00
4.296334e+00
4.350986e+00
4.328369e+00
0.000000e+00
4.461806e-01
9.077143e-01
1.419552e+00
1.930245e+00
2.409584e+00
2.920451e+00
3.415621e+00
3.903688e+00
4.396824e+00
4.875130e+00
5.350321e+00
5.778919e+00
6.126477e+00
6.343452e+00
6.439196e+00
6.456886e+00
0.000000e+00
9.971341e-01
1.684482e+00
2.440048e+00
3.127137e+00
3.763442e+00
4.468481e+00
5.096676e+00
5.746940e+00
6.331643e+00
6.905183e+00
7.506033e+00
8.036893e+00
8.448722e+00
8.650054e+00
8.702839e+00
8.703372e+00
0.000000e+00
-6.184447e-01
-1.361545e+00
-2.362550e+00
-3.536601e+00
-4.880393e+00
-6.411424e+00
-8.097571e+00
-9.957967e+00
-1.198129e+01
-1.416617e+01
-1.651678e+01
-1.903048e+01
-2.176168e+01
-2.472582e+01
-2.808547e+01
-3.310119e+01
0.000000e+00
-4.153935e-01
-1.193075e+00
-2.176516e+00
-3.367405e+00
-4.706054e+00
-6.234111e+00
-7.928731e+00
-9.781852e+00
-1.181361e+01
-1.399391e+01
-1.634912e+01
-1.885751e+01
-2.156906e+01
-2.458571e+01
-2.800167e+01
-3.205181e+01
0.000000e+00
-3.897562e-01
-1.091376e+00
-2.073125e+00
-3.248065e+00
-4.580344e+00
-6.114088e+00
-7.799120e+00
-9.662763e+00
-1.169186e+01
-1.388327e+01
-1.624981e+01
-1.876846e+01
-2.150684e+01
-2.457579e+01
-2.784967e+01
-3.088226e+01
0.000000e+00
-4.487448e-01
-1.087744e+00
-2.047029e+00
-3.185352e+00
-4.511091e+00
-6.051904e+00
-7.722822e+00
-9.604984e+00
-1.163347e+01
-1.384627e+01
-1.623275e+01
-1.877691e+01
-2.151714e+01
-2.450627e+01
-2.753988e+01
-3.016550e+01
0.000000e+00
-4.558292e-01
-1.110042e+00
-2.031290e+00
-3.171418e+00
-4.500846e+00
-6.030773e+00
-7.720648e+00
-9.595244e+00
-1.164564e+01
-1.387270e+01
-1.626657e+01
-1.881817e+01
-2.151823e+01
-2.435574e+01
-2.717346e+01
-2.956115e+01
0.000000e+00
-4.474699e-01
-1.087402e+00
-2.049097e+00
-3.192301e+00
-4.528304e+00
-6.079266e+00
-7.759658e+00
-9.657254e+00
-1.171156e+01
-1.394265e+01
-1.631872e+01
-1.884926e+01
-2.150816e+01
-2.422074e+01
-2.685391e+01
-2.912315e+01
0.000000e+00
-3.880554e-01
-1.091340e+00
-2.077842e+00
-3.261751e+00
-4.609478e+00
-6.159857e+00
-7.868784e+00
-9.762711e+00
-1.182748e+01
-1.402917e+01
-1.638585e+01
-1.888867e+01
-2.150809e+01
-2.413822e+01
-2.664677e+01
-2.888967e+01
0.000000e+00
-4.138200e-01
-1.193121e+00
-2.182067e+00
-3.383411e+00
-4.737071e+00
-6.285300e+00
-8.009835e+00
-9.901360e+00
-1.196451e+01
-1.414447e+01
-1.648435e+01
-1.896589e+01
-2.154970e+01
-2.411765e+01
-2.655918e+01
-2.882924e+01
0.000000e+00
-6.174596e-01
-1.362216e+00
-2.368792e+00
-3.553009e+00
-4.911346e+00
-6.463309e+00
-8.178355e+00
-1.007370e+01
-1.212018e+01
-1.429960e+01
-1.663270e+01
-1.908959e+01
-2.163171e+01
-2.414227e+01
-2.654428e+01
-2.882810e+01


0.000000e+00
1.541791e-05
2.509938e-05
3.749578e-05
5.358875e-05
6.721384e-05
8.316619e-05
9.720874e-05
1.118529e-04
1.257793e-04
1.408920e-04
1.551993e-04
1.717936e-04
1.875461e-04
1.975119e-04
2.032208e-04
2.101518e-04
0.000000e+00
1.146139e-05
1.974433e-05
2.840123e-05
4.099705e-05
5.171004e-05
6.182451e-05
7.294096e-05
8.312732e-05
9.452476e-05
1.052091e-04
1.155645e-04
1.264806e-04
1.358010e-04
1.373180e-04
1.410612e-04
1.468871e-04
0.000000e+00
9.535736e-06
1.502429e-05
2.018975e-05
2.883953e-05
3.549465e-05
4.121562e-05
4.855527e-05
5.452210e-05
6.187080e-05
6.831214e-05
7.397713e-05
7.872233e-05
8.089402e-05
8.012721e-05
8.250983e-05
8.674910e-05
0.000000e+00
5.184135e-06
6.845873e-06
9.613013e-06
1.305191e-05
1.351582e-05
1.581082e-05
1.723908e-05
2.074413e-05
2.421542e-05
2.801364e-05
2.905745e-05
2.849971e-05
2.705923e-05
2.684891e-05
2.991243e-05
3.558547e-05
0.000000e+00
-1.738576e-07
-4.325000e-07
-8.495983e-07
-1.706227e-06
-2.860082e-06
-4.947788e-06
-7.197285e-06
-7.827976e-06
-7.820103e-06
-8.744514e-06
-1.190399e-05
-1.465269e-05
-1.601376e-05
-1.569164e-05
-1.352343e-05
-9.533842e-06
0.000000e+00
-5.446963e-06
-7.432624e-06
-1.073260e-05
-1.464178e-05
-1.604683e-05
-2.040102e-05
-2.424094e-05
-3.009084e-05
-3.319459e-05
-3.727630e-05
-4.212216e-05
-4.720421e-05
-4.890932e-05
-4.946248e-05
-4.995650e-05
-4.824536e-05
0.000000e+00
-9.537723e-06
-1.509122e-05
-2.035955e-05
-2.895566e-05
-3.529215e-05
-4.068191e-05
-4.865684e-05
-5.582851e-05
-6.342447e-05
-6.872008e-05
-7.377416e-05
-7.796142e-05
-8.141695e-05
-8.333600e-05
-8.525607e-05
-8.600707e-05
0.000000e+00
-1.139344e-05
-1.965678e-05
-2.829842e-05
-4.078773e-05
-5.164489e-05
-6.159452e-05
-7.278694e-05
-8.316585e-05
-9.454119e-05
-1.052317e-04
-1.135025e-04
-1.183136e-04
-1.232972e-04
-1.268608e-04
-1.281450e-04
-1.282411e-04
0.000000e+00
-1.542974e-05
-2.504072e-05
-3.734261e-05
-5.338465e-05
-6.704596e-05
-8.286290e-05
-9.598185e-05
-1.099390e-04
-1.234380e-04
-1.410972e-04
-1.568228e-04
-1.664510e-04
-1.716321e-04
-1.738518e-04
-1.740615e-04
-1.738772e-04
0.000000e+00
1.260163e-05
2.000337e-05
3.244233e-05
4.876251e-05
6.689727e-05
9.134743e-05
1.202565e-04
1.535887e-04
1.904411e-04
2.306467e-04
2.746784e-04
3.246633e-04
3.787385e-04
4.402001e-04
5.109878e-04
5.843101e-04
0.000000e+00
7.679249e-06
1.611393e-05
2.634338e-05
4.229352e-05
6.093929e-05
8.489175e-05
1.143710e-04
1.473706e-04
1.843047e-04
2.243245e-04
2.684589e-04
3.180785e-04
3.738314e-04
4.349726e-04
5.036059e-04
5.739485e-04
0.000000e+00
4.325967e-06
1.230268e-05
2.172813e-05
3.648790e-05
5.571137e-05
7.947837e-05
1.098352e-04
1.432283e-04
1.798410e-04
2.197184e-04
2.639260e-04
3.142814e-04
3.714622e-04
4.308436e-04
4.961258e-04
5.642514e-04
0.000000e+00
3.200885e-06
1.060285e-05
2.009444e-05
3.453324e-05
5.208819e-05
7.642659e-05
1.087948e-04
1.437889e-04
1.784809e-04
2.176137e-04
2.623150e-04
3.135331e-04
3.700543e-04
4.281127e-04
4.882855e-04
5.500833e-04
0.000000e+00
2.813543e-06
1.027656e-05
2.005326e-05
3.426684e-05
5.081986e-05
7.527954e-05
1.097597e-04
1.451202e-04
1.783718e-04
2.157983e-04
2.622776e-04
3.138274e-04
3.701548e-04
4.269668e-04
4.818953e-04
5.339700e-04
0.000000e+00
3.342768e-06
1.079156e-05
2.046250e-05
3.487254e-05
5.190906e-05
7.712945e-05
1.106991e-04
1.457397e-04
1.781508e-04
2.161485e-04
2.638575e-04
3.162133e-04
3.704224e-04
4.268613e-04
4.795797e-04
5.229824e-04
0.000000e+00
4.478998e-06
1.252884e-05
2.206466e-05
3.676721e-05
5.578463e-05
8.040905e-05
1.118092e-04
1.449968e-04
1.791587e-04
2.184914e-04
2.671322e-04
3.197122e-04
3.724629e-04
4.259290e-04
4.768518e-04
5.195475e-04
0.000000e+00
7.802964e-06
1.634799e-05
2.664032e-05
4.254610e-05
6.133106e-05
8.583731e-05
1.160226e-04
1.483719e-04
1.834518e-04
2.232026e-04
2.708531e-04
3.227399e-04
3.746475e-04
4.260447e-04
4.748402e-04
5.200263e-04
0.000000e+00
1.271395e-05
2.023692e-05
3.273222e-05
4.909331e-05
6.741523e-05
9.237078e-05
1.217022e-04
1.544960e-04
1.897253e-04
2.304142e-04
2.751789e-04
3.249509e-04
3.758494e-04
4.263406e-04
4.743559e-04
5.202949e-04


5.633320e+00
6.114677e+00
6.848254e+00
5.889603e+00
5.518544e+00
6.160635e+00
6.141831e+00
6.262156e+00
5.892995e+00
5.885909e+00
6.272667e+00
7.142841e+00
8.839907e+00
9.820565e+00
9.141147e+00
7.992283e+00
8.062913e+00
8.445020e+00
8.649831e+00
8.347597e+00
8.124581e+00
8.343990e+00
8.525630e+00
8.365253e+00
8.356708e+00
8.260541e+00
8.407039e+00
8.835192e+00
9.499773e+00
9.833222e+00
8.386144e+00
6.466433e+00
9.835504e+00
9.818419e+00
9.992965e+00
9.831107e+00
9.829722e+00
9.935519e+00
9.826922e+00
9.929359e+00
9.840393e+00
9.873081e+00
9.890241e+00
9.869070e+00
9.887353e+00
9.387534e+00
7.988222e+00
6.181111e+00
9.996530e+00
9.996464e+00
9.996434e+00
9.996099e+00
9.995629e+00
9.994577e+00
9.993233e+00
9.993050e+00
9.993802e+00
9.993889e+00
9.991302e+00
9.475500e+00
8.825308e+00
8.365032e+00
7.976917e+00
7.900127e+00
9.996512e+00
9.996423e+00
9.996356e+00
9.995903e+00
9.995111e+00
9.993214e+00
9.927477e+00
9.961594e+00
9.987818e+00
9.909372e+00
9.350459e+00
8.577139e+00
7.694127e+00
7.734158e+00
8.637470e+00
9.151615e+00
9.835779e+00
9.818222e+00
9.992590e+00
9.830047e+00
9.826958e+00
9.677974e+00
9.325539e+00
9.510000e+00
9.377614e+00
8.842761e+00
8.298412e+00
7.881132e+00
8.174902e+00
8.737012e+00
9.436637e+00
9.987476e+00
8.064903e+00
8.445689e+00
8.648714e+00
8.344672e+00
8.043083e+00
7.904593e+00
7.722512e+00
7.692532e+00
7.766163e+00
7.297238e+00
7.461109e+00
8.476946e+00
9.273370e+00
9.834270e+00
9.992770e+00
9.995691e+00
5.638544e+00
6.116215e+00
6.846913e+00
5.881550e+00
5.489731e+00
5.811184e+00
5.657407e+00
6.111662e+00
6.052760e+00
6.416707e+00
7.832896e+00
9.103874e+00
9.975552e+00
9.994415e+00
9.996148e+00
9.996747e+00


-8.152451e-01
-1.721955e-01
-3.955371e-01
-2.560828e-01
-9.869043e-02
-3.028198e-01
-1.251071e-01
-2.097282e-01
-1.609026e-01
-1.595311e-01
-2.136507e-01
-1.503797e-01
-4.627582e-01
-6.838070e-01
3.162901e-01
-8.467674e-01
6.113958e-01
4.796113e-01
2.962538e-01
2.258026e-01
2.891465e-01
1.682023e-01
1.761264e-01
1.719095e-01
1.113425e-01
1.473364e-01
1.290860e-01
2.416131e-01
3.022906e-01
5.102705e-01
6.955363e-01
-9.357616e-01
7.234770e-01
4.712244e-01
5.761602e-02
-1.978284e-02
-3.841291e-02
-1.844569e-01
-8.051215e-02
-1.364791e-01
-7.566182e-02
-1.838361e-02
3.301243e-02
1.865134e-01
2.787258e-01
1.484933e-01
-2.470459e-02
-1.688631e-01
7.286450e-01
5.562404e-01
1.934634e-01
6.335959e-02
-2.362074e-02
-1.035244e-01
-1.727221e-02
-6.054307e-02
1.401371e-02
1.832429e-02
5.934570e-02
1.176986e-01
5.813836e-02
-2.629667e-01
-3.828144e-01
-7.731103e-02
7.315411e-01
5.601761e-01
2.013864e-01
7.136897e-02
-2.013821e-02
-1.096449e-01
-3.756776e-02
-1.011201e-01
-5.075630e-02
-4.067153e-02
2.107008e-02
1.489949e-02
-3.765777e-02
-1.310897e-01
-1.023335e-01
3.114904e-01
7.302535e-01
4.814180e-01
7.562516e-02
-2.038419e-03
-2.685974e-02
-1.601375e-01
-7.802536e-02
-1.905644e-01
-1.811505e-01
-1.073803e-01
-7.852222e-02
-9.790202e-02
-1.094600e-01
4.562179e-02
3.341400e-01
7.248929e-01
6.154429e-01
4.854452e-01
3.037360e-01
2.309156e-01
2.857403e-01
1.618828e-01
1.529265e-01
9.976263e-02
-5.562214e-02
-4.022549e-02
-9.746230e-02
-5.905707e-02
5.872863e-02
3.657310e-01
7.129691e-01
9.479352e-01
-8.208139e-01
-1.777093e-01
-4.031257e-01
-2.593255e-01
-9.828335e-02
-2.973913e-01
-1.205973e-01
-1.551535e-01
-5.643923e-02
-2.204769e-02
-9.273931e-02
9.723694e-02
3.885541e-01
7.721319e-01
9.528806e-01
9.987360e-01
1 2 19 18
2 3 20 19
3 4 21 20
4 5 22 21
5 6 23 22
6 7 24 23
7 8 25 24
8 9 26 25
9 10 27 26
10 11 28 27
11 12 29 28
12 13 30 29
13 14 31 30
14 15 32 31
15 16 33 32
16 17 34 33
18 19 36 35
19 20 37 36
20 21 38 37
21 22 39 38
22 23 40 39
23 24 41 40
24 25 42 41
25 26 43 42
26 27 44 43
27 28 45 44
28 29 46 45
29 30 47 46
30 31 48 47
31 32 49 48
32 33 50 49
33 34 51 50
35 36 53 52
36 37 54 53
37 38 55 54
38 39 56 55
39 40 57 56
40 41 58 57
41 42 59 58
42 43 60 59
43 44 61 60
44 45 62 61
45 46 63 62
46 47 64 63
47 48 65 64
48 49 66 65
49 50 67 66
50 51 68 67
52 53 70 69
53 54 71 70
54 55 72 71
55 56 73 72
56 57 74 73
57 58 75 74
58 59 76 75
59 60 77 76
60 61 78 77
61 62 79 78
62 63 80 79
63 64 81 80
64 65 82 81
65 66 83 82
66 67 84 83
67 68 85 84
69 70 87 86
70 71 88 87
71 72 89 88
72 73 90 89
73 74 91 90
74 75 92 91
75 76 93 92
76 77 94 93
77 78 95 94
78 79 96 95
79 80 97 96
80 81 98 97
81 82 99 98
82 83 100 99
83 84 101 100
84 85 102 101
86 87 104 103
87 88 105 104
88 89 106 105
89 90 107 106
90 91 108 107
91 92 109 108
92 93 110 109
93 94 111 110
94 95 112 111
95 96 113 112
96 97 114 113
97 98 115 114
98 99 116 115
99 100 117 116
100 101 118 117
101 102 119 118
103 104 121 120
104 105 122 121
105 106 123 122
106 107 124 123
107 108 125 124
108 109 126 125
109 110 127 126
110 111 128 127
111 112 129 128
112 113 130 129
113 114 131 130
114 115 132 131
115 116 133 132
116 117 134 133
117 118 135 134
118 119 136 135
120 121 138 137
121 122 139 138
122 123 140 139
123 124 141 140
124 125 142 141
125 126 143 142
126 127 144 143
127 128 145 144
128 129 146 145
129 130 147 146
130 131 148 147
131 132 149 148
132 133 150 149
133 134 151 150
134 135 152 151
135 136 153 152
