TITLE = "Solution"
VARIABLES = x, y, u, v, psiu, psiv, t, stress
ZONE T="structure" N=561 E=512 F=FEBLOCK ET=QUADRILATERAL VARLOCATION=([7,8]=cellcentered)
0.000000e+00
6.250000e+00
1.250000e+01
1.875000e+01
2.500000e+01
3.125000e+01
3.750000e+01
4.375000e+01
5.000000e+01
5.625000e+01
6.250000e+01
6.875000e+01
7.500000e+01
8.125000e+01
8.750000e+01
9.375000e+01
1.000000e+02
1.062500e+02
1.125000e+02
1.187500e+02
1.250000e+02
1.312500e+02
1.375000e+02
1.437500e+02
1.500000e+02
1.562500e+02
1.625000e+02
1.687500e+02
1.750000e+02
1.812500e+02
1.875000e+02
1.937500e+02
2.000000e+02
0.000000e+00
6.250000e+00
1.250000e+01
1.875000e+01
2.500000e+01
3.125000e+01
3.750000e+01
4.375000e+01
5.000000e+01
5.625000e+01
6.250000e+01
6.875000e+01
7.500000e+01
8.125000e+01
8.750000e+01
9.375000e+01
1.000000e+02
1.062500e+02
1.125000e+02
1.187500e+02
1.250000e+02
1.312500e+02
1.375000e+02
1.437500e+02
1.500000e+02
1.562500e+02
1.625000e+02
1.687500e+02
1.750000e+02
1.812500e+02
1.875000e+02
1.937500e+02
2.000000e+02
0.000000e+00
6.250000e+00
1.250000e+01
1.875000e+01
2.500000e+01
3.125000e+01
3.750000e+01
4.375000e+01
5.000000e+01
5.625000e+01
6.250000e+01
6.875000e+01
7.500000e+01
8.125000e+01
8.750000e+01
9.375000e+01
1.000000e+02
1.062500e+02
1.125000e+02
1.187500e+02
1.250000e+02
1.312500e+02
1.375000e+02
1.437500e+02
1.500000e+02
1.562500e+02
1.625000e+02
1.687500e+02
1.750000e+02
1.812500e+02
1.875000e+02
1.937500e+02
2.000000e+02
0.000000e+00
6.250000e+00
1.250000e+01
1.875000e+01
2.500000e+01
3.125000e+01
3.750000e+01
4.375000e+01
5.000000e+01
5.625000e+01
6.250000e+01
6.875000e+01
7.500000e+01
8.125000e+01
8.750000e+01
9.375000e+01
1.000000e+02
1.062500e+02
1.125000e+02
1.187500e+02
1.250000e+02
1.312500e+02
1.375000e+02
1.437500e+02
1.500000e+02
1.562500e+02
1.625000e+02
1.687500e+02
1.750000e+02
1.812500e+02
1.875000e+02
1.937500e+02
2.000000e+02
0.000000e+00
6.250000e+00
1.250000e+01
1.875000e+01
2.500000e+01
3.125000e+01
3.750000e+01
4.375000e+01
5.000000e+01
5.625000e+01
6.250000e+01
6.875000e+01
7.500000e+01
8.125000e+01
8.750000e+01
9.375000e+01
1.000000e+02
1.062500e+02
1.125000e+02
1.187500e+02
1.250000e+02
1.312500e+02
1.375000e+02
1.437500e+02
1.500000e+02
1.562500e+02
1.625000e+02
1.687500e+02
1.750000e+02
1.812500e+02
1.875000e+02
1.937500e+02
2.000000e+02
0.000000e+00
6.250000e+00
1.250000e+01
1.875000e+01
2.500000e+01
3.125000e+01
3.750000e+01
4.375000e+01
5.000000e+01
5.625000e+01
6.250000e+01
6.875000e+01
7.500000e+01
8.125000e+01
8.750000e+01
9.375000e+01
1.000000e+02
1.062500e+02
1.125000e+02
1.187500e+02
1.250000e+02
1.312500e+02
1.375000e+02
1.437500e+02
1.500000e+02
1.562500e+02
1.625000e+02
1.687500e+02
1.750000e+02
1.812500e+02
1.875000e+02
1.937500e+02
2.000000e+02
0.000000e+00
6.250000e+00
1.250000e+01
1.875000e+01
2.500000e+01
3.125000e+01
3.750000e+01
4.375000e+01
5.000000e+01
5.625000e+01
6.250000e+01
6.875000e+01
7.500000e+01
8.125000e+01
8.750000e+01
9.375000e+01
1.000000e+02
1.062500e+02
1.125000e+02
1.187500e+02
1.250000e+02
1.312500e+02
1.375000e+02
1.437500e+02
1.500000e+02
1.562500e+02
1.625000e+02
1.687500e+02
1.750000e+02
1.812500e+02
1.875000e+02
1.937500e+02
2.000000e+02
0.000000e+00
6.250000e+00
1.250000e+01
1.875000e+01
2.500000e+01
3.125000e+01
3.750000e+01
4.375000e+01
5.000000e+01
5.625000e+01
6.250000e+01
6.875000e+01
7.500000e+01
8.125000e+01
8.750000e+01
9.375000e+01
1.000000e+02
1.062500e+02
1.125000e+02
1.187500e+02
1.250000e+02
1.312500e+02
1.375000e+02
1.437500e+02
1.500000e+02
1.562500e+02
1.625000e+02
1.687500e+02
1.750000e+02
1.812500e+02
1.875000e+02
1.937500e+02
2.000000e+02
0.000000e+00
6.250000e+00
1.250000e+01
1.875000e+01
2.500000e+01
3.125000e+01
3.750000e+01
4.375000e+01
5.000000e+01
5.625000e+01
6.250000e+01
6.875000e+01
7.500000e+01
8.125000e+01
8.750000e+01
9.375000e+01
1.000000e+02
1.062500e+02
1.125000e+02
1.187500e+02
1.250000e+02
1.312500e+02
1.375000e+02
1.437500e+02
1.500000e+02
1.562500e+02
1.625000e+02
1.687500e+02
1.750000e+02
1.812500e+02
1.875000e+02
1.937500e+02
2.000000e+02
0.000000e+00
6.250000e+00
1.250000e+01
1.875000e+01
2.500000e+01
3.125000e+01
3.750000e+01
4.375000e+01
5.000000e+01
5.625000e+01
6.250000e+01
6.875000e+01
7.500000e+01
8.125000e+01
8.750000e+01
9.375000e+01
1.000000e+02
1.062500e+02
1.125000e+02
1.187500e+02
1.250000e+02
1.312500e+02
1.375000e+02
1.437500e+02
1.500000e+02
1.562500e+02
1.625000e+02
1.687500e+02
1.750000e+02
1.812500e+02
1.875000e+02
1.937500e+02
2.000000e+02
0.000000e+00
6.250000e+00
1.250000e+01
1.875000e+01
2.500000e+01
3.125000e+01
3.750000e+01
4.375000e+01
5.000000e+01
5.625000e+01
6.250000e+01
6.875000e+01
7.500000e+01
8.125000e+01
8.750000e+01
9.375000e+01
1.000000e+02
1.062500e+02
1.125000e+02
1.187500e+02
1.250000e+02
1.312500e+02
1.375000e+02
1.437500e+02
1.500000e+02
1.562500e+02
1.625000e+02
1.687500e+02
1.750000e+02
1.812500e+02
1.875000e+02
1.937500e+02
2.000000e+02
0.000000e+00
6.250000e+00
1.250000e+01
1.875000e+01
2.500000e+01
3.125000e+01
3.750000e+01
4.375000e+01
5.000000e+01
5.625000e+01
6.250000e+01
6.875000e+01
7.500000e+01
8.125000e+01
8.750000e+01
9.375000e+01
1.000000e+02
1.062500e+02
1.125000e+02
1.187500e+02
1.250000e+02
1.312500e+02
1.375000e+02
1.437500e+02
1.500000e+02
1.562500e+02
1.625000e+02
1.687500e+02
1.750000e+02
1.812500e+02
1.875000e+02
1.937500e+02
2.000000e+02
0.000000e+00
6.250000e+00
1.250000e+01
1.875000e+01
2.500000e+01
3.125000e+01
3.750000e+01
4.375000e+01
5.000000e+01
5.625000e+01
6.250000e+01
6.875000e+01
7.500000e+01
8.125000e+01
8.750000e+01
9.375000e+01
1.000000e+02
1.062500e+02
1.125000e+02
1.187500e+02
1.250000e+02
1.312500e+02
1.375000e+02
1.437500e+02
1.500000e+02
1.562500e+02
1.625000e+02
1.687500e+02
1.750000e+02
1.812500e+02
1.875000e+02
1.937500e+02
2.000000e+02
0.000000e+00
6.250000e+00
1.250000e+01
1.875000e+01
2.500000e+01
3.125000e+01
3.750000e+01
4.375000e+01
5.000000e+01
5.625000e+01
6.250000e+01
6.875000e+01
7.500000e+01
8.125000e+01
8.750000e+01
9.375000e+01
1.000000e+02
1.062500e+02
1.125000e+02
1.187500e+02
1.250000e+02
1.312500e+02
1.375000e+02
1.437500e+02
1.500000e+02
1.562500e+02
1.625000e+02
1.687500e+02
1.750000e+02
1.812500e+02
1.875000e+02
1.937500e+02
2.000000e+02
0.000000e+00
6.250000e+00
1.250000e+01
1.875000e+01
2.500000e+01
3.125000e+01
3.750000e+01
4.375000e+01
5.000000e+01
5.625000e+01
6.250000e+01
6.875000e+01
7.500000e+01
8.125000e+01
8.750000e+01
9.375000e+01
1.000000e+02
1.062500e+02
1.125000e+02
1.187500e+02
1.250000e+02
1.312500e+02
1.375000e+02
1.437500e+02
1.500000e+02
1.562500e+02
1.625000e+02
1.687500e+02
1.750000e+02
1.812500e+02
1.875000e+02
1.937500e+02
2.000000e+02
0.000000e+00
6.250000e+00
1.250000e+01
1.875000e+01
2.500000e+01
3.125000e+01
3.750000e+01
4.375000e+01
5.000000e+01
5.625000e+01
6.250000e+01
6.875000e+01
7.500000e+01
8.125000e+01
8.750000e+01
9.375000e+01
1.000000e+02
1.062500e+02
1.125000e+02
1.187500e+02
1.250000e+02
1.312500e+02
1.375000e+02
1.437500e+02
1.500000e+02
1.562500e+02
1.625000e+02
1.687500e+02
1.750000e+02
1.812500e+02
1.875000e+02
1.937500e+02
2.000000e+02
0.000000e+00
6.250000e+00
1.250000e+01
1.875000e+01
2.500000e+01
3.125000e+01
3.750000e+01
4.375000e+01
5.000000e+01
5.625000e+01
6.250000e+01
6.875000e+01
7.500000e+01
8.125000e+01
8.750000e+01
9.375000e+01
1.000000e+02
1.062500e+02
1.125000e+02
1.187500e+02
1.250000e+02
1.312500e+02
1.375000e+02
1.437500e+02
1.500000e+02
1.562500e+02
1.625000e+02
1.687500e+02
1.750000e+02
1.812500e+02
1.875000e+02
1.937500e+02
2.000000e+02
0.000000e+00
0.000000e+00
0.000000e+00
0.000000e+00
0.000000e+00
0.000000e+00
0.000000e+00
0.000000e+00
0.000000e+00
0.000000e+00
0.000000e+00
0.000000e+00
0.000000e+00
0.000000e+00
0.000000e+00
0.000000e+00
0.000000e+00
0.000000e+00
0.000000e+00
0.000000e+00
0.000000e+00
0.000000e+00
0.000000e+00
0.000000e+00
0.000000e+00
0.000000e+00
0.000000e+00
0.000000e+00
0.000000e+00
0.000000e+00
0.000000e+00
0.000000e+00
0.000000e+00
6.250000e+00
6.250000e+00
6.250000e+00
6.250000e+00
6.250000e+00
6.250000e+00
6.250000e+00
6.250000e+00
6.250000e+00
6.250000e+00
6.250000e+00
6.250000e+00
6.250000e+00
6.250000e+00
6.250000e+00
6.250000e+00
6.250000e+00
6.250000e+00
6.250000e+00
6.250000e+00
6.250000e+00
6.250000e+00
6.250000e+00
6.250000e+00
6.250000e+00
6.250000e+00
6.250000e+00
6.250000e+00
6.250000e+00
6.250000e+00
6.250000e+00
6.250000e+00
6.250000e+00
1.250000e+01
1.250000e+01
1.250000e+01
1.250000e+01
1.250000e+01
1.250000e+01
1.250000e+01
1.250000e+01
1.250000e+01
1.250000e+01
1.250000e+01
1.250000e+01
1.250000e+01
1.250000e+01
1.250000e+01
1.250000e+01
1.250000e+01
1.250000e+01
1.250000e+01
1.250000e+01
1.250000e+01
1.250000e+01
1.250000e+01
1.250000e+01
1.250000e+01
1.250000e+01
1.250000e+01
1.250000e+01
1.250000e+01
1.250000e+01
1.250000e+01
1.250000e+01
1.250000e+01
1.875000e+01
1.875000e+01
1.875000e+01
1.875000e+01
1.875000e+01
1.875000e+01
1.875000e+01
1.875000e+01
1.875000e+01
1.875000e+01
1.875000e+01
1.875000e+01
1.875000e+01
1.875000e+01
1.875000e+01
1.875000e+01
1.875000e+01
1.875000e+01
1.875000e+01
1.875000e+01
1.875000e+01
1.875000e+01
1.875000e+01
1.875000e+01
1.875000e+01
1.875000e+01
1.875000e+01
1.875000e+01
1.875000e+01
1.875000e+01
1.875000e+01
1.875000e+01
1.875000e+01
2.500000e+01
2.500000e+01
2.500000e+01
2.500000e+01
2.500000e+01
2.500000e+01
2.500000e+01
2.500000e+01
2.500000e+01
2.500000e+01
2.500000e+01
2.500000e+01
2.500000e+01
2.500000e+01
2.500000e+01
2.500000e+01
2.500000e+01
2.500000e+01
2.500000e+01
2.500000e+01
2.500000e+01
2.500000e+01
2.500000e+01
2.500000e+01
2.500000e+01
2.500000e+01
2.500000e+01
2.500000e+01
2.500000e+01
2.500000e+01
2.500000e+01
2.500000e+01
2.500000e+01
3.125000e+01
3.125000e+01
3.125000e+01
3.125000e+01
3.125000e+01
3.125000e+01
3.125000e+01
3.125000e+01
3.125000e+01
3.125000e+01
3.125000e+01
3.125000e+01
3.125000e+01
3.125000e+01
3.125000e+01
3.125000e+01
3.125000e+01
3.125000e+01
3.125000e+01
3.125000e+01
3.125000e+01
3.125000e+01
3.125000e+01
3.125000e+01
3.125000e+01
3.125000e+01
3.125000e+01
3.125000e+01
3.125000e+01
3.125000e+01
3.125000e+01
3.125000e+01
3.125000e+01
3.750000e+01
3.750000e+01
3.750000e+01
3.750000e+01
3.750000e+01
3.750000e+01
3.750000e+01
3.750000e+01
3.750000e+01
3.750000e+01
3.750000e+01
3.750000e+01
3.750000e+01
3.750000e+01
3.750000e+01
3.750000e+01
3.750000e+01
3.750000e+01
3.750000e+01
3.750000e+01
3.750000e+01
3.750000e+01
3.750000e+01
3.750000e+01
3.750000e+01
3.750000e+01
3.750000e+01
3.750000e+01
3.750000e+01
3.750000e+01
3.750000e+01
3.750000e+01
3.750000e+01
4.375000e+01
4.375000e+01
4.375000e+01
4.375000e+01
4.375000e+01
4.375000e+01
4.375000e+01
4.375000e+01
4.375000e+01
4.375000e+01
4.375000e+01
4.375000e+01
4.375000e+01
4.375000e+01
4.375000e+01
4.375000e+01
4.375000e+01
4.375000e+01
4.375000e+01
4.375000e+01
4.375000e+01
4.375000e+01
4.375000e+01
4.375000e+01
4.375000e+01
4.375000e+01
4.375000e+01
4.375000e+01
4.375000e+01
4.375000e+01
4.375000e+01
4.375000e+01
4.375000e+01
5.000000e+01
5.000000e+01
5.000000e+01
5.000000e+01
5.000000e+01
5.000000e+01
5.000000e+01
5.000000e+01
5.000000e+01
5.000000e+01
5.000000e+01
5.000000e+01
5.000000e+01
5.000000e+01
5.000000e+01
5.000000e+01
5.000000e+01
5.000000e+01
5.000000e+01
5.000000e+01
5.000000e+01
5.000000e+01
5.000000e+01
5.000000e+01
5.000000e+01
5.000000e+01
5.000000e+01
5.000000e+01
5.000000e+01
5.000000e+01
5.000000e+01
5.000000e+01
5.000000e+01
5.625000e+01
5.625000e+01
5.625000e+01
5.625000e+01
5.625000e+01
5.625000e+01
5.625000e+01
5.625000e+01
5.625000e+01
5.625000e+01
5.625000e+01
5.625000e+01
5.625000e+01
5.625000e+01
5.625000e+01
5.625000e+01
5.625000e+01
5.625000e+01
5.625000e+01
5.625000e+01
5.625000e+01
5.625000e+01
5.625000e+01
5.625000e+01
5.625000e+01
5.625000e+01
5.625000e+01
5.625000e+01
5.625000e+01
5.625000e+01
5.625000e+01
5.625000e+01
5.625000e+01
6.250000e+01
6.250000e+01
6.250000e+01
6.250000e+01
6.250000e+01
6.250000e+01
6.250000e+01
6.250000e+01
6.250000e+01
6.250000e+01
6.250000e+01
6.250000e+01
6.250000e+01
6.250000e+01
6.250000e+01
6.250000e+01
6.250000e+01
6.250000e+01
6.250000e+01
6.250000e+01
6.250000e+01
6.250000e+01
6.250000e+01
6.250000e+01
6.250000e+01
6.250000e+01
6.250000e+01
6.250000e+01
6.250000e+01
6.250000e+01
6.250000e+01
6.250000e+01
6.250000e+01
6.875000e+01
6.875000e+01
6.875000e+01
6.875000e+01
6.875000e+01
6.875000e+01
6.875000e+01
6.875000e+01
6.875000e+01
6.875000e+01
6.875000e+01
6.875000e+01
6.875000e+01
6.875000e+01
6.875000e+01
6.875000e+01
6.875000e+01
6.875000e+01
6.875000e+01
6.875000e+01
6.875000e+01
6.875000e+01
6.875000e+01
6.875000e+01
6.875000e+01
6.875000e+01
6.875000e+01
6.875000e+01
6.875000e+01
6.875000e+01
6.875000e+01
6.875000e+01
6.875000e+01
7.500000e+01
7.500000e+01
7.500000e+01
7.500000e+01
7.500000e+01
7.500000e+01
7.500000e+01
7.500000e+01
7.500000e+01
7.500000e+01
7.500000e+01
7.500000e+01
7.500000e+01
7.500000e+01
7.500000e+01
7.500000e+01
7.500000e+01
7.500000e+01
7.500000e+01
7.500000e+01
7.500000e+01
7.500000e+01
7.500000e+01
7.500000e+01
7.500000e+01
7.500000e+01
7.500000e+01
7.500000e+01
7.500000e+01
7.500000e+01
7.500000e+01
7.500000e+01
7.500000e+01
8.125000e+01
8.125000e+01
8.125000e+01
8.125000e+01
8.125000e+01
8.125000e+01
8.125000e+01
8.125000e+01
8.125000e+01
8.125000e+01
8.125000e+01
8.125000e+01
8.125000e+01
8.125000e+01
8.125000e+01
8.125000e+01
8.125000e+01
8.125000e+01
8.125000e+01
8.125000e+01
8.125000e+01
8.125000e+01
8.125000e+01
8.125000e+01
8.125000e+01
8.125000e+01
8.125000e+01
8.125000e+01
8.125000e+01
8.125000e+01
8.125000e+01
8.125000e+01
8.125000e+01
8.750000e+01
8.750000e+01
8.750000e+01
8.750000e+01
8.750000e+01
8.750000e+01
8.750000e+01
8.750000e+01
8.750000e+01
8.750000e+01
8.750000e+01
8.750000e+01
8.750000e+01
8.750000e+01
8.750000e+01
8.750000e+01
8.750000e+01
8.750000e+01
8.750000e+01
8.750000e+01
8.750000e+01
8.750000e+01
8.750000e+01
8.750000e+01
8.750000e+01
8.750000e+01
8.750000e+01
8.750000e+01
8.750000e+01
8.750000e+01
8.750000e+01
8.750000e+01
8.750000e+01
9.375000e+01
9.375000e+01
9.375000e+01
9.375000e+01
9.375000e+01
9.375000e+01
9.375000e+01
9.375000e+01
9.375000e+01
9.375000e+01
9.375000e+01
9.375000e+01
9.375000e+01
9.375000e+01
9.375000e+01
9.375000e+01
9.375000e+01
9.375000e+01
9.375000e+01
9.375000e+01
9.375000e+01
9.375000e+01
9.375000e+01
9.375000e+01
9.375000e+01
9.375000e+01
9.375000e+01
9.375000e+01
9.375000e+01
9.375000e+01
9.375000e+01
9.375000e+01
9.375000e+01
1.000000e+02
1.000000e+02
1.000000e+02
1.000000e+02
1.000000e+02
1.000000e+02
1.000000e+02
1.000000e+02
1.000000e+02
1.000000e+02
1.000000e+02
1.000000e+02
1.000000e+02
1.000000e+02
1.000000e+02
1.000000e+02
1.000000e+02
1.000000e+02
1.000000e+02
1.000000e+02
1.000000e+02
1.000000e+02
1.000000e+02
1.000000e+02
1.000000e+02
1.000000e+02
1.000000e+02
1.000000e+02
1.000000e+02
1.000000e+02
1.000000e+02
1.000000e+02
1.000000e+02
0.000000e+00
-3.647176e-01
-6.512208e-01
-9.255164e-01
-1.207512e+00
-1.485860e+00
-1.759469e+00
-2.031094e+00
-2.301208e+00
-2.569354e+00
-2.835636e+00
-3.100312e+00
-3.363177e+00
-3.623531e+00
-3.880476e+00
-4.133261e+00
-4.381499e+00
-4.625065e+00
-4.863716e+00
-5.096804e+00
-5.323401e+00
-5.542739e+00
-5.754661e+00
-5.959884e+00
-6.160069e+00
-6.357801e+00
-6.556658e+00
-6.761610e+00
-6.980031e+00
-7.222292e+00
-7.492832e+00
-7.776752e+00
-7.940657e+00
0.000000e+00
-2.326895e-01
-4.773769e-01
-7.171472e-01
-9.643819e-01
-1.208807e+00
-1.448669e+00
-1.686568e+00
-1.923050e+00
-2.157665e+00
-2.390514e+00
-2.621915e+00
-2.851772e+00
-3.079493e+00
-3.304246e+00
-3.525308e+00
-3.742312e+00
-3.955172e+00
-4.163717e+00
-4.367358e+00
-4.565141e+00
-4.756107e+00
-4.939684e+00
-5.115870e+00
-5.285197e+00
-5.448524e+00
-5.606821e+00
-5.760908e+00
-5.910482e+00
-6.049369e+00
-6.155384e+00
-6.210171e+00
-6.281948e+00
0.000000e+00
-1.728909e-01
-3.555923e-01
-5.527286e-01
-7.595900e-01
-9.662916e-01
-1.171087e+00
-1.375004e+00
-1.577941e+00
-1.779441e+00
-1.979524e+00
-2.178357e+00
-2.375790e+00
-2.571291e+00
-2.764126e+00
-2.953636e+00
-3.139430e+00
-3.321323e+00
-3.499032e+00
-3.671904e+00
-3.838937e+00
-3.999021e+00
-4.151209e+00
-4.294786e+00
-4.429149e+00
-4.553535e+00
-4.666640e+00
-4.766004e+00
-4.846625e+00
-4.898377e+00
-4.910389e+00
-4.903956e+00
-4.980151e+00
0.000000e+00
-1.324111e-01
-2.732099e-01
-4.274496e-01
-5.921281e-01
-7.597230e-01
-9.284884e-01
-1.097805e+00
-1.266852e+00
-1.435071e+00
-1.602318e+00
-1.768524e+00
-1.933428e+00
-2.096536e+00
-2.257224e+00
-2.414903e+00
-2.569135e+00
-2.719582e+00
-2.865797e+00
-3.007044e+00
-3.142284e+00
-3.270315e+00
-3.389917e+00
-3.499855e+00
-3.598758e+00
-3.684894e+00
-3.755898e+00
-3.808469e+00
-3.838267e+00
-3.841603e+00
-3.826576e+00
-3.828742e+00
-3.900055e+00
0.000000e+00
-1.043601e-01
-2.134430e-01
-3.311923e-01
-4.561518e-01
-5.859048e-01
-7.185274e-01
-8.526389e-01
-9.871852e-01
-1.121529e+00
-1.255319e+00
-1.388278e+00
-1.520068e+00
-1.650245e+00
-1.778286e+00
-1.903662e+00
-2.025887e+00
-2.144484e+00
-2.258870e+00
-2.368253e+00
-2.471598e+00
-2.567688e+00
-2.655194e+00
-2.732676e+00
-2.798516e+00
-2.850845e+00
-2.887537e+00
-2.906507e+00
-2.906860e+00
-2.892568e+00
-2.881013e+00
-2.903039e+00
-2.970745e+00
0.000000e+00
-7.807893e-02
-1.590776e-01
-2.446672e-01
-3.352883e-01
-4.300080e-01
-5.276771e-01
-6.271007e-01
-7.273414e-01
-8.277553e-01
-9.278968e-01
-1.027407e+00
-1.125932e+00
-1.223083e+00
-1.318417e+00
-1.411457e+00
-1.501694e+00
-1.588574e+00
-1.671454e+00
-1.749539e+00
-1.821859e+00
-1.887283e+00
-1.944568e+00
-1.992377e+00
-2.029307e+00
-2.053976e+00
-2.065297e+00
-2.063188e+00
-2.050143e+00
-2.034255e+00
-2.032524e+00
-2.062514e+00
-2.126730e+00
0.000000e+00
-5.200583e-02
-1.056819e-01
-1.619606e-01
-2.212326e-01
-2.832891e-01
-3.475160e-01
-4.131809e-01
-4.796204e-01
-5.463161e-01
-6.128669e-01
-6.789410e-01
-7.442305e-01
-8.084138e-01
-8.711293e-01
-9.319604e-01
-9.904308e-01
-1.046000e+00
-1.098050e+00
-1.145862e+00
-1.188595e+00
-1.225300e+00
-1.254961e+00
-1.276556e+00
-1.289168e+00
-1.292199e+00
-1.285787e+00
-1.271585e+00
-1.253983e+00
-1.241602e+00
-1.246781e+00
-1.279138e+00
-1.336927e+00
0.000000e+00
-2.608725e-02
-5.296473e-02
-8.102363e-02
-1.104751e-01
-1.412747e-01
-1.731788e-01
-2.058439e-01
-2.389253e-01
-2.721207e-01
-3.051737e-01
-3.378601e-01
-3.699665e-01
-4.012661e-01
-4.314940e-01
-4.603298e-01
-4.873903e-01
-5.122280e-01
-5.343291e-01
-5.531072e-01
-5.679027e-01
-5.780044e-01
-5.827052e-01
-5.814019e-01
-5.737584e-01
-5.599696e-01
-5.411711e-01
-5.200186e-01
-5.013243e-01
-4.922627e-01
-5.008680e-01
-5.315750e-01
-5.806496e-01
0.000000e+00
-3.077037e-04
-6.050568e-04
-8.761665e-04
-1.109882e-03
-1.298996e-03
-1.435605e-03
-1.504306e-03
-1.476104e-03
-1.305861e-03
-9.339758e-04
-2.889922e-04
7.140437e-04
2.182143e-03
4.257541e-03
7.130180e-03
1.104561e-02
1.630771e-02
2.327698e-02
3.236341e-02
4.400843e-02
5.864587e-02
7.662977e-02
9.811760e-02
1.228984e-01
1.501543e-01
1.781552e-01
2.039451e-01
2.232078e-01
2.306823e-01
2.217428e-01
1.952337e-01
1.557687e-01
0.000000e+00
2.548394e-02
5.177222e-02
7.928726e-02
1.082629e-01
1.386708e-01
1.702855e-01
2.027954e-01
2.359122e-01
2.694186e-01
3.031705e-01
3.370786e-01
3.710904e-01
4.051810e-01
4.393534e-01
4.736462e-01
5.081430e-01
5.429747e-01
5.783118e-01
6.143456e-01
6.512584e-01
6.891734e-01
7.280787e-01
7.677196e-01
8.074590e-01
8.461046e-01
8.817282e-01
9.115690e-01
9.321939e-01
9.401368e-01
9.332146e-01
9.122742e-01
8.823045e-01
0.000000e+00
5.144749e-02
1.045600e-01
1.602957e-01
2.190680e-01
2.806915e-01
3.445815e-01
4.100463e-01
4.764768e-01
5.434228e-01
6.105676e-01
6.776846e-01
7.445986e-01
8.111597e-01
8.772327e-01
9.427013e-01
1.007477e+00
1.071499e+00
1.134710e+00
1.197042e+00
1.258377e+00
1.318509e+00
1.377077e+00
1.433492e+00
1.486849e+00
1.535824e+00
1.578594e+00
1.612867e+00
1.636166e+00
1.646464e+00
1.643190e+00
1.628352e+00
1.607180e+00
0.000000e+00
7.761671e-02
1.581175e-01
2.431800e-01
3.332611e-01
4.274665e-01
5.247056e-01
6.238528e-01
7.240310e-01
8.246351e-01
9.252445e-01
1.025540e+00
1.125251e+00
1.224124e+00
1.321903e+00
1.418330e+00
1.513154e+00
1.606113e+00
1.696905e+00
1.785165e+00
1.870441e+00
1.952179e+00
2.029690e+00
2.102134e+00
2.168481e+00
2.227463e+00
2.277548e+00
2.317025e+00
2.344291e+00
2.358372e+00
2.359685e+00
2.350874e+00
2.337409e+00
0.000000e+00
1.040564e-01
2.127650e-01
3.300339e-01
4.544025e-01
5.835113e-01
7.155445e-01
8.492460e-01
9.836481e-01
1.118117e+00
1.252232e+00
1.385647e+00
1.518034e+00
1.649055e+00
1.778350e+00
1.905546e+00
2.030249e+00
2.152018e+00
2.270311e+00
2.384447e+00
2.493596e+00
2.596808e+00
2.693057e+00
2.781304e+00
2.860488e+00
2.929497e+00
2.987181e+00
3.032448e+00
3.064474e+00
3.083068e+00
3.089237e+00
3.085926e+00
3.078799e+00
0.000000e+00
1.323179e-01
2.729222e-01
4.267812e-01
5.908397e-01
7.576557e-01
9.256458e-01
1.094385e+00
1.263183e+00
1.431460e+00
1.598893e+00
1.765203e+00
1.930042e+00
2.092995e+00
2.253611e+00
2.411407e+00
2.565872e+00
2.716410e+00
2.862263e+00
3.002442e+00
3.135688e+00
3.260566e+00
3.375656e+00
3.479715e+00
3.571674e+00
3.650598e+00
3.715743e+00
3.766663e+00
3.803304e+00
3.826183e+00
3.836751e+00
3.838025e+00
3.835638e+00
0.000000e+00
1.730206e-01
3.557314e-01
5.526281e-01
7.589060e-01
9.647759e-01
1.168702e+00
1.371961e+00
1.574621e+00
1.776184e+00
1.976398e+00
2.175093e+00
2.371934e+00
2.566438e+00
2.758053e+00
2.946194e+00
3.130229e+00
3.309417e+00
3.482805e+00
3.649107e+00
3.806607e+00
3.953299e+00
4.087282e+00
4.207037e+00
4.311421e+00
4.399615e+00
4.471246e+00
4.526518e+00
4.566219e+00
4.591723e+00
4.605101e+00
4.609457e+00
4.609957e+00
0.000000e+00
2.330095e-01
4.778746e-01
7.175407e-01
9.642885e-01
1.207944e+00
1.446999e+00
1.684328e+00
1.920667e+00
2.155506e+00
2.388611e+00
2.619888e+00
2.848994e+00
3.075370e+00
3.298366e+00
3.517286e+00
3.731365e+00
3.939691e+00
4.141091e+00
4.333958e+00
4.516095e+00
4.684897e+00
4.837908e+00
4.973221e+00
5.089462e+00
5.185759e+00
5.261957e+00
5.318811e+00
5.358000e+00
5.382091e+00
5.394435e+00
5.398923e+00
5.400018e+00
0.000000e+00
3.651430e-01
6.518945e-01
9.261822e-01
1.207820e+00
1.485581e+00
1.758627e+00
2.029979e+00
2.300280e+00
2.568981e+00
2.835843e+00
3.100726e+00
3.363207e+00
3.622638e+00
3.878276e+00
4.129316e+00
4.374843e+00
4.613727e+00
4.844493e+00
5.065117e+00
5.272880e+00
5.464595e+00
5.637245e+00
5.788388e+00
5.916144e+00
6.019244e+00
6.097375e+00
6.151479e+00
6.183917e+00
6.198662e+00
6.201445e+00
6.199309e+00
6.198083e+00
0.000000e+00
-2.234643e-01
-4.091518e-01
-6.283405e-01
-8.774669e-01
-1.156386e+00
-1.467901e+00
-1.813156e+00
-2.192045e+00
-2.604653e+00
-3.051206e+00
-3.531689e+00
-4.045801e+00
-4.593064e+00
-5.172943e+00
-5.784917e+00
-6.428485e+00
-7.103047e+00
-7.807783e+00
-8.541644e+00
-9.303498e+00
-1.009234e+01
-1.090749e+01
-1.174879e+01
-1.261687e+01
-1.351357e+01
-1.444264e+01
-1.541079e+01
-1.642930e+01
-1.751793e+01
-1.872258e+01
-2.016056e+01
-2.211241e+01
0.000000e+00
-1.392384e-01
-3.347764e-01
-5.509005e-01
-7.990749e-01
-1.079031e+00
-1.391416e+00
-1.737087e+00
-2.116439e+00
-2.529588e+00
-2.976628e+00
-3.457584e+00
-3.972300e+00
-4.520406e+00
-5.101376e+00
-5.714612e+00
-6.359511e+00
-7.035451e+00
-7.741697e+00
-8.477321e+00
-9.241227e+00
-1.003233e+01
-1.084975e+01
-1.169314e+01
-1.256291e+01
-1.346076e+01
-1.439027e+01
-1.535805e+01
-1.637565e+01
-1.746480e+01
-1.867027e+01
-2.008218e+01
-2.188727e+01
0.000000e+00
-1.040609e-01
-2.769912e-01
-4.886371e-01
-7.340515e-01
-1.013425e+00
-1.325877e+00
-1.671669e+00
-2.051262e+00
-2.464774e+00
-2.912215e+00
-3.393618e+00
-3.908919e+00
-4.457828e+00
-5.039828e+00
-5.654262e+00
-6.300461e+00
-6.977794e+00
-7.685601e+00
-8.423055e+00
-9.189119e+00
-9.982678e+00
-1.080279e+01
-1.164901e+01
-1.252170e+01
-1.342256e+01
-1.435530e+01
-1.532693e+01
-1.635023e+01
-1.744766e+01
-1.864895e+01
-1.997231e+01
-2.139893e+01
0.000000e+00
-9.026389e-02
-2.442739e-01
-4.445971e-01
-6.847952e-01
-9.612601e-01
-1.272289e+00
-1.617458e+00
-1.996857e+00
-2.410443e+00
-2.858147e+00
-3.339979e+00
-3.855890e+00
-4.405617e+00
-4.988650e+00
-5.604311e+00
-6.251903e+00
-6.930806e+00
-7.640411e+00
-8.379965e+00
-9.148488e+00
-9.944894e+00
-1.076825e+01
-1.161809e+01
-1.249481e+01
-1.340008e+01
-1.433762e+01
-1.531429e+01
-1.634207e+01
-1.743807e+01
-1.860674e+01
-1.981396e+01
-2.093216e+01
0.000000e+00
-8.675064e-02
-2.284254e-01
-4.182713e-01
-6.510575e-01
-9.228464e-01
-1.231104e+00
-1.574806e+00
-1.953487e+00
-2.366833e+00
-2.814657e+00
-3.296885e+00
-3.813420e+00
-4.363984e+00
-4.948072e+00
-5.565018e+00
-6.214140e+00
-6.894828e+00
-7.606495e+00
-8.348427e+00
-9.119699e+00
-9.919266e+00
-1.074622e+01
-1.160007e+01
-1.248113e+01
-1.339082e+01
-1.433226e+01
-1.531086e+01
-1.633481e+01
-1.741139e+01
-1.852641e+01
-1.962128e+01
-2.060108e+01
0.000000e+00
-8.504396e-02
-2.203661e-01
-4.028982e-01
-6.292977e-01
-8.962330e-01
-1.201355e+00
-1.543194e+00
-1.920864e+00
-2.333793e+00
-2.781648e+00
-3.264241e+00
-3.781391e+00
-4.332788e+00
-4.917938e+00
-5.536213e+00
-6.186963e+00
-6.869585e+00
-7.583486e+00
-8.327964e+00
-9.102119e+00
-9.904926e+00
-1.073545e+01
-1.159308e+01
-1.247782e+01
-1.339048e+01
-1.433289e+01
-1.530786e+01
-1.631821e+01
-1.736175e+01
-1.841446e+01
-1.942329e+01
-2.031977e+01
0.000000e+00
-8.388522e-02
-2.158353e-01
-3.939407e-01
-6.158445e-01
-8.790633e-01
-1.181520e+00
-1.521657e+00
-1.898364e+00
-2.310895e+00
-2.758780e+00
-3.241724e+00
-3.759468e+00
-4.311672e+00
-4.897861e+00
-5.517453e+00
-6.169833e+00
-6.854400e+00
-7.570545e+00
-8.317546e+00
-9.094492e+00
-9.900321e+00
-1.073398e+01
-1.159458e+01
-1.248161e+01
-1.339491e+01
-1.433460e+01
-1.530048e+01
-1.629043e+01
-1.729565e+01
-1.829088e+01
-1.923349e+01
-2.007352e+01
0.000000e+00
-8.322807e-02
-2.134440e-01
-3.891778e-01
-6.085411e-01
-8.695194e-01
-1.170279e+00
-1.509288e+00
-1.885367e+00
-2.297681e+00
-2.745678e+00
-3.228985e+00
-3.747295e+00
-4.300251e+00
-4.887403e+00
-5.508210e+00
-6.162091e+00
-6.848453e+00
-7.566662e+00
-8.315955e+00
-9.095365e+00
-9.903722e+00
-1.073975e+01
-1.160216e+01
-1.248972e+01
-1.340116e+01
-1.433484e+01
-1.528794e+01
-1.625476e+01
-1.722344e+01
-1.817091e+01
-1.906402e+01
-1.986637e+01
0.000000e+00
-8.301646e-02
-2.127060e-01
-3.877203e-01
-6.063002e-01
-8.665747e-01
-1.166798e+00
-1.505476e+00
-1.881429e+00
-2.293812e+00
-2.742049e+00
-3.225745e+00
-3.744574e+00
-4.298186e+00
-4.886154e+00
-5.507976e+00
-6.163104e+00
-6.850955e+00
-7.570873e+00
-8.322040e+00
-9.103391e+00
-9.913584e+00
-1.075103e+01
-1.161396e+01
-1.250035e+01
-1.340784e+01
-1.433328e+01
-1.527193e+01
-1.621611e+01
-1.715321e+01
-1.806346e+01
-1.892136e+01
-1.969999e+01
0.000000e+00
-8.322334e-02
-2.134919e-01
-3.893191e-01
-6.087951e-01
-8.698929e-01
-1.170789e+00
-1.509989e+00
-1.886366e+00
-2.299126e+00
-2.747739e+00
-3.231834e+00
-3.751106e+00
-4.305226e+00
-4.893794e+00
-5.516343e+00
-6.172356e+00
-6.861268e+00
-7.582405e+00
-8.334885e+00
-9.117517e+00
-9.928744e+00
-1.076663e+01
-1.162886e+01
-1.251269e+01
-1.341480e+01
-1.433091e+01
-1.525508e+01
-1.617886e+01
-1.709023e+01
-1.797281e+01
-1.880708e+01
-1.957272e+01
0.000000e+00
-8.386677e-02
-2.159180e-01
-3.942063e-01
-6.163296e-01
-8.797787e-01
-1.182496e+00
-1.522998e+00
-1.900274e+00
-2.313666e+00
-2.762745e+00
-3.247212e+00
-3.766807e+00
-4.321236e+00
-4.910132e+00
-5.533057e+00
-6.189525e+00
-6.878988e+00
-7.600760e+00
-8.353898e+00
-9.137078e+00
-9.948512e+00
-1.078590e+01
-1.164643e+01
-1.252672e+01
-1.342271e+01
-1.432931e+01
-1.523999e+01
-1.614631e+01
-1.703749e+01
-1.790034e+01
-1.872000e+01
-1.948112e+01
0.000000e+00
-8.500034e-02
-2.204622e-01
-4.032538e-01
-6.299634e-01
-8.972233e-01
-1.202712e+00
-1.545062e+00
-1.923533e+00
-2.337680e+00
-2.787225e+00
-3.271968e+00
-3.791715e+00
-4.346215e+00
-4.935132e+00
-5.558054e+00
-6.214519e+00
-6.903988e+00
-7.625767e+00
-8.378863e+00
-9.161838e+00
-9.972675e+00
-1.080874e+01
-1.166679e+01
-1.254295e+01
-1.343259e+01
-1.433014e+01
-1.522885e+01
-1.612072e+01
-1.699645e+01
-1.784566e+01
-1.865743e+01
-1.942065e+01
0.000000e+00
-8.667595e-02
-2.285120e-01
-4.186648e-01
-6.518193e-01
-9.240004e-01
-1.232712e+00
-1.577048e+00
-1.956719e+00
-2.371560e+00
-2.821449e+00
-3.306295e+00
-3.825977e+00
-4.380285e+00
-4.968909e+00
-5.591457e+00
-6.247475e+00
-6.936424e+00
-7.657592e+00
-8.409951e+00
-9.191967e+00
-1.000143e+01
-1.083542e+01
-1.169037e+01
-1.256206e+01
-1.344550e+01
-1.433479e+01
-1.522323e+01
-1.610339e+01
-1.696738e+01
-1.780730e+01
-1.861575e+01
-1.938590e+01
0.000000e+00
-9.016433e-02
-2.443365e-01
-4.449673e-01
-6.855407e-01
-9.624294e-01
-1.273981e+00
-1.619895e+00
-2.000436e+00
-2.415708e+00
-2.865709e+00
-3.350430e+00
-3.869808e+00
-4.423663e+00
-5.011701e+00
-5.633538e+00
-6.288719e+00
-6.976681e+00
-7.696678e+00
-8.447638e+00
-9.227949e+00
-1.003525e+01
-1.086643e+01
-1.171772e+01
-1.258470e+01
-1.346215e+01
-1.434407e+01
-1.522386e+01
-1.609464e+01
-1.694967e+01
-1.778311e+01
-1.859082e+01
-1.937064e+01
0.000000e+00
-1.039690e-01
-2.770379e-01
-4.889356e-01
-7.346763e-01
-1.014466e+00
-1.327492e+00
-1.674135e+00
-2.054999e+00
-2.470315e+00
-2.920142e+00
-3.404509e+00
-3.923370e+00
-4.476548e+00
-5.063752e+00
-5.684598e+00
-6.338615e+00
-7.025199e+00
-7.743542e+00
-8.492494e+00
-9.270349e+00
-1.007465e+01
-1.090221e+01
-1.174920e+01
-1.261113e+01
-1.348273e+01
-1.435799e+01
-1.523050e+01
-1.609379e+01
-1.694192e+01
-1.777056e+01
-1.857827e+01
-1.936788e+01
0.000000e+00
-1.392082e-01
-3.348326e-01
-5.511156e-01
-7.995294e-01
-1.079867e+00
-1.392866e+00
-1.739494e+00
-2.120240e+00
-2.535272e+00
-2.984690e+00
-3.468536e+00
-3.986728e+00
-4.539064e+00
-5.125240e+00
-5.744864e+00
-6.397440e+00
-7.082310e+00
-7.798574e+00
-8.544949e+00
-9.319600e+00
-1.012002e+01
-1.094304e+01
-1.178491e+01
-1.264120e+01
-1.350671e+01
-1.437562e+01
-1.524171e+01
-1.609886e+01
-1.694162e+01
-1.776647e+01
-1.857372e+01
-1.937005e+01
0.000000e+00
-2.235393e-01
-4.092392e-01
-6.284894e-01
-8.777566e-01
-1.157018e+00
-1.469191e+00
-1.815516e+00
-2.195929e+00
-2.610486e+00
-3.059371e+00
-3.542602e+00
-4.060025e+00
-4.611393e+00
-5.196385e+00
-5.814592e+00
-6.465478e+00
-7.148314e+00
-7.862081e+00
-8.605319e+00
-9.376017e+00
-1.017162e+01
-1.098907e+01