TITLE = "Solution"
VARIABLES = x, y, u, v, psiu, psiv, t, stress
ZONE T="structure" N=153 E=128 F=FEBLOCK ET=QUADRILATERAL VARLOCATION=([7,8]=cellcentered)
0.000000e+00
1.250000e+01
2.500000e+01
3.750000e+01
5.000000e+01
6.250000e+01
7.500000e+01
8.750000e+01
1.000000e+02
1.125000e+02
1.250000e+02
1.375000e+02
1.500000e+02
1.625000e+02
1.750000e+02
1.875000e+02
2.000000e+02
0.000000e+00
1.250000e+01
2.500000e+01
3.750000e+01
5.000000e+01
6.250000e+01
7.500000e+01
8.750000e+01
1.000000e+02
1.125000e+02
1.250000e+02
1.375000e+02
1.500000e+02
1.625000e+02
1.750000e+02
1.875000e+02
2.000000e+02
0.000000e+00
1.250000e+01
2.500000e+01
3.750000e+01
5.000000e+01
6.250000e+01
7.500000e+01
8.750000e+01
1.000000e+02
1.125000e+02
1.250000e+02
1.375000e+02
1.500000e+02
1.625000e+02
1.750000e+02
1.875000e+02
2.000000e+02
0.000000e+00
1.250000e+01
2.500000e+01
3.750000e+01
5.000000e+01
6.250000e+01
7.500000e+01
8.750000e+01
1.000000e+02
1.125000e+02
1.250000e+02
1.375000e+02
1.500000e+02
1.625000e+02
1.750000e+02
1.875000e+02
2.000000e+02
0.000000e+00
1.250000e+01
2.500000e+01
3.750000e+01
5.000000e+01
6.250000e+01
7.500000e+01
8.750000e+01
1.000000e+02
1.125000e+02
1.250000e+02
1.375000e+02
1.500000e+02
1.625000e+02
1.750000e+02
1.875000e+02
2.000000e+02
0.000000e+00
1.250000e+01
2.500000e+01
3.750000e+01
5.000000e+01
6.250000e+01
7.500000e+01
8.750000e+01
1.000000e+02
1.125000e+02
1.250000e+02
1.375000e+02
1.500000e+02
1.625000e+02
1.750000e+02
1.875000e+02
2.000000e+02
0.000000e+00
1.250000e+01
2.500000e+01
3.750000e+01
5.000000e+01
6.250000e+01
7.500000e+01
8.750000e+01
1.000000e+02
1.125000e+02
1.250000e+02
1.375000e+02
1.500000e+02
1.625000e+02
1.750000e+02
1.875000e+02
2.000000e+02
0.000000e+00
1.250000e+01
2.500000e+01
3.750000e+01
5.000000e+01
6.250000e+01
7.500000e+01
8.750000e+01
1.000000e+02
1.125000e+02
1.250000e+02
1.375000e+02
1.500000e+02
1.625000e+02
1.750000e+02
1.875000e+02
2.000000e+02
0.000000e+00
1.250000e+01
2.500000e+01
3.750000e+01
5.000000e+01
6.250000e+01
7.500000e+01
8.750000e+01
1.000000e+02
1.125000e+02
1.250000e+02
1.375000e+02
1.500000e+02
1.625000e+02
1.750000e+02
1.875000e+02
2.000000e+02
0.000000e+00
0.000000e+00
0.000000e+00
0.000000e+00
0.000000e+00
0.000000e+00
0.000000e+00
0.000000e+00
0.000000e+00
0.000000e+00
0.000000e+00
0.000000e+00
0.000000e+00
0.000000e+00
0.000000e+00
0.000000e+00
0.000000e+00
1.250000e+01
1.250000e+01
1.250000e+01
1.250000e+01
1.250000e+01
1.250000e+01
1.250000e+01
1.250000e+01
1.250000e+01
1.250000e+01
1.250000e+01
1.250000e+01
1.250000e+01
1.250000e+01
1.250000e+01
1.250000e+01
1.250000e+01
2.500000e+01
2.500000e+01
2.500000e+01
2.500000e+01
2.500000e+01
2.500000e+01
2.500000e+01
2.500000e+01
2.500000e+01
2.500000e+01
2.500000e+01
2.500000e+01
2.500000e+01
2.500000e+01
2.500000e+01
2.500000e+01
2.500000e+01
3.750000e+01
3.750000e+01
3.750000e+01
3.750000e+01
3.750000e+01
3.750000e+01
3.750000e+01
3.750000e+01
3.750000e+01
3.750000e+01
3.750000e+01
3.750000e+01
3.750000e+01
3.750000e+01
3.750000e+01
3.750000e+01
3.750000e+01
5.000000e+01
5.000000e+01
5.000000e+01
5.000000e+01
5.000000e+01
5.000000e+01
5.000000e+01
5.000000e+01
5.000000e+01
5.000000e+01
5.000000e+01
5.000000e+01
5.000000e+01
5.000000e+01
5.000000e+01
5.000000e+01
5.000000e+01
6.250000e+01
6.250000e+01
6.250000e+01
6.250000e+01
6.250000e+01
6.250000e+01
6.250000e+01
6.250000e+01
6.250000e+01
6.250000e+01
6.250000e+01
6.250000e+01
6.250000e+01
6.250000e+01
6.250000e+01
6.250000e+01
6.250000e+01
7.500000e+01
7.500000e+01
7.500000e+01
7.500000e+01
7.500000e+01
7.500000e+01
7.500000e+01
7.500000e+01
7.500000e+01
7.500000e+01
7.500000e+01
7.500000e+01
7.500000e+01
7.500000e+01
7.500000e+01
7.500000e+01
7.500000e+01
8.750000e+01
8.750000e+01
8.750000e+01
8.750000e+01
8.750000e+01
8.750000e+01
8.750000e+01
8.750000e+01
8.750000e+01
8.750000e+01
8.750000e+01
8.750000e+01
8.750000e+01
8.750000e+01
8.750000e+01
8.750000e+01
8.750000e+01
1.000000e+02
1.000000e+02
1.000000e+02
1.000000e+02
1.000000e+02
1.000000e+02
1.000000e+02
1.000000e+02
1.000000e+02
1.000000e+02
1.000000e+02
1.000000e+02
1.000000e+02
1.000000e+02
1.000000e+02
1.000000e+02
1.000000e+02
0.000000e+00
-9.960708e-01
-1.678931e+00
-2.431176e+00
-3.117370e+00
-3.750283e+00
-4.458314e+00
-5.087126e+00
-5.763208e+00
-6.405547e+00
-7.055461e+00
-7.723516e+00
-8.376367e+00
-9.146338e+00
-1.007741e+01
-1.083393e+01
-1.128404e+01
0.000000e+00
-4.460550e-01
-9.064083e-01
-1.419027e+00
-1.930697e+00
-2.410621e+00
-2.924774e+00
-3.423000e+00
-3.918917e+00
-4.421430e+00
-4.913863e+00
-5.416881e+00
-5.901730e+00
-6.421350e+00
-6.897706e+00
-7.024045e+00
-7.202938e+00
0.000000e+00
-1.460864e-01
-3.487911e-01
-6.395380e-01
-9.775298e-01
-1.302528e+00
-1.655621e+00
-2.012855e+00
-2.356311e+00
-2.718590e+00
-3.057366e+00
-3.391727e+00
-3.687423e+00
-3.927371e+00
-4.036635e+00
-4.034661e+00
-4.183078e+00
0.000000e+00
-7.899016e-02
-1.621052e-01
-3.096568e-01
-4.549184e-01
-6.281356e-01
-8.139945e-01
-9.790422e-01
-1.166925e+00
-1.328815e+00
-1.489893e+00
-1.628963e+00
-1.722381e+00
-1.730552e+00
-1.656895e+00
-1.635940e+00
-1.752979e+00
0.000000e+00
-3.323110e-03
-7.232709e-03
-1.130576e-02
-1.570027e-02
-1.914523e-02
-2.005125e-02
-1.731923e-02
-8.582550e-03
8.280984e-03
3.271130e-02
7.770560e-02
1.602236e-01
2.751131e-01
3.949081e-01
4.357969e-01
3.376122e-01
0.000000e+00
7.317770e-02
1.503831e-01
2.905701e-01
4.290644e-01
5.954642e-01
7.744610e-01
9.424842e-01
1.148626e+00
1.343730e+00
1.561741e+00
1.782020e+00
2.008744e+00
2.216266e+00
2.352047e+00
2.384956e+00
2.319272e+00
0.000000e+00
1.437195e-01
3.434825e-01
6.305035e-01
9.655675e-01
1.290808e+00
1.643013e+00
1.999671e+00
2.358883e+00
2.764570e+00
3.143512e+00
3.510435e+00
3.843231e+00
4.118990e+00
4.295770e+00
4.350429e+00
4.327765e+00
0.000000e+00
4.467879e-01
9.071300e-01
1.419537e+00
1.930507e+00
2.408969e+00
2.920034e+00
3.415646e+00
3.903210e+00
4.396681e+00
4.874989e+00
5.350100e+00
5.777779e+00
6.125442e+00
6.342522e+00
6.438345e+00
6.456055e+00
0.000000e+00
9.983978e-01
1.684005e+00
2.440023e+00
3.128200e+00
3.761554e+00
4.468672e+00
5.095566e+00
5.747630e+00
6.331543e+00
6.905137e+00
7.506037e+00
8.035726e+00
8.447763e+00
8.648998e+00
8.701739e+00
8.702271e+00
0.000000e+00
-6.188079e-01
-1.361856e+00
-2.363320e+00
-3.537515e+00
-4.881008e+00
-6.412562e+00
-8.098688e+00
-9.959169e+00
-1.198268e+01
-1.416744e+01
-1.651831e+01
-1.903195e+01
-2.176304e+01
-2.472724e+01
-2.808664e+01
-3.310227e+01
0.000000e+00
-4.159886e-01
-1.193541e+00
-2.177073e+00
-3.368485e+00
-4.706910e+00
-6.234984e+00
-7.930129e+00
-9.782836e+00
-1.181513e+01
-1.399513e+01
-1.635060e+01
-1.885908e+01
-2.157038e+01
-2.458704e+01
-2.800289e+01
-3.205270e+01
0.000000e+00
-3.904535e-01
-1.091703e+00
-2.073665e+00
-3.249405e+00
-4.580929e+00
-6.115318e+00
-7.800257e+00
-9.663869e+00
-1.169328e+01
-1.388447e+01
-1.625132e+01
-1.877002e+01
-2.150812e+01
-2.457706e+01
-2.785102e+01
-3.088351e+01
0.000000e+00
-4.494393e-01
-1.088081e+00
-2.047525e+00
-3.187023e+00
-4.511277e+00
-6.053787e+00
-7.723497e+00
-9.606295e+00
-1.163456e+01
-1.384754e+01
-1.623425e+01
-1.877852e+01
-2.151846e+01
-2.450738e+01
-2.754135e+01
-3.016719e+01
0.000000e+00
-4.563493e-01
-1.110495e+00
-2.031971e+00
-3.172617e+00
-4.501699e+00
-6.032162e+00
-7.721857e+00
-9.595989e+00
-1.164669e+01
-1.387412e+01
-1.626804e+01
-1.881980e+01
-2.151961e+01
-2.435675e+01
-2.717479e+01
-2.956268e+01
0.000000e+00
-4.481864e-01
-1.087757e+00
-2.049613e+00
-3.194031e+00
-4.528455e+00
-6.081428e+00
-7.760214e+00
-9.658094e+00
-1.171228e+01
-1.394454e+01
-1.632021e+01
-1.885071e+01
-2.150965e+01
-2.422180e+01
-2.685500e+01
-2.912428e+01
0.000000e+00
-3.887847e-01
-1.091717e+00
-2.078496e+00
-3.263244e+00
-4.610243e+00
-6.161103e+00
-7.869541e+00
-9.763020e+00
-1.182864e+01
-1.403092e+01
-1.638751e+01
-1.888988e+01
-2.150956e+01
-2.413941e+01
-2.664777e+01
-2.889052e+01
0.000000e+00
-4.144440e-01
-1.193656e+00
-2.182775e+00
-3.384751e+00
-4.738159e+00
-6.286056e+00
-8.010619e+00
-9.901570e+00
-1.196595e+01
-1.414594e+01
-1.648607e+01
-1.896700e+01
-2.155109e+01
-2.411893e+01
-2.656022e+01
-2.883004e+01
0.000000e+00
-6.178456e-01
-1.362594e+00
-2.369726e+00
-3.554180e+00
-4.912103e+00
-6.464340e+00
-8.178873e+00
-1.007433e+01
-1.212135e+01
-1.430112e+01
-1.663423e+01
-1.909059e+01
-2.163309e+01
-2.414356e+01
-2.654533e+01
-2.882889e+01


0.000000e+00
1.541796e-05
2.508014e-05
3.749374e-05
5.358451e-05
6.716326e-05
8.318901e-05
9.712896e-05
1.118703e-04
1.257437e-04
1.408883e-04
1.552379e-04
1.717890e-04
1.876153e-04
1.977086e-04
2.034551e-04
2.103883e-04
0.000000e+00
1.145661e-05
1.973512e-05
2.841675e-05
4.099054e-05
5.172372e-05
6.185368e-05
7.296450e-05
8.316820e-05
9.458302e-05
1.052331e-04
1.156314e-04
1.264866e-04
1.358458e-04
1.374600e-04
1.412144e-04
1.470369e-04
0.000000e+00
9.527207e-06
1.502496e-05
2.021473e-05
2.884393e-05
3.555233e-05
4.128455e-05
4.863269e-05
5.460314e-05
6.197735e-05
6.837513e-05
7.405280e-05
7.876286e-05
8.094876e-05
8.020125e-05
8.257693e-05
8.680818e-05
0.000000e+00
5.186861e-06
6.843523e-06
9.624604e-06
1.306347e-05
1.351927e-05
1.587756e-05
1.725374e-05
2.089878e-05
2.431875e-05
2.806793e-05
2.913169e-05
2.854756e-05
2.712266e-05
2.684048e-05
2.987285e-05
3.554375e-05
0.000000e+00
-1.760582e-07
-4.387247e-07
-8.631909e-07
-1.737700e-06
-2.901499e-06
-5.021519e-06
-7.270573e-06
-7.842409e-06
-7.896538e-06
-8.834220e-06
-1.196737e-05
-1.470892e-05
-1.614750e-05
-1.582200e-05
-1.367041e-05
-9.680676e-06
0.000000e+00
-5.452447e-06
-7.435734e-06
-1.076090e-05
-1.467065e-05
-1.609160e-05
-2.057238e-05
-2.432722e-05
-3.030256e-05
-3.345195e-05
-3.760501e-05
-4.224335e-05
-4.738643e-05
-4.918328e-05
-4.972397e-05
-5.018827e-05
-4.845052e-05
0.000000e+00
-9.525711e-06
-1.509166e-05
-2.038416e-05
-2.894416e-05
-3.534721e-05
-4.075437e-05
-4.874710e-05
-5.592558e-05
-6.365381e-05
-6.892047e-05
-7.392636e-05
-7.806891e-05
-8.166965e-05
-8.356874e-05
-8.548524e-05
-8.623095e-05
0.000000e+00
-1.138489e-05
-1.964656e-05
-2.831132e-05
-4.076347e-05
-5.166864e-05
-6.160762e-05
-7.279722e-05
-8.319178e-05
-9.458757e-05
-1.052146e-04
-1.136137e-04
-1.183991e-04
-1.234392e-04
-1.270590e-04
-1.283674e-04
-1.284626e-04
0.000000e+00
-1.542826e-05
-2.502018e-05
-3.734009e-05
-5.337328e-05
-6.698829e-05
-8.288385e-05
-9.585047e-05
-1.100148e-04
-1.232856e-04
-1.409464e-04
-1.567966e-04
-1.666260e-04
-1.718547e-04
-1.740577e-04
-1.742814e-04
-1.741025e-04
0.000000e+00
1.259557e-05
1.999646e-05
3.243315e-05
4.873516e-05
6.685470e-05
9.128573e-05
1.201049e-04
1.534053e-04
1.901326e-04
2.302922e-04
2.742988e-04
3.242172e-04
3.783520e-04
4.398955e-04
5.107544e-04
5.841633e-04
0.000000e+00
7.679609e-06
1.610603e-05
2.633150e-05
4.227466e-05
6.089403e-05
8.482499e-05
1.142372e-04
1.471593e-04
1.840166e-04
2.239529e-04
2.680894e-04
3.176465e-04
3.734044e-04
4.346389e-04
5.033741e-04
5.738119e-04
0.000000e+00
4.325207e-06
1.228834e-05
2.172242e-05
3.645178e-05
5.567212e-05
7.940110e-05
1.097312e-04
1.429992e-04
1.795269e-04
2.193670e-04
2.635490e-04
3.138630e-04
3.710076e-04
4.304890e-04
4.958962e-04
5.641311e-04
0.000000e+00
3.198368e-06
1.058711e-05
2.008176e-05
3.450575e-05
5.199645e-05
7.640131e-05
1.087349e-04
1.435438e-04
1.780861e-04
2.173314e-04
2.619034e-04
3.131034e-04
3.695923e-04
4.277515e-04
4.880636e-04
5.499750e-04
0.000000e+00
2.809887e-06
1.026432e-05
2.004066e-05
3.423784e-05
5.070335e-05
7.528474e-05
1.097809e-04
1.447438e-04
1.780067e-04
2.155425e-04
2.618359e-04
3.133168e-04
3.697370e-04
4.266084e-04
4.816829e-04
5.338478e-04
0.000000e+00
3.342306e-06
1.077839e-05
2.046006e-05
3.484794e-05
5.179897e-05
7.717238e-05
1.106680e-04
1.453612e-04
1.778397e-04
2.159305e-04
2.632869e-04
3.156560e-04
3.700721e-04
4.265147e-04
4.793617e-04
5.228127e-04
0.000000e+00
4.479430e-06
1.251781e-05
2.207057e-05
3.673175e-05
5.575758e-05
8.038517e-05
1.117377e-04
1.447085e-04
1.789493e-04
2.181891e-04
2.664936e-04
3.191481e-04
3.721833e-04
4.256102e-04
4.766091e-04
5.193293e-04
0.000000e+00
7.804634e-06
1.634385e-05
2.663507e-05
4.253576e-05
6.130925e-05
8.579766e-05
1.159101e-04
1.481808e-04
1.832466e-04
2.228071e-04
2.702719e-04
3.221951e-04
3.743884e-04
4.257629e-04
4.745851e-04
5.197874e-04
0.000000e+00
1.270915e-05
2.023459e-05
3.272643e-05
4.907838e-05
6.739719e-05
9.233035e-05
1.215655e-04
1.543815e-04
1.894041e-04
2.300761e-04
2.746379e-04
3.245030e-04
3.755426e-04
4.260855e-04
4.741015e-04
5.200507e-04


5.683102e+00
6.143085e+00
6.868938e+00
5.945740e+00
5.781592e+00
6.654830e+00
6.488937e+00
6.463135e+00
5.980214e+00
5.907408e+00
6.285700e+00
7.152114e+00
8.849378e+00
9.831264e+00
9.152147e+00
8.003141e+00
8.087647e+00
8.463484e+00
8.663215e+00
8.359106e+00
8.259544e+00
8.545169e+00
8.703676e+00
8.437796e+00
8.407294e+00
8.271938e+00
8.418884e+00
8.845855e+00
9.508080e+00
9.843893e+00
8.396148e+00
6.475196e+00
9.844291e+00
9.824339e+00
1.000000e+01
9.838428e+00
9.836731e+00
9.976017e+00
9.836375e+00
9.949947e+00
9.849714e+00
9.881589e+00
9.899323e+00
9.877084e+00
9.895289e+00
9.396529e+00
8.001357e+00
6.192706e+00
1.000000e+01
1.000000e+01
1.000000e+01
1.000000e+01
1.000000e+01
1.000000e+01
1.000000e+01
1.000000e+01
1.000000e+01
1.000000e+01
1.000000e+01
9.484059e+00
8.831756e+00
8.374306e+00
7.993504e+00
7.922663e+00
1.000000e+01
1.000000e+01
1.000000e+01
1.000000e+01
1.000000e+01
1.000000e+01
9.935318e+00
9.963318e+00
1.000000e+01
9.920032e+00
9.362085e+00
8.594487e+00
7.707603e+00
7.746886e+00
8.656441e+00
9.171572e+00
9.844839e+00
9.824304e+00
1.000000e+01
9.838338e+00
9.836518e+00
9.720125e+00
9.304911e+00
9.525774e+00
9.388621e+00
8.877956e+00
8.314059e+00
7.899367e+00
8.198094e+00
8.754211e+00
9.449966e+00
1.000000e+01
8.090834e+00
8.464903e+00
8.662721e+00
8.357704e+00
8.184954e+00
8.103888e+00
7.952604e+00
7.847785e+00
7.934737e+00
7.360102e+00
7.494439e+00
8.492360e+00
9.291022e+00
9.847201e+00
1.000000e+01
1.000000e+01
5.691027e+00
6.145810e+00
6.868176e+00
5.940167e+00
5.764176e+00
6.352421e+00
6.163346e+00
6.633778e+00
6.370335e+00
6.566585e+00
7.884310e+00
9.118356e+00
9.986706e+00
1.000000e+01
1.000000e+01
1.000000e+01


-8.195128e-01
-1.666439e-01
-3.976438e-01
-2.588330e-01
-9.217074e-02
-3.078212e-01
-1.230470e-01
-2.097809e-01
-1.619296e-01
-1.576090e-01
-2.154386e-01
-1.496357e-01
-4.613177e-01
-6.862660e-01
3.157080e-01
-8.469439e-01
6.106560e-01
4.817420e-01
2.950743e-01
2.251600e-01
2.912607e-01
1.679602e-01
1.749407e-01
1.734671e-01
1.092979e-01
1.484600e-01
1.277818e-01
2.413489e-01
3.024793e-01
5.092287e-01
6.953470e-01
-9.344576e-01
7.225969e-01
4.717008e-01
5.628976e-02
-2.278920e-02
-3.581941e-02
-1.893710e-01
-8.010139e-02
-1.383031e-01
-7.759236e-02
-1.907275e-02
3.111027e-02
1.853449e-01
2.783106e-01
1.479850e-01
-2.535722e-02
-1.678416e-01
7.278656e-01
5.564824e-01
1.927458e-01
6.126052e-02
-2.194120e-02
-1.073283e-01
-1.620215e-02
-6.233681e-02
1.309478e-02
1.666925e-02
5.855792e-02
1.174492e-01
5.902122e-02
-2.622370e-01
-3.841349e-01
-7.819402e-02
7.307628e-01
5.604379e-01
2.007637e-01
6.943965e-02
-1.787147e-02
-1.133261e-01
-3.614480e-02
-1.031345e-01
-5.260718e-02
-4.416348e-02
2.043240e-02
1.348890e-02
-3.775262e-02
-1.297766e-01
-1.029812e-01
3.103797e-01
7.293944e-01
4.819529e-01
7.436345e-02
-4.850160e-03
-2.355358e-02
-1.629936e-01
-7.271316e-02
-1.875319e-01
-1.820476e-01
-1.089717e-01
-7.751936e-02
-9.801918e-02
-1.117028e-01
4.549850e-02
3.338789e-01
7.244921e-01
6.147171e-01
4.876819e-01
3.024854e-01
2.301278e-01
2.873849e-01
1.614378e-01
1.520930e-01
1.039783e-01
-5.793460e-02
-3.975311e-02
-9.608928e-02
-5.593355e-02
5.741512e-02
3.653020e-01
7.128384e-01
9.478977e-01
-8.253517e-01
-1.719217e-01
-4.053620e-01
-2.620251e-01
-9.110359e-02
-3.019749e-01
-1.190380e-01
-1.575302e-01
-5.585309e-02
-2.213242e-02
-9.261531e-02
1.011345e-01
3.879374e-01
7.721748e-01
9.528973e-01
9.987354e-01
1 2 19 18
2 3 20 19
3 4 21 20
4 5 22 21
5 6 23 22
6 7 24 23
7 8 25 24
8 9 26 25
9 10 27 26
10 11 28 27
11 12 29 28
12 13 30 29
13 14 31 30
14 15 32 31
15 16 33 32
16 17 34 33
18 19 36 35
19 20 37 36
20 21 38 37
21 22 39 38
22 23 40 39
23 24 41 40
24 25 42 41
25 26 43 42
26 27 44 43
27 28 45 44
28 29 46 45
29 30 47 46
30 31 48 47
31 32 49 48
32 33 50 49
33 34 51 50
35 36 53 52
36 37 54 53
37 38 55 54
38 39 56 55
39 40 57 56
40 41 58 57
41 42 59 58
42 43 60 59
43 44 61 60
44 45 62 61
45 46 63 62
46 47 64 63
47 48 65 64
48 49 66 65
49 50 67 66
50 51 68 67
52 53 70 69
53 54 71 70
54 55 72 71
55 56 73 72
56 57 74 73
57 58 75 74
58 59 76 75
59 60 77 76
60 61 78 77
61 62 79 78
62 63 80 79
63 64 81 80
64 65 82 81
65 66 83 82
66 67 84 83
67 68 85 84
69 70 87 86
70 71 88 87
71 72 89 88
72 73 90 89
73 74 91 90
74 75 92 91
75 76 93 92
76 77 94 93
77 78 95 94
78 79 96 95
79 80 97 96
80 81 98 97
81 82 99 98
82 83 100 99
83 84 101 100
84 85 102 101
86 87 104 103
87 88 105 104
88 89 106 105
89 90 107 106
90 91 108 107
91 92 109 108
92 93 110 109
93 94 111 110
94 95 112 111
95 96 113 112
96 97 114 113
97 98 115 114
98 99 116 115
99 100 117 116
100 101 118 117
101 102 119 118
103 104 121 120
104 105 122 121
105 106 123 122
106 107 124 123
107 108 125 124
108 109 126 125
109 110 127 126
110 111 128 127
111 112 129 128
112 113 130 129
113 114 131 130
114 115 132 131
115 116 133 132
116 117 134 133
117 118 135 134
118 119 136 135
120 121 138 137
121 122 139 138
122 123 140 139
123 124 141 140
124 125 142 141
125 126 143 142
126 127 144 143
127 128 145 144
128 129 146 145
129 130 147 146
130 131 148 147
131 132 149 148
132 133 150 149
133 134 151 150
134 135 152 151
135 136 153 152
