TITLE = "Solution"
VARIABLES = x, y, u, v, psiu, psiv, t, stress
ZONE T="structure" N=153 E=128 F=FEBLOCK ET=QUADRILATERAL VARLOCATION=([7,8]=cellcentered)
0.000000e+00
1.250000e+01
2.500000e+01
3.750000e+01
5.000000e+01
6.250000e+01
7.500000e+01
8.750000e+01
1.000000e+02
1.125000e+02
1.250000e+02
1.375000e+02
1.500000e+02
1.625000e+02
1.750000e+02
1.875000e+02
2.000000e+02
0.000000e+00
1.250000e+01
2.500000e+01
3.750000e+01
5.000000e+01
6.250000e+01
7.500000e+01
8.750000e+01
1.000000e+02
1.125000e+02
1.250000e+02
1.375000e+02
1.500000e+02
1.625000e+02
1.750000e+02
1.875000e+02
2.000000e+02
0.000000e+00
1.250000e+01
2.500000e+01
3.750000e+01
5.000000e+01
6.250000e+01
7.500000e+01
8.750000e+01
1.000000e+02
1.125000e+02
1.250000e+02
1.375000e+02
1.500000e+02
1.625000e+02
1.750000e+02
1.875000e+02
2.000000e+02
0.000000e+00
1.250000e+01
2.500000e+01
3.750000e+01
5.000000e+01
6.250000e+01
7.500000e+01
8.750000e+01
1.000000e+02
1.125000e+02
1.250000e+02
1.375000e+02
1.500000e+02
1.625000e+02
1.750000e+02
1.875000e+02
2.000000e+02
0.000000e+00
1.250000e+01
2.500000e+01
3.750000e+01
5.000000e+01
6.250000e+01
7.500000e+01
8.750000e+01
1.000000e+02
1.125000e+02
1.250000e+02
1.375000e+02
1.500000e+02
1.625000e+02
1.750000e+02
1.875000e+02
2.000000e+02
0.000000e+00
1.250000e+01
2.500000e+01
3.750000e+01
5.000000e+01
6.250000e+01
7.500000e+01
8.750000e+01
1.000000e+02
1.125000e+02
1.250000e+02
1.375000e+02
1.500000e+02
1.625000e+02
1.750000e+02
1.875000e+02
2.000000e+02
0.000000e+00
1.250000e+01
2.500000e+01
3.750000e+01
5.000000e+01
6.250000e+01
7.500000e+01
8.750000e+01
1.000000e+02
1.125000e+02
1.250000e+02
1.375000e+02
1.500000e+02
1.625000e+02
1.750000e+02
1.875000e+02
2.000000e+02
0.000000e+00
1.250000e+01
2.500000e+01
3.750000e+01
5.000000e+01
6.250000e+01
7.500000e+01
8.750000e+01
1.000000e+02
1.125000e+02
1.250000e+02
1.375000e+02
1.500000e+02
1.625000e+02
1.750000e+02
1.875000e+02
2.000000e+02
0.000000e+00
1.250000e+01
2.500000e+01
3.750000e+01
5.000000e+01
6.250000e+01
7.500000e+01
8.750000e+01
1.000000e+02
1.125000e+02
1.250000e+02
1.375000e+02
1.500000e+02
1.625000e+02
1.750000e+02
1.875000e+02
2.000000e+02
0.000000e+00
0.000000e+00
0.000000e+00
0.000000e+00
0.000000e+00
0.000000e+00
0.000000e+00
0.000000e+00
0.000000e+00
0.000000e+00
0.000000e+00
0.000000e+00
0.000000e+00
0.000000e+00
0.000000e+00
0.000000e+00
0.000000e+00
1.250000e+01
1.250000e+01
1.250000e+01
1.250000e+01
1.250000e+01
1.250000e+01
1.250000e+01
1.250000e+01
1.250000e+01
1.250000e+01
1.250000e+01
1.250000e+01
1.250000e+01
1.250000e+01
1.250000e+01
1.250000e+01
1.250000e+01
2.500000e+01
2.500000e+01
2.500000e+01
2.500000e+01
2.500000e+01
2.500000e+01
2.500000e+01
2.500000e+01
2.500000e+01
2.500000e+01
2.500000e+01
2.500000e+01
2.500000e+01
2.500000e+01
2.500000e+01
2.500000e+01
2.500000e+01
3.750000e+01
3.750000e+01
3.750000e+01
3.750000e+01
3.750000e+01
3.750000e+01
3.750000e+01
3.750000e+01
3.750000e+01
3.750000e+01
3.750000e+01
3.750000e+01
3.750000e+01
3.750000e+01
3.750000e+01
3.750000e+01
3.750000e+01
5.000000e+01
5.000000e+01
5.000000e+01
5.000000e+01
5.000000e+01
5.000000e+01
5.000000e+01
5.000000e+01
5.000000e+01
5.000000e+01
5.000000e+01
5.000000e+01
5.000000e+01
5.000000e+01
5.000000e+01
5.000000e+01
5.000000e+01
6.250000e+01
6.250000e+01
6.250000e+01
6.250000e+01
6.250000e+01
6.250000e+01
6.250000e+01
6.250000e+01
6.250000e+01
6.250000e+01
6.250000e+01
6.250000e+01
6.250000e+01
6.250000e+01
6.250000e+01
6.250000e+01
6.250000e+01
7.500000e+01
7.500000e+01
7.500000e+01
7.500000e+01
7.500000e+01
7.500000e+01
7.500000e+01
7.500000e+01
7.500000e+01
7.500000e+01
7.500000e+01
7.500000e+01
7.500000e+01
7.500000e+01
7.500000e+01
7.500000e+01
7.500000e+01
8.750000e+01
8.750000e+01
8.750000e+01
8.750000e+01
8.750000e+01
8.750000e+01
8.750000e+01
8.750000e+01
8.750000e+01
8.750000e+01
8.750000e+01
8.750000e+01
8.750000e+01
8.750000e+01
8.750000e+01
8.750000e+01
8.750000e+01
1.000000e+02
1.000000e+02
1.000000e+02
1.000000e+02
1.000000e+02
1.000000e+02
1.000000e+02
1.000000e+02
1.000000e+02
1.000000e+02
1.000000e+02
1.000000e+02
1.000000e+02
1.000000e+02
1.000000e+02
1.000000e+02
1.000000e+02
0.000000e+00
-8.912323e-01
-1.582407e+00
-2.268957e+00
-2.958534e+00
-3.620200e+00
-4.288008e+00
-4.958025e+00
-5.618737e+00
-6.278190e+00
-6.944704e+00
-7.623274e+00
-8.311714e+00
-9.002297e+00
-9.691739e+00
-1.035916e+01
-1.079923e+01
0.000000e+00
-4.548762e-01
-9.453702e-01
-1.445307e+00
-1.961348e+00
-2.456604e+00
-2.955891e+00
-3.458303e+00
-3.953367e+00
-4.445085e+00
-4.937055e+00
-5.427418e+00
-5.903533e+00
-6.331213e+00
-6.629895e+00
-6.702942e+00
-6.861449e+00
0.000000e+00
-2.224287e-01
-4.822634e-01
-7.962773e-01
-1.133951e+00
-1.466542e+00
-1.805496e+00
-2.145934e+00
-2.481181e+00
-2.810205e+00
-3.127731e+00
-3.421661e+00
-3.669432e+00
-3.833829e+00
-3.871832e+00
-3.845319e+00
-3.998440e+00
0.000000e+00
-9.436289e-02
-2.052849e-01
-3.500033e-01
-5.087769e-01
-6.761925e-01
-8.475840e-01
-1.017786e+00
-1.183487e+00
-1.339457e+00
-1.476456e+00
-1.580548e+00
-1.633911e+00
-1.621997e+00
-1.564421e+00
-1.565405e+00
-1.694656e+00
0.000000e+00
-1.150321e-03
-2.324029e-03
-3.314588e-03
-3.775686e-03
-3.142149e-03
-4.072459e-04
6.070420e-03
1.868400e-02
4.117261e-02
7.947549e-02
1.408966e-01
2.297629e-01
3.370588e-01
4.217381e-01
4.239216e-01
3.244364e-01
0.000000e+00
9.236804e-02
2.013160e-01
3.442558e-01
5.020128e-01
6.701467e-01
8.457279e-01
1.026214e+00
1.212267e+00
1.405066e+00
1.604411e+00
1.806986e+00
2.003404e+00
2.172995e+00
2.281789e+00
2.300357e+00
2.244698e+00
0.000000e+00
2.213613e-01
4.801563e-01
7.931547e-01
1.129766e+00
1.461933e+00
1.802113e+00
2.145943e+00
2.488287e+00
2.832271e+00
3.175245e+00
3.502974e+00
3.793128e+00
4.020954e+00
4.163640e+00
4.212184e+00
4.199093e+00
0.000000e+00
4.547837e-01
9.452591e-01
1.445127e+00
1.960445e+00
2.454508e+00
2.952280e+00
3.450881e+00
3.938531e+00
4.421182e+00
4.897435e+00
5.342946e+00
5.720630e+00
6.001106e+00
6.173554e+00
6.248060e+00
6.261899e+00
0.000000e+00
8.918769e-01
1.584178e+00
2.272109e+00
2.962536e+00
3.624464e+00
4.291778e+00
4.957416e+00
5.607339e+00
6.249753e+00
6.878930e+00
7.454990e+00
7.920637e+00
8.233812e+00
8.388813e+00
8.426779e+00
8.425636e+00
0.000000e+00
-5.537457e-01
-1.174417e+00
-1.998192e+00
-2.991816e+00
-4.152720e+00
-5.491802e+00
-7.004775e+00
-8.689469e+00
-1.054885e+01
-1.258492e+01
-1.479992e+01
-1.719617e+01
-1.977972e+01
-2.259910e+01
-2.586370e+01
-3.066826e+01
0.000000e+00
-3.564974e-01
-1.006180e+00
-1.819085e+00
-2.816147e+00
-3.979183e+00
-5.316635e+00
-6.830958e+00
-8.517844e+00
-1.037782e+01
-1.241373e+01
-1.462970e+01
-1.703173e+01
-1.963472e+01
-2.248651e+01
-2.576163e+01
-2.974116e+01
0.000000e+00
-3.066789e-01
-8.997508e-01
-1.703861e+00
-2.694474e+00
-3.855920e+00
-5.193407e+00
-6.709134e+00
-8.399231e+00
-1.026425e+01
-1.230790e+01
-1.453605e+01
-1.695778e+01
-1.959397e+01
-2.247568e+01
-2.558100e+01
-2.850563e+01
0.000000e+00
-3.203058e-01
-8.702976e-01
-1.650704e+00
-2.627493e+00
-3.784994e+00
-5.123229e+00
-6.641273e+00
-8.336949e+00
-1.021191e+01
-1.227062e+01
-1.451809e+01
-1.695922e+01
-1.960061e+01
-2.242002e+01
-2.524665e+01
-2.772341e+01
0.000000e+00
-3.291083e-01
-8.697023e-01
-1.638008e+00
-2.608875e+00
-3.765287e+00
-5.105803e+00
-6.627925e+00
-8.330202e+00
-1.021551e+01
-1.228877e+01
-1.455115e+01
-1.699551e+01
-1.960097e+01
-2.229469e+01
-2.490250e+01
-2.714765e+01
0.000000e+00
-3.201241e-01
-8.707672e-01
-1.652819e+00
-2.632294e+00
-3.793844e+00
-5.138506e+00
-6.665609e+00
-8.372735e+00
-1.026371e+01
-1.234447e+01
-1.461136e+01
-1.704279e+01
-1.959209e+01
-2.216905e+01
-2.462754e+01
-2.677702e+01
0.000000e+00
-3.064124e-01
-9.005319e-01
-1.707225e+00
-2.702171e+00
-3.870277e+00
-5.218272e+00
-6.748861e+00
-8.457969e+00
-1.034967e+01
-1.243045e+01
-1.469259e+01
-1.710273e+01
-1.959869e+01
-2.208809e+01
-2.445891e+01
-2.660514e+01
0.000000e+00
-3.562593e-01
-1.007069e+00
-1.822745e+00
-2.824630e+00
-3.995229e+00
-5.344369e+00
-6.875154e+00
-8.583673e+00
-1.047396e+01
-1.255037e+01
-1.480070e+01
-1.718539e+01
-1.963697e+01
-2.206669e+01
-2.438714e+01
-2.656495e+01
0.000000e+00
-5.537080e-01
-1.175550e+00
-2.002063e+00
-3.000427e+00
-4.168955e+00
-5.519424e+00
-7.047883e+00
-8.753487e+00
-1.064191e+01
-1.271129e+01
-1.494201e+01
-1.729258e+01
-1.969980e+01
-2.208415e+01
-2.437375e+01
-2.656600e+01


0.000000e+00
1.323662e-05
2.399331e-05
3.550137e-05
4.912001e-05
6.215341e-05
7.452420e-05
8.710398e-05
9.931193e-05
1.109635e-04
1.221764e-04
1.319646e-04
1.391426e-04
1.439911e-04
1.474381e-04
1.507981e-04
1.546479e-04
0.000000e+00
9.752698e-06
1.935122e-05
2.784279e-05
3.863796e-05
4.871800e-05
5.784878e-05
6.721339e-05
7.637860e-05
8.490667e-05
9.292192e-05
9.944351e-05
1.031676e-04
1.041107e-04
1.042447e-04
1.070041e-04
1.115058e-04
0.000000e+00
7.725746e-06
1.440255e-05
2.017992e-05
2.751926e-05
3.413952e-05
4.014343e-05
4.621200e-05
5.198782e-05
5.712078e-05
6.157066e-05
6.473118e-05
6.603677e-05
6.586577e-05
6.595288e-05
6.864060e-05
7.316560e-05
0.000000e+00
4.007287e-06
6.782426e-06
1.034421e-05
1.369392e-05
1.683069e-05
1.985789e-05
2.276633e-05
2.531653e-05
2.745329e-05
2.901157e-05
2.985333e-05
3.012762e-05
3.036286e-05
3.118127e-05
3.351643e-05
3.714423e-05
0.000000e+00
-2.468882e-08
-5.575638e-08
-9.292517e-08
-1.370607e-07
-1.889942e-07
-2.595654e-07
-3.635694e-07
-5.316198e-07
-8.484076e-07
-1.396009e-06
-2.063683e-06
-2.547254e-06
-2.460484e-06
-1.691628e-06
-4.481277e-07
1.440769e-06
0.000000e+00
-4.046824e-06
-6.871647e-06
-1.049773e-05
-1.391097e-05
-1.713097e-05
-2.026739e-05
-2.327822e-05
-2.597005e-05
-2.845487e-05
-3.064892e-05
-3.242256e-05
-3.360061e-05
-3.408416e-05
-3.421887e-05
-3.420092e-05
-3.363177e-05
0.000000e+00
-7.738033e-06
-1.444522e-05
-2.025024e-05
-2.762060e-05
-3.432063e-05
-4.039269e-05
-4.643245e-05
-5.218985e-05
-5.724015e-05
-6.129828e-05
-6.406022e-05
-6.572956e-05
-6.673271e-05
-6.738508e-05
-6.778167e-05
-6.776331e-05
0.000000e+00
-9.742481e-06
-1.934523e-05
-2.781972e-05
-3.859400e-05
-4.872583e-05
-5.788603e-05
-6.716212e-05
-7.636891e-05
-8.484503e-05
-9.182781e-05
-9.651048e-05
-9.918583e-05
-1.007105e-04
-1.015950e-04
-1.020247e-04
-1.021126e-04
0.000000e+00
-1.322692e-05
-2.395735e-05
-3.540809e-05
-4.894196e-05
-6.193421e-05
-7.424124e-05
-8.666991e-05
-9.888637e-05
-1.105832e-04
-1.208427e-04
-1.284114e-04
-1.331112e-04
-1.355984e-04
-1.366749e-04
-1.369770e-04
-1.370051e-04
0.000000e+00
1.129176e-05
1.886006e-05
2.932607e-05
4.322272e-05
5.914653e-05
7.844892e-05
1.015037e-04
1.275372e-04
1.565538e-04
1.884387e-04
2.222799e-04
2.577265e-04
2.958759e-04
3.400821e-04
3.910920e-04
4.425773e-04
0.000000e+00
6.253429e-06
1.440027e-05
2.382266e-05
3.720032e-05
5.354229e-05
7.299570e-05
9.600769e-05
1.222887e-04
1.515912e-04
1.839505e-04
2.189044e-04
2.558198e-04
2.948342e-04
3.371678e-04
3.855996e-04
4.356615e-04
0.000000e+00
2.946838e-06
1.040350e-05
1.966474e-05
3.258136e-05
4.928214e-05
6.904311e-05
9.213153e-05
1.186356e-04
1.483080e-04
1.811410e-04
2.169170e-04
2.549042e-04
2.941134e-04
3.334656e-04
3.781649e-04
4.260596e-04
0.000000e+00
1.790481e-06
8.370117e-06
1.780888e-05
3.071845e-05
4.745411e-05
6.738631e-05
9.064458e-05
1.173088e-04
1.472145e-04
1.802909e-04
2.162637e-04
2.544353e-04
2.932754e-04
3.306154e-04
3.713316e-04
4.157612e-04
0.000000e+00
1.508064e-06
7.780869e-06
1.720008e-05
3.023660e-05
4.687876e-05
6.687237e-05
9.023335e-05
1.169900e-04
1.470535e-04
1.802818e-04
2.162554e-04
2.542251e-04
2.927656e-04
3.296005e-04
3.674849e-04
4.076984e-04
0.000000e+00
1.805118e-06
8.389569e-06
1.782043e-05
3.069376e-05
4.739575e-05
6.732654e-05
9.058317e-05
1.173139e-04
1.475137e-04
1.809505e-04
2.169882e-04
2.547089e-04
2.927288e-04
3.297672e-04
3.664321e-04
4.032035e-04
0.000000e+00
2.968001e-06
1.043430e-05
1.968304e-05
3.254625e-05
4.919761e-05
6.894277e-05
9.199663e-05
1.186241e-04
1.488504e-04
1.823977e-04
2.183952e-04
2.556926e-04
2.931494e-04
3.299140e-04
3.660396e-04
4.013819e-04
0.000000e+00
6.277639e-06
1.443563e-05
2.384457e-05
3.718231e-05
5.347671e-05
7.287766e-05
9.584313e-05
1.222727e-04
1.520956e-04
1.850800e-04
2.203071e-04
2.567887e-04
2.936069e-04
3.300276e-04
3.658255e-04
4.009352e-04
0.000000e+00
1.131624e-05
1.889357e-05
2.934093e-05
4.321714e-05
5.911330e-05
7.832640e-05
1.013413e-04
1.275794e-04
1.568814e-04
1.888056e-04
2.226432e-04
2.579832e-04
2.941020e-04
3.301815e-04
3.657869e-04
4.009006e-04


2.624185e+00
2.499302e+00
2.573721e+00
2.665634e+00
2.738410e+00
3.007020e+00
3.301327e+00
3.629820e+00
4.095203e+00
4.716308e+00
5.465209e+00
6.193006e+00
6.645164e+00
6.460239e+00
5.508683e+00
4.631877e+00
4.173754e+00
4.024410e+00
4.030078e+00
4.040896e+00
4.059947e+00
4.240202e+00
4.441782e+00
4.662690e+00
4.980076e+00
5.410947e+00
5.936315e+00
6.444819e+00
6.719739e+00
6.355467e+00
5.255036e+00
4.234903e+00
6.055559e+00
5.970741e+00
5.927784e+00
5.880117e+00
5.851976e+00
5.926139e+00
6.003238e+00
6.075791e+00
6.181486e+00
6.332345e+00
6.526871e+00
6.718437e+00
6.779373e+00
6.375246e+00
5.394109e+00
4.566529e+00
7.010649e+00
6.971900e+00
6.940272e+00
6.876497e+00
6.849027e+00
6.861508e+00
6.865762e+00
6.848325e+00
6.814908e+00
6.777494e+00
6.750005e+00
6.739804e+00
6.720061e+00
6.504379e+00
6.014340e+00
5.604113e+00
7.010265e+00
6.971896e+00
6.939939e+00
6.873814e+00
6.842549e+00
6.849979e+00
6.844028e+00
6.808019e+00
6.750396e+00
6.686481e+00
6.632165e+00
6.613910e+00
6.652882e+00
6.669216e+00
6.590864e+00
6.503761e+00
6.053552e+00
5.969295e+00
5.924576e+00
5.870049e+00
5.832536e+00
5.894901e+00
5.947006e+00
5.980652e+00
6.055848e+00
6.187287e+00
6.346684e+00
6.513535e+00
6.694662e+00
6.860944e+00
6.962847e+00
7.003500e+00
4.170296e+00
4.021110e+00
4.024403e+00
4.027772e+00
4.038950e+00
4.212004e+00
4.395940e+00
4.603894e+00
4.961727e+00
5.468108e+00
6.005405e+00
6.459919e+00
6.799252e+00
7.033524e+00
7.170279e+00
7.228239e+00
2.620795e+00
2.496440e+00
2.569701e+00
2.657244e+00
2.728597e+00
3.001482e+00
3.298331e+00
3.654949e+00
4.236209e+00
5.019943e+00
5.819224e+00
6.457218e+00
6.882206e+00
7.132058e+00
7.259369e+00
7.310772e+00


-5.942615e-01
-2.364354e-01
-2.344376e-01
-2.741743e-01
-1.771932e-01
-1.985555e-01
-2.109636e-01
-1.795578e-01
-1.720691e-01
-1.874406e-01
-2.062172e-01
-1.895988e-01
-8.319722e-02
1.614294e-01
5.121569e-01
-6.542200e-01
5.488900e-01
4.096572e-01
3.309331e-01
2.700400e-01
3.046939e-01
2.790569e-01
2.592253e-01
2.664502e-01
2.698425e-01
2.799285e-01
3.208862e-01
4.234223e-01
6.059551e-01
8.172486e-01
7.426730e-01
-1.237807e+00
8.197169e-01
6.756730e-01
5.370740e-01
4.797636e-01
4.688888e-01
4.428047e-01
4.284105e-01
4.286941e-01
4.351452e-01
4.548185e-01
4.946279e-01
5.489760e-01
5.701590e-01
4.575827e-01
1.729494e-01
-3.243140e-01
8.726621e-01
7.454233e-01
5.965702e-01
5.143440e-01
4.776345e-01
4.570711e-01
4.491041e-01
4.496007e-01
4.492546e-01
4.388322e-01
4.088323e-01
3.415254e-01
2.035323e-01
1.777650e-02
-6.112256e-03
8.082615e-02
8.735380e-01
7.464293e-01
5.973775e-01
5.137116e-01
4.736723e-01
4.463559e-01
4.273801e-01
4.110149e-01
3.826260e-01
3.281410e-01
2.421127e-01
1.290713e-01
1.327868e-02
-7.761850e-03
1.816648e-01
5.070023e-01
8.218512e-01
6.781423e-01
5.392090e-01
4.795834e-01
4.624575e-01
4.231278e-01
3.868738e-01
3.520957e-01
2.963673e-01
2.184806e-01
1.374167e-01
8.396188e-02
1.021837e-01
2.501034e-01
5.279222e-01
8.311181e-01
5.506797e-01
4.112700e-01
3.320983e-01
2.710395e-01
3.027627e-01
2.696264e-01
2.397960e-01
2.292907e-01
1.907901e-01
1.391147e-01
1.311899e-01
2.058189e-01
3.621995e-01
5.841776e-01
8.178021e-01
9.699410e-01
-5.951483e-01
-2.387264e-01
-2.372122e-01
-2.747503e-01
-1.760843e-01
-1.961164e-01
-1.976615e-01
-1.498768e-01
-1.333285e-01
-1.068876e-01
3.449271e-02
3.126564e-01
6.245989e-01
8.567669e-01
9.714762e-01
9.994269e-01
1 2 19 18
2 3 20 19
3 4 21 20
4 5 22 21
5 6 23 22
6 7 24 23
7 8 25 24
8 9 26 25
9 10 27 26
10 11 28 27
11 12 29 28
12 13 30 29
13 14 31 30
14 15 32 31
15 16 33 32
16 17 34 33
18 19 36 35
19 20 37 36
20 21 38 37
21 22 39 38
22 23 40 39
23 24 41 40
24 25 42 41
25 26 43 42
26 27 44 43
27 28 45 44
28 29 46 45
29 30 47 46
30 31 48 47
31 32 49 48
32 33 50 49
33 34 51 50
35 36 53 52
36 37 54 53
37 38 55 54
38 39 56 55
39 40 57 56
40 41 58 57
41 42 59 58
42 43 60 59
43 44 61 60
44 45 62 61
45 46 63 62
46 47 64 63
47 48 65 64
48 49 66 65
49 50 67 66
50 51 68 67
52 53 70 69
53 54 71 70
54 55 72 71
55 56 73 72
56 57 74 73
57 58 75 74
58 59 76 75
59 60 77 76
60 61 78 77
61 62 79 78
62 63 80 79
63 64 81 80
64 65 82 81
65 66 83 82
66 67 84 83
67 68 85 84
69 70 87 86
70 71 88 87
71 72 89 88
72 73 90 89
73 74 91 90
74 75 92 91
75 76 93 92
76 77 94 93
77 78 95 94
78 79 96 95
79 80 97 96
80 81 98 97
81 82 99 98
82 83 100 99
83 84 101 100
84 85 102 101
86 87 104 103
87 88 105 104
88 89 106 105
89 90 107 106
90 91 108 107
91 92 109 108
92 93 110 109
93 94 111 110
94 95 112 111
95 96 113 112
96 97 114 113
97 98 115 114
98 99 116 115
99 100 117 116
100 101 118 117
101 102 119 118
103 104 121 120
104 105 122 121
105 106 123 122
106 107 124 123
107 108 125 124
108 109 126 125
109 110 127 126
110 111 128 127
111 112 129 128
112 113 130 129
113 114 131 130
114 115 132 131
115 116 133 132
116 117 134 133
117 118 135 134
118 119 136 135
120 121 138 137
121 122 139 138
122 123 140 139
123 124 141 140
124 125 142 141
125 126 143 142
126 127 144 143
127 128 145 144
128 129 146 145
129 130 147 146
130 131 148 147
131 132 149 148
132 133 150 149
133 134 151 150
134 135 152 151
135 136 153 152
