TITLE = "Solution"
VARIABLES = x, y, u, v, psiu, psiv, t, stress
ZONE T="structure" N=153 E=128 F=FEBLOCK ET=QUADRILATERAL VARLOCATION=([7,8]=cellcentered)
0.000000e+00
1.250000e+01
2.500000e+01
3.750000e+01
5.000000e+01
6.250000e+01
7.500000e+01
8.750000e+01
1.000000e+02
1.125000e+02
1.250000e+02
1.375000e+02
1.500000e+02
1.625000e+02
1.750000e+02
1.875000e+02
2.000000e+02
0.000000e+00
1.250000e+01
2.500000e+01
3.750000e+01
5.000000e+01
6.250000e+01
7.500000e+01
8.750000e+01
1.000000e+02
1.125000e+02
1.250000e+02
1.375000e+02
1.500000e+02
1.625000e+02
1.750000e+02
1.875000e+02
2.000000e+02
0.000000e+00
1.250000e+01
2.500000e+01
3.750000e+01
5.000000e+01
6.250000e+01
7.500000e+01
8.750000e+01
1.000000e+02
1.125000e+02
1.250000e+02
1.375000e+02
1.500000e+02
1.625000e+02
1.750000e+02
1.875000e+02
2.000000e+02
0.000000e+00
1.250000e+01
2.500000e+01
3.750000e+01
5.000000e+01
6.250000e+01
7.500000e+01
8.750000e+01
1.000000e+02
1.125000e+02
1.250000e+02
1.375000e+02
1.500000e+02
1.625000e+02
1.750000e+02
1.875000e+02
2.000000e+02
0.000000e+00
1.250000e+01
2.500000e+01
3.750000e+01
5.000000e+01
6.250000e+01
7.500000e+01
8.750000e+01
1.000000e+02
1.125000e+02
1.250000e+02
1.375000e+02
1.500000e+02
1.625000e+02
1.750000e+02
1.875000e+02
2.000000e+02
0.000000e+00
1.250000e+01
2.500000e+01
3.750000e+01
5.000000e+01
6.250000e+01
7.500000e+01
8.750000e+01
1.000000e+02
1.125000e+02
1.250000e+02
1.375000e+02
1.500000e+02
1.625000e+02
1.750000e+02
1.875000e+02
2.000000e+02
0.000000e+00
1.250000e+01
2.500000e+01
3.750000e+01
5.000000e+01
6.250000e+01
7.500000e+01
8.750000e+01
1.000000e+02
1.125000e+02
1.250000e+02
1.375000e+02
1.500000e+02
1.625000e+02
1.750000e+02
1.875000e+02
2.000000e+02
0.000000e+00
1.250000e+01
2.500000e+01
3.750000e+01
5.000000e+01
6.250000e+01
7.500000e+01
8.750000e+01
1.000000e+02
1.125000e+02
1.250000e+02
1.375000e+02
1.500000e+02
1.625000e+02
1.750000e+02
1.875000e+02
2.000000e+02
0.000000e+00
1.250000e+01
2.500000e+01
3.750000e+01
5.000000e+01
6.250000e+01
7.500000e+01
8.750000e+01
1.000000e+02
1.125000e+02
1.250000e+02
1.375000e+02
1.500000e+02
1.625000e+02
1.750000e+02
1.875000e+02
2.000000e+02
0.000000e+00
0.000000e+00
0.000000e+00
0.000000e+00
0.000000e+00
0.000000e+00
0.000000e+00
0.000000e+00
0.000000e+00
0.000000e+00
0.000000e+00
0.000000e+00
0.000000e+00
0.000000e+00
0.000000e+00
0.000000e+00
0.000000e+00
1.250000e+01
1.250000e+01
1.250000e+01
1.250000e+01
1.250000e+01
1.250000e+01
1.250000e+01
1.250000e+01
1.250000e+01
1.250000e+01
1.250000e+01
1.250000e+01
1.250000e+01
1.250000e+01
1.250000e+01
1.250000e+01
1.250000e+01
2.500000e+01
2.500000e+01
2.500000e+01
2.500000e+01
2.500000e+01
2.500000e+01
2.500000e+01
2.500000e+01
2.500000e+01
2.500000e+01
2.500000e+01
2.500000e+01
2.500000e+01
2.500000e+01
2.500000e+01
2.500000e+01
2.500000e+01
3.750000e+01
3.750000e+01
3.750000e+01
3.750000e+01
3.750000e+01
3.750000e+01
3.750000e+01
3.750000e+01
3.750000e+01
3.750000e+01
3.750000e+01
3.750000e+01
3.750000e+01
3.750000e+01
3.750000e+01
3.750000e+01
3.750000e+01
5.000000e+01
5.000000e+01
5.000000e+01
5.000000e+01
5.000000e+01
5.000000e+01
5.000000e+01
5.000000e+01
5.000000e+01
5.000000e+01
5.000000e+01
5.000000e+01
5.000000e+01
5.000000e+01
5.000000e+01
5.000000e+01
5.000000e+01
6.250000e+01
6.250000e+01
6.250000e+01
6.250000e+01
6.250000e+01
6.250000e+01
6.250000e+01
6.250000e+01
6.250000e+01
6.250000e+01
6.250000e+01
6.250000e+01
6.250000e+01
6.250000e+01
6.250000e+01
6.250000e+01
6.250000e+01
7.500000e+01
7.500000e+01
7.500000e+01
7.500000e+01
7.500000e+01
7.500000e+01
7.500000e+01
7.500000e+01
7.500000e+01
7.500000e+01
7.500000e+01
7.500000e+01
7.500000e+01
7.500000e+01
7.500000e+01
7.500000e+01
7.500000e+01
8.750000e+01
8.750000e+01
8.750000e+01
8.750000e+01
8.750000e+01
8.750000e+01
8.750000e+01
8.750000e+01
8.750000e+01
8.750000e+01
8.750000e+01
8.750000e+01
8.750000e+01
8.750000e+01
8.750000e+01
8.750000e+01
8.750000e+01
1.000000e+02
1.000000e+02
1.000000e+02
1.000000e+02
1.000000e+02
1.000000e+02
1.000000e+02
1.000000e+02
1.000000e+02
1.000000e+02
1.000000e+02
1.000000e+02
1.000000e+02
1.000000e+02
1.000000e+02
1.000000e+02
1.000000e+02
0.000000e+00
-7.074758e-02
-1.302687e-01
-1.850359e-01
-2.360394e-01
-2.831717e-01
-3.263316e-01
-3.654857e-01
-4.006909e-01
-4.321094e-01
-4.600527e-01
-4.850669e-01
-5.080916e-01
-5.307498e-01
-5.558408e-01
-5.866558e-01
-6.097790e-01
0.000000e+00
-4.224921e-02
-8.776450e-02
-1.297950e-01
-1.685179e-01
-2.040806e-01
-2.365568e-01
-2.659900e-01
-2.924332e-01
-3.159679e-01
-3.367136e-01
-3.548199e-01
-3.704022e-01
-3.833001e-01
-3.923977e-01
-3.943917e-01
-4.015409e-01
0.000000e+00
-2.642145e-02
-5.432911e-02
-8.217113e-02
-1.081608e-01
-1.320229e-01
-1.537381e-01
-1.733310e-01
-1.908065e-01
-2.061353e-01
-2.192350e-01
-2.299226e-01
-2.378171e-01
-2.422240e-01
-2.423463e-01
-2.405858e-01
-2.478774e-01
0.000000e+00
-1.275263e-02
-2.625299e-02
-3.983861e-02
-5.282891e-02
-6.479378e-02
-7.563875e-02
-8.533224e-02
-9.381876e-02
-1.009879e-01
-1.066564e-01
-1.105567e-01
-1.123696e-01
-1.119461e-01
-1.102060e-01
-1.106819e-01
-1.161112e-01
0.000000e+00
-1.174753e-05
-2.670583e-05
-4.161500e-05
-4.952756e-05
-3.495089e-05
3.286585e-05
2.091013e-04
5.842833e-04
1.293258e-03
2.511953e-03
4.417099e-03
7.056451e-03
1.003905e-02
1.209934e-02
1.153427e-02
7.939580e-03
0.000000e+00
1.273455e-02
2.621103e-02
3.977149e-02
5.274542e-02
6.472587e-02
7.566509e-02
8.561659e-02
9.466665e-02
1.029202e-01
1.104852e-01
1.174176e-01
1.235969e-01
1.285520e-01
1.314669e-01
1.316981e-01
1.298735e-01
0.000000e+00
2.641849e-02
5.432007e-02
8.215314e-02
1.081327e-01
1.319879e-01
1.537091e-01
1.733405e-01
1.909226e-01
2.064868e-01
2.200467e-01
2.315690e-01
2.409214e-01
2.478359e-01
2.519861e-01
2.533337e-01
2.529082e-01
0.000000e+00
4.226654e-02
8.780219e-02
1.298551e-01
1.685985e-01
2.041669e-01
2.366052e-01
2.659015e-01
2.920111e-01
3.148586e-01
3.343358e-01
3.503078e-01
3.626469e-01
3.713124e-01
3.764815e-01
3.786859e-01
3.790907e-01
0.000000e+00
7.077656e-02
1.303452e-01
1.851791e-01
2.362682e-01
2.834935e-01
3.267154e-01
3.658084e-01
4.006418e-01
4.310343e-01
4.567227e-01
4.773643e-01
4.926201e-01
5.023702e-01
5.070855e-01
5.082494e-01
5.082269e-01
0.000000e+00
-4.282546e-02
-8.407134e-02
-1.375164e-01
-2.031091e-01
-2.807268e-01
-3.695195e-01
-4.684933e-01
-5.765960e-01
-6.927889e-01
-8.161129e-01
-9.458044e-01
-1.081551e+00
-1.224077e+00
-1.377080e+00
-1.552143e+00
-1.803678e+00
0.000000e+00
-2.636413e-02
-6.939036e-02
-1.234982e-01
-1.901629e-01
-2.688399e-01
-3.587082e-01
-4.587499e-01
-5.679003e-01
-6.851022e-01
-8.093697e-01
-9.399044e-01
-1.076345e+00
-1.219398e+00
-1.372341e+00
-1.546342e+00
-1.759512e+00
0.000000e+00
-1.989407e-02
-5.921277e-02
-1.135203e-01
-1.808153e-01
-2.603021e-01
-3.509965e-01
-4.518706e-01
-5.618670e-01
-6.799436e-01
-8.051336e-01
-9.366659e-01
-1.074214e+00
-1.218366e+00
-1.371441e+00
-1.536313e+00
-1.695875e+00
0.000000e+00
-1.714329e-02
-5.415252e-02
-1.076635e-01
-1.752019e-01
-2.551779e-01
-3.464377e-01
-4.479144e-01
-5.585704e-01
-6.773918e-01
-8.034327e-01
-9.359071e-01
-1.074333e+00
-1.218645e+00
-1.368657e+00
-1.520152e+00
-1.659713e+00
0.000000e+00
-1.635084e-02
-5.262106e-02
-1.057952e-01
-1.733519e-01
-2.535270e-01
-3.450492e-01
-4.468525e-01
-5.579192e-01
-6.772519e-01
-8.038836e-01
-9.369040e-01
-1.075453e+00
-1.218509e+00
-1.363931e+00
-1.506745e+00
-1.638312e+00
0.000000e+00
-1.713312e-02
-5.414528e-02
-1.076764e-01
-1.752652e-01
-2.553447e-01
-3.467945e-01
-4.485900e-01
-5.597352e-01
-6.792277e-01
-8.060381e-01
-9.390646e-01
-1.077021e+00
-1.218150e+00
-1.359743e+00
-1.497660e+00
-1.626419e+00
0.000000e+00
-1.987748e-02
-5.920077e-02
-1.135418e-01
-1.809220e-01
-2.605843e-01
-3.516013e-01
-4.530178e-01
-5.638476e-01
-6.830711e-01
-8.095895e-01
-9.421318e-01
-1.079101e+00
-1.218382e+00
-1.357229e+00
-1.492499e+00
-1.621173e+00
0.000000e+00
-2.634857e-02
-6.937991e-02
-1.235267e-01
-1.902910e-01
-2.691716e-01
-3.594122e-01
-4.600759e-01
-5.701754e-01
-6.886726e-01
-8.144236e-01
-9.460667e-01
-1.081869e+00
-1.219599e+00
-1.356600e+00
-1.490366e+00
-1.619941e+00
0.000000e+00
-4.281903e-02
-8.407224e-02
-1.375606e-01
-2.032576e-01
-2.810814e-01
-3.702399e-01
-4.698077e-01
-5.787873e-01
-6.961223e-01
-8.206411e-01
-9.509520e-01
-1.085310e+00
-1.221533e+00
-1.357135e+00
-1.489975e+00
-1.619961e+00


0.000000e+00
1.986357e-11
4.108076e-11
5.987846e-11
7.576124e-11
8.866465e-11
9.882913e-11
1.066208e-10
1.124505e-10
1.166975e-10
1.197234e-10
1.218469e-10
1.233610e-10
1.245374e-10
1.256313e-10
1.269794e-10
1.285967e-10
0.000000e+00
1.350889e-11
3.183587e-11
4.677030e-11
5.875218e-11
6.822316e-11
7.553347e-11
8.104690e-11
8.509416e-11
8.797500e-11
8.995197e-11
9.123543e-11
9.199402e-11
9.236757e-11
9.274619e-11
9.384890e-11
9.551404e-11
0.000000e+00
1.005804e-11
2.211338e-11
3.218766e-11
4.028538e-11
4.653746e-11
5.124879e-11
5.470918e-11
5.718002e-11
5.886605e-11
5.994536e-11
6.055606e-11
6.082859e-11
6.093358e-11
6.119947e-11
6.206302e-11
6.341085e-11
0.000000e+00
5.383415e-12
1.103057e-11
1.606990e-11
2.019356e-11
2.334620e-11
2.567517e-11
2.734669e-11
2.850106e-11
2.924771e-11
2.968126e-11
2.988852e-11
2.997267e-11
3.006581e-11
3.029868e-11
3.082393e-11
3.165446e-11
0.000000e+00
-4.971046e-15
-1.366711e-14
-2.553288e-14
-4.232413e-14
-6.721952e-14
-1.002137e-13
-1.488039e-13
-2.131740e-13
-2.946294e-13
-3.877912e-13
-4.681809e-13
-5.017833e-13
-4.476611e-13
-3.049063e-13
-5.198355e-14
3.805132e-13
0.000000e+00
-5.396125e-12
-1.105597e-11
-1.611454e-11
-2.026253e-11
-2.345154e-11
-2.583364e-11
-2.757885e-11
-2.883314e-11
-2.970841e-11
-3.029166e-11
-3.065124e-11
-3.083615e-11
-3.089777e-11
-3.089474e-11
-3.083223e-11
-3.064645e-11
0.000000e+00
-1.006296e-11
-2.212853e-11
-3.221665e-11
-4.033278e-11
-4.660677e-11
-5.134170e-11
-5.482978e-11
-5.733287e-11
-5.905941e-11
-6.019703e-11
-6.089726e-11
-6.129886e-11
-6.151451e-11
-6.163048e-11
-6.167044e-11
-6.161811e-11
0.000000e+00
-1.351396e-11
-3.184782e-11
-4.679145e-11
-5.877865e-11
-6.825412e-11
-7.556422e-11
-8.106656e-11
-8.508826e-11
-8.792724e-11
-8.984847e-11
-9.108559e-11
-9.184244e-11
-9.228165e-11
-9.252457e-11
-9.263513e-11
-9.265020e-11
0.000000e+00
-1.987333e-11
-4.109819e-11
-5.989827e-11
-7.577951e-11
-8.867450e-11
-9.881290e-11
-1.065618e-10
-1.123200e-10
-1.164631e-10
-1.193484e-10
-1.212753e-10
-1.225084e-10
-1.232462e-10
-1.236348e-10
-1.237849e-10
-1.238082e-10
0.000000e+00
1.804350e-11
3.243292e-11
4.753671e-11
6.566892e-11
8.701709e-11
1.111436e-10
1.374836e-10
1.654969e-10
1.947335e-10
2.248529e-10
2.556258e-10
2.869513e-10
3.190459e-10
3.527640e-10
3.885502e-10
4.248018e-10
0.000000e+00
9.700730e-12
2.376217e-11
3.987790e-11
5.938867e-11
8.205717e-11
1.073496e-10
1.346569e-10
1.634468e-10
1.932968e-10
2.238806e-10
2.549906e-10
2.865400e-10
3.186240e-10
3.516595e-10
3.864494e-10
4.221097e-10
0.000000e+00
4.784148e-12
1.695431e-11
3.389806e-11
5.453033e-11
7.829260e-11
1.045123e-10
1.325744e-10
1.619682e-10
1.922896e-10
2.232370e-10
2.546147e-10
2.863189e-10
3.182935e-10
3.505786e-10
3.842161e-10
4.189200e-10
0.000000e+00
2.721130e-12
1.374102e-11
3.076269e-11
5.198222e-11
7.634458e-11
1.030683e-10
1.315327e-10
1.612452e-10
1.918188e-10
2.229610e-10
2.544696e-10
2.862082e-10
3.180312e-10
3.499076e-10
3.826290e-10
4.161235e-10
0.000000e+00
2.197688e-12
1.286407e-11
2.981442e-11
5.119841e-11
7.575273e-11
1.026379e-10
1.312319e-10
1.610522e-10
1.917104e-10
2.229172e-10
2.544547e-10
2.861605e-10
3.178900e-10
3.495921e-10
3.817201e-10
4.141338e-10
0.000000e+00
2.725800e-12
1.374740e-11
3.077195e-11
5.199392e-11
7.636203e-11
1.030961e-10
1.315779e-10
1.613174e-10
1.919200e-10
2.230830e-10
2.545738e-10
2.862209e-10
3.178868e-10
3.495192e-10
3.812814e-10
4.129877e-10
0.000000e+00
4.790598e-12
1.696420e-11
3.391487e-11
5.455073e-11
7.832777e-11
1.045693e-10
1.326647e-10
1.621113e-10
1.924880e-10
2.234821e-10
2.548422e-10
2.863847e-10
3.179767e-10
3.495411e-10
3.810864e-10
4.124520e-10
0.000000e+00
9.711937e-12
2.377881e-11
3.990662e-11
5.942237e-11
8.211037e-11
1.074298e-10
1.347783e-10
1.636275e-10
1.935426e-10
2.241825e-10
2.552809e-10
2.866407e-10
3.181094e-10
3.495905e-10
3.810122e-10
4.122730e-10
0.000000e+00
1.805739e-11
3.245694e-11
4.757287e-11
6.571554e-11
8.707937e-11
1.112309e-10
1.376065e-10
1.656676e-10
1.949571e-10
2.251173e-10
2.558623e-10
2.869730e-10
3.182819e-10
3.496610e-10
3.810073e-10
4.122444e-10


2.067184e-01
2.067184e-01
2.067184e-01
2.067184e-01
2.067184e-01
2.067184e-01
2.067184e-01
2.067184e-01
2.067184e-01
2.067184e-01
2.067184e-01
2.067184e-01
2.067184e-01
2.067184e-01
2.067184e-01
2.067184e-01
2.067184e-01
2.067184e-01
2.067184e-01
2.067184e-01
2.067184e-01
2.067184e-01
2.067184e-01
2.067184e-01
2.067184e-01
2.067184e-01
2.067184e-01
2.067184e-01
2.067184e-01
2.067184e-01
2.067184e-01
2.067184e-01
2.067184e-01
2.067184e-01
2.067184e-01
2.067184e-01
2.067184e-01
2.067184e-01
2.067184e-01
2.067184e-01
2.067184e-01
2.067184e-01
2.067184e-01
2.067184e-01
2.067184e-01
2.067184e-01
2.067184e-01
2.067184e-01
2.067184e-01
2.067184e-01
2.067184e-01
2.067184e-01
2.067184e-01
2.067184e-01
2.067184e-01
2.067184e-01
2.067184e-01
2.067184e-01
2.067184e-01
2.067184e-01
2.067184e-01
2.067184e-01
2.067184e-01
2.067184e-01
2.067184e-01
2.067184e-01
2.067184e-01
2.067184e-01
2.067184e-01
2.067184e-01
2.067184e-01
2.067184e-01
2.067184e-01
2.067184e-01
2.067184e-01
2.067184e-01
2.067184e-01
2.067184e-01
2.067184e-01
2.067184e-01
2.067184e-01
2.067184e-01
2.067184e-01
2.067184e-01
2.067184e-01
2.067184e-01
2.067184e-01
2.067184e-01
2.067184e-01
2.067184e-01
2.067184e-01
2.067184e-01
2.067184e-01
2.067184e-01
2.067184e-01
2.067184e-01
2.067184e-01
2.067184e-01
2.067184e-01
2.067184e-01
2.067184e-01
2.067184e-01
2.067184e-01
2.067184e-01
2.067184e-01
2.067184e-01
2.067184e-01
2.067184e-01
2.067184e-01
2.067184e-01
2.067184e-01
2.067184e-01
2.067184e-01
2.067184e-01
2.067184e-01
2.067184e-01
2.067184e-01
2.067184e-01
2.067184e-01
2.067184e-01
2.067184e-01
2.067184e-01
2.067184e-01
2.067184e-01
2.067184e-01
2.067184e-01
2.067184e-01
2.067184e-01


9.887391e-01
9.903360e-01
9.918132e-01
9.929504e-01
9.940059e-01
9.949792e-01
9.958660e-01
9.966557e-01
9.973403e-01
9.979128e-01
9.983680e-01
9.987015e-01
9.989088e-01
9.989827e-01
9.990361e-01
9.957452e-01
9.957398e-01
9.950080e-01
9.954788e-01
9.960933e-01
9.966662e-01
9.971869e-01
9.976583e-01
9.980852e-01
9.984717e-01
9.988219e-01
9.991396e-01
9.994273e-01
9.996782e-01
9.998426e-01
9.994270e-01
9.937936e-01
9.985198e-01
9.980995e-01
9.979860e-01
9.981456e-01
9.983556e-01
9.985589e-01
9.987478e-01
9.989262e-01
9.990990e-01
9.992675e-01
9.994249e-01
9.995467e-01
9.995721e-01
9.993527e-01
9.985567e-01
9.971251e-01
9.996987e-01
9.993922e-01
9.992028e-01
9.991548e-01
9.991740e-01
9.992062e-01
9.992383e-01
9.992697e-01
9.993006e-01
9.993264e-01
9.993335e-01
9.992952e-01
9.991735e-01
9.989550e-01
9.987698e-01
9.987229e-01
9.996999e-01
9.993938e-01
9.992043e-01
9.991545e-01
9.991692e-01
9.991924e-01
9.992085e-01
9.992140e-01
9.992066e-01
9.991828e-01
9.991386e-01
9.990750e-01
9.990143e-01
9.990264e-01
9.991978e-01
9.994946e-01
9.985219e-01
9.981027e-01
9.979891e-01
9.981456e-01
9.983474e-01
9.985338e-01
9.986914e-01
9.988182e-01
9.989131e-01
9.989770e-01
9.990174e-01
9.990569e-01
9.991399e-01
9.993139e-01
9.995753e-01
9.998455e-01
9.957394e-01
9.950077e-01
9.954782e-01
9.960915e-01
9.966617e-01
9.971767e-01
9.976370e-01
9.980447e-01
9.983998e-01
9.987035e-01
9.989605e-01
9.991850e-01
9.994011e-01
9.996278e-01
9.998397e-01
9.999732e-01
9.887314e-01
9.903240e-01
9.917985e-01
9.929338e-01
9.939911e-01
9.949738e-01
9.958843e-01
9.967203e-01
9.974820e-01
9.981680e-01
9.987700e-01
9.992695e-01
9.996411e-01
9.998703e-01
9.999746e-01
9.999995e-01
1 2 19 18
2 3 20 19
3 4 21 20
4 5 22 21
5 6 23 22
6 7 24 23
7 8 25 24
8 9 26 25
9 10 27 26
10 11 28 27
11 12 29 28
12 13 30 29
13 14 31 30
14 15 32 31
15 16 33 32
16 17 34 33
18 19 36 35
19 20 37 36
20 21 38 37
21 22 39 38
22 23 40 39
23 24 41 40
24 25 42 41
25 26 43 42
26 27 44 43
27 28 45 44
28 29 46 45
29 30 47 46
30 31 48 47
31 32 49 48
32 33 50 49
33 34 51 50
35 36 53 52
36 37 54 53
37 38 55 54
38 39 56 55
39 40 57 56
40 41 58 57
41 42 59 58
42 43 60 59
43 44 61 60
44 45 62 61
45 46 63 62
46 47 64 63
47 48 65 64
48 49 66 65
49 50 67 66
50 51 68 67
52 53 70 69
53 54 71 70
54 55 72 71
55 56 73 72
56 57 74 73
57 58 75 74
58 59 76 75
59 60 77 76
60 61 78 77
61 62 79 78
62 63 80 79
63 64 81 80
64 65 82 81
65 66 83 82
66 67 84 83
67 68 85 84
69 70 87 86
70 71 88 87
71 72 89 88
72 73 90 89
73 74 91 90
74 75 92 91
75 76 93 92
76 77 94 93
77 78 95 94
78 79 96 95
79 80 97 96
80 81 98 97
81 82 99 98
82 83 100 99
83 84 101 100
84 85 102 101
86 87 104 103
87 88 105 104
88 89 106 105
89 90 107 106
90 91 108 107
91 92 109 108
92 93 110 109
93 94 111 110
94 95 112 111
95 96 113 112
96 97 114 113
97 98 115 114
98 99 116 115
99 100 117 116
100 101 118 117
101 102 119 118
103 104 121 120
104 105 122 121
105 106 123 122
106 107 124 123
107 108 125 124
108 109 126 125
109 110 127 126
110 111 128 127
111 112 129 128
112 113 130 129
113 114 131 130
114 115 132 131
115 116 133 132
116 117 134 133
117 118 135 134
118 119 136 135
120 121 138 137
121 122 139 138
122 123 140 139
123 124 141 140
124 125 142 141
125 126 143 142
126 127 144 143
127 128 145 144
128 129 146 145
129 130 147 146
130 131 148 147
131 132 149 148
132 133 150 149
133 134 151 150
134 135 152 151
135 136 153 152
