TITLE = "Solution"
VARIABLES = x, y, u, v, psiu, psiv, t, stress
ZONE T="structure" N=153 E=128 F=FEBLOCK ET=QUADRILATERAL VARLOCATION=([7,8]=cellcentered)
0.000000e+00
1.250000e+01
2.500000e+01
3.750000e+01
5.000000e+01
6.250000e+01
7.500000e+01
8.750000e+01
1.000000e+02
1.125000e+02
1.250000e+02
1.375000e+02
1.500000e+02
1.625000e+02
1.750000e+02
1.875000e+02
2.000000e+02
0.000000e+00
1.250000e+01
2.500000e+01
3.750000e+01
5.000000e+01
6.250000e+01
7.500000e+01
8.750000e+01
1.000000e+02
1.125000e+02
1.250000e+02
1.375000e+02
1.500000e+02
1.625000e+02
1.750000e+02
1.875000e+02
2.000000e+02
0.000000e+00
1.250000e+01
2.500000e+01
3.750000e+01
5.000000e+01
6.250000e+01
7.500000e+01
8.750000e+01
1.000000e+02
1.125000e+02
1.250000e+02
1.375000e+02
1.500000e+02
1.625000e+02
1.750000e+02
1.875000e+02
2.000000e+02
0.000000e+00
1.250000e+01
2.500000e+01
3.750000e+01
5.000000e+01
6.250000e+01
7.500000e+01
8.750000e+01
1.000000e+02
1.125000e+02
1.250000e+02
1.375000e+02
1.500000e+02
1.625000e+02
1.750000e+02
1.875000e+02
2.000000e+02
0.000000e+00
1.250000e+01
2.500000e+01
3.750000e+01
5.000000e+01
6.250000e+01
7.500000e+01
8.750000e+01
1.000000e+02
1.125000e+02
1.250000e+02
1.375000e+02
1.500000e+02
1.625000e+02
1.750000e+02
1.875000e+02
2.000000e+02
0.000000e+00
1.250000e+01
2.500000e+01
3.750000e+01
5.000000e+01
6.250000e+01
7.500000e+01
8.750000e+01
1.000000e+02
1.125000e+02
1.250000e+02
1.375000e+02
1.500000e+02
1.625000e+02
1.750000e+02
1.875000e+02
2.000000e+02
0.000000e+00
1.250000e+01
2.500000e+01
3.750000e+01
5.000000e+01
6.250000e+01
7.500000e+01
8.750000e+01
1.000000e+02
1.125000e+02
1.250000e+02
1.375000e+02
1.500000e+02
1.625000e+02
1.750000e+02
1.875000e+02
2.000000e+02
0.000000e+00
1.250000e+01
2.500000e+01
3.750000e+01
5.000000e+01
6.250000e+01
7.500000e+01
8.750000e+01
1.000000e+02
1.125000e+02
1.250000e+02
1.375000e+02
1.500000e+02
1.625000e+02
1.750000e+02
1.875000e+02
2.000000e+02
0.000000e+00
1.250000e+01
2.500000e+01
3.750000e+01
5.000000e+01
6.250000e+01
7.500000e+01
8.750000e+01
1.000000e+02
1.125000e+02
1.250000e+02
1.375000e+02
1.500000e+02
1.625000e+02
1.750000e+02
1.875000e+02
2.000000e+02
0.000000e+00
0.000000e+00
0.000000e+00
0.000000e+00
0.000000e+00
0.000000e+00
0.000000e+00
0.000000e+00
0.000000e+00
0.000000e+00
0.000000e+00
0.000000e+00
0.000000e+00
0.000000e+00
0.000000e+00
0.000000e+00
0.000000e+00
1.250000e+01
1.250000e+01
1.250000e+01
1.250000e+01
1.250000e+01
1.250000e+01
1.250000e+01
1.250000e+01
1.250000e+01
1.250000e+01
1.250000e+01
1.250000e+01
1.250000e+01
1.250000e+01
1.250000e+01
1.250000e+01
1.250000e+01
2.500000e+01
2.500000e+01
2.500000e+01
2.500000e+01
2.500000e+01
2.500000e+01
2.500000e+01
2.500000e+01
2.500000e+01
2.500000e+01
2.500000e+01
2.500000e+01
2.500000e+01
2.500000e+01
2.500000e+01
2.500000e+01
2.500000e+01
3.750000e+01
3.750000e+01
3.750000e+01
3.750000e+01
3.750000e+01
3.750000e+01
3.750000e+01
3.750000e+01
3.750000e+01
3.750000e+01
3.750000e+01
3.750000e+01
3.750000e+01
3.750000e+01
3.750000e+01
3.750000e+01
3.750000e+01
5.000000e+01
5.000000e+01
5.000000e+01
5.000000e+01
5.000000e+01
5.000000e+01
5.000000e+01
5.000000e+01
5.000000e+01
5.000000e+01
5.000000e+01
5.000000e+01
5.000000e+01
5.000000e+01
5.000000e+01
5.000000e+01
5.000000e+01
6.250000e+01
6.250000e+01
6.250000e+01
6.250000e+01
6.250000e+01
6.250000e+01
6.250000e+01
6.250000e+01
6.250000e+01
6.250000e+01
6.250000e+01
6.250000e+01
6.250000e+01
6.250000e+01
6.250000e+01
6.250000e+01
6.250000e+01
7.500000e+01
7.500000e+01
7.500000e+01
7.500000e+01
7.500000e+01
7.500000e+01
7.500000e+01
7.500000e+01
7.500000e+01
7.500000e+01
7.500000e+01
7.500000e+01
7.500000e+01
7.500000e+01
7.500000e+01
7.500000e+01
7.500000e+01
8.750000e+01
8.750000e+01
8.750000e+01
8.750000e+01
8.750000e+01
8.750000e+01
8.750000e+01
8.750000e+01
8.750000e+01
8.750000e+01
8.750000e+01
8.750000e+01
8.750000e+01
8.750000e+01
8.750000e+01
8.750000e+01
8.750000e+01
1.000000e+02
1.000000e+02
1.000000e+02
1.000000e+02
1.000000e+02
1.000000e+02
1.000000e+02
1.000000e+02
1.000000e+02
1.000000e+02
1.000000e+02
1.000000e+02
1.000000e+02
1.000000e+02
1.000000e+02
1.000000e+02
1.000000e+02
0.000000e+00
-8.767864e-01
-1.564654e+00
-2.243943e+00
-2.930694e+00
-3.592521e+00
-4.256672e+00
-4.923715e+00
-5.583117e+00
-6.240690e+00
-6.903450e+00
-7.568976e+00
-8.228839e+00
-8.881967e+00
-9.533820e+00
-1.018472e+01
-1.061961e+01
0.000000e+00
-4.572310e-01
-9.499750e-01
-1.448144e+00
-1.962063e+00
-2.457714e+00
-2.954281e+00
-3.453540e+00
-3.946398e+00
-4.435359e+00
-4.923284e+00
-5.403317e+00
-5.858029e+00
-6.256833e+00
-6.531017e+00
-6.596108e+00
-6.749224e+00
0.000000e+00
-2.331787e-01
-5.006107e-01
-8.168738e-01
-1.154230e+00
-1.487210e+00
-1.823883e+00
-2.161168e+00
-2.492940e+00
-2.817328e+00
-3.128769e+00
-3.413349e+00
-3.647734e+00
-3.797856e+00
-3.827132e+00
-3.798337e+00
-3.951096e+00
0.000000e+00
-9.914895e-02
-2.155363e-01
-3.628326e-01
-5.241003e-01
-6.919616e-01
-8.624634e-01
-1.031095e+00
-1.194297e+00
-1.346980e+00
-1.480113e+00
-1.580090e+00
-1.630254e+00
-1.618081e+00
-1.564321e+00
-1.567455e+00
-1.695060e+00
0.000000e+00
-9.505172e-04
-1.918536e-03
-2.726232e-03
-3.065406e-03
-2.404145e-03
2.008105e-04
6.256487e-03
1.810890e-02
3.958283e-02
7.640879e-02
1.351284e-01
2.191262e-01
3.188775e-01
3.954357e-01
3.938409e-01
2.977819e-01
0.000000e+00
9.753510e-02
2.122918e-01
3.581210e-01
5.185924e-01
6.872453e-01
8.616613e-01
1.039772e+00
1.221938e+00
1.409276e+00
1.601458e+00
1.795059e+00
1.980995e+00
2.139611e+00
2.239659e+00
2.255230e+00
2.202538e+00
0.000000e+00
2.323392e-01
4.988931e-01
8.141948e-01
1.150594e+00
1.483229e+00
1.820721e+00
2.160640e+00
2.498959e+00
2.836950e+00
3.170278e+00
3.484631e+00
3.759798e+00
3.973890e+00
4.106897e+00
4.151836e+00
4.139601e+00
0.000000e+00
4.572333e-01
9.499834e-01
1.447960e+00
1.961232e+00
2.456005e+00
2.950878e+00
3.446121e+00
3.932849e+00
4.413421e+00
4.881694e+00
5.311763e+00
5.670638e+00
5.934472e+00
6.095672e+00
6.165090e+00
6.177995e+00
0.000000e+00
8.774174e-01
1.566281e+00
2.246651e+00
2.934225e+00
3.596702e+00
4.260397e+00
4.923545e+00
5.574954e+00
6.217333e+00
6.838073e+00
7.395167e+00
7.837729e+00
8.132005e+00
8.276482e+00
8.311577e+00
8.310445e+00
0.000000e+00
-5.432063e-01
-1.142873e+00
-1.938707e+00
-2.903630e+00
-4.035468e+00
-5.343882e+00
-6.826346e+00
-8.480937e+00
-1.031022e+01
-1.231503e+01
-1.449325e+01
-1.684356e+01
-1.937328e+01
-2.213684e+01
-2.534608e+01
-3.006427e+01
0.000000e+00
-3.476263e-01
-9.748829e-01
-1.760724e+00
-2.727993e+00
-3.862369e+00
-5.169744e+00
-6.653244e+00
-8.309921e+00
-1.014004e+01
-1.214597e+01
-1.432845e+01
-1.668804e+01
-1.923782e+01
-2.202832e+01
-2.524208e+01
-2.916664e+01
0.000000e+00
-2.941942e-01
-8.669787e-01
-1.644368e+00
-2.606064e+00
-3.739430e+00
-5.047209e+00
-6.532335e+00
-8.192312e+00
-1.002774e+01
-1.204220e+01
-1.423817e+01
-1.661899e+01
-1.920131e+01
-2.201597e+01
-2.505726e+01
-2.792937e+01
0.000000e+00
-3.010680e-01
-8.327530e-01
-1.587749e+00
-2.538075e+00
-3.668184e+00
-4.977104e+00
-6.464953e+00
-8.130637e+00
-9.976225e+00
-1.200559e+01
-1.422034e+01
-1.662037e+01
-1.920782e+01
-2.195916e+01
-2.472037e+01
-2.714896e+01
0.000000e+00
-3.082318e-01
-8.293446e-01
-1.573568e+00
-2.518408e+00
-3.647834e+00
-4.959078e+00
-6.450894e+00
-8.123209e+00
-9.979367e+00
-1.202289e+01
-1.425152e+01
-1.665432e+01
-1.920695e+01
-2.183775e+01
-2.438495e+01
-2.659206e+01
0.000000e+00
-3.009116e-01
-8.331554e-01
-1.589489e+00
-2.542092e+00
-3.675906e+00
-4.990624e+00
-6.486658e+00
-8.163745e+00
-1.002610e+01
-1.207731e+01
-1.430992e+01
-1.669939e+01
-1.919774e+01
-2.171790e+01
-2.412433e+01
-2.624261e+01
0.000000e+00
-2.939426e-01
-8.676074e-01
-1.647106e+00
-2.612478e+00
-3.751879e+00
-5.069163e+00
-6.567841e+00
-8.246808e+00
-1.011032e+01
-1.216187e+01
-1.438937e+01
-1.675716e+01
-1.920380e+01
-2.164136e+01
-2.396644e+01
-2.608221e+01
0.000000e+00
-3.473928e-01
-9.755717e-01
-1.763693e+00
-2.735088e+00
-3.876246e+00
-5.194188e+00
-6.692956e+00
-8.371378e+00
-1.023317e+01
-1.227959e+01
-1.449431e+01
-1.683620e+01
-1.923981e+01
-2.162121e+01
-2.389958e+01
-2.604499e+01
0.000000e+00
-5.431615e-01
-1.143751e+00
-1.941841e+00
-2.910901e+00
-4.049533e+00
-5.368142e+00
-6.865306e+00
-8.541251e+00
-1.040006e+01
-1.243703e+01
-1.463009e+01
-1.693769e+01
-1.929865e+01
-2.163741e+01
-2.388712e+01
-2.604603e+01


0.000000e+00
1.271226e-05
2.340667e-05
3.447382e-05
4.737687e-05
5.991749e-05
7.168110e-05
8.329097e-05
9.454099e-05
1.050911e-04
1.145272e-04
1.220510e-04
1.273110e-04
1.309848e-04
1.338466e-04
1.369830e-04
1.406269e-04
0.000000e+00
9.376729e-06
1.890692e-05
2.711607e-05
3.722871e-05
4.692786e-05
5.564407e-05
6.425128e-05
7.269545e-05
8.046947e-05
8.714624e-05
9.199030e-05
9.453379e-05
9.507971e-05
9.521310e-05
9.777419e-05
1.020233e-04
0.000000e+00
7.326488e-06
1.391828e-05
1.954433e-05
2.637701e-05
3.272494e-05
3.845743e-05
4.405613e-05
4.938019e-05
5.405111e-05
5.778579e-05
6.019008e-05
6.109565e-05
6.094824e-05
6.110029e-05
6.357904e-05
6.778464e-05
0.000000e+00
3.749478e-06
6.556078e-06
9.953787e-06
1.314455e-05
1.614062e-05
1.902501e-05
2.175282e-05
2.414885e-05
2.613146e-05
2.756831e-05
2.837681e-05
2.870506e-05
2.897920e-05
2.972468e-05
3.167971e-05
3.471639e-05
0.000000e+00
-2.104434e-08
-4.568704e-08
-7.262474e-08
-1.012824e-07
-1.345965e-07
-1.781831e-07
-2.422462e-07
-3.555553e-07
-5.743266e-07
-9.241341e-07
-1.312153e-06
-1.530822e-06
-1.320910e-06
-6.953149e-07
2.115175e-07
1.676435e-06
0.000000e+00
-3.785662e-06
-6.632293e-06
-1.007502e-05
-1.331218e-05
-1.636041e-05
-1.930114e-05
-2.208659e-05
-2.459597e-05
-2.682438e-05
-2.867614e-05
-3.004347e-05
-3.083121e-05
-3.107809e-05
-3.111134e-05
-3.108435e-05
-3.064338e-05
0.000000e+00
-7.345825e-06
-1.395973e-05
-1.961107e-05
-2.648456e-05
-3.287799e-05
-3.862200e-05
-4.421632e-05
-4.954718e-05
-5.409491e-05
-5.749378e-05
-5.966167e-05
-6.087273e-05
-6.152021e-05
-6.193079e-05
-6.218660e-05
-6.213880e-05
0.000000e+00
-9.379534e-06
-1.891071e-05
-2.711571e-05
-3.724675e-05
-4.697509e-05
-5.566641e-05
-6.425109e-05
-7.274865e-05
-8.028260e-05
-8.599417e-05
-8.959495e-05
-9.159669e-05
-9.269777e-05
-9.333277e-05
-9.365212e-05
-9.371339e-05
0.000000e+00
-1.271233e-05
-2.338666e-05
-3.441739e-05
-4.728758e-05
-5.979823e-05
-7.148488e-05
-8.301843e-05
-9.429123e-05
-1.046270e-04
-1.130436e-04
-1.189301e-04
-1.225110e-04
-1.244442e-04
-1.253463e-04
-1.256421e-04
-1.256806e-04
0.000000e+00
1.090136e-05
1.829024e-05
2.821604e-05
4.148275e-05
5.684926e-05
7.523893e-05
9.705595e-05
1.217177e-04
1.488437e-04
1.780451e-04
2.087495e-04
2.408797e-04
2.752790e-04
3.149327e-04
3.609679e-04
4.075396e-04
0.000000e+00
5.948545e-06
1.386222e-05
2.296543e-05
3.571378e-05
5.143131e-05
7.009740e-05
9.197626e-05
1.168763e-04
1.444653e-04
1.744462e-04
2.062891e-04
2.395531e-04
2.744870e-04
3.122489e-04
3.557087e-04
4.010097e-04
0.000000e+00
2.751092e-06
9.979694e-06
1.904284e-05
3.139241e-05
4.739418e-05
6.639993e-05
8.842445e-05
1.135566e-04
1.415833e-04
1.721778e-04
2.048386e-04
2.389558e-04
2.738488e-04
3.088915e-04
3.487747e-04
3.919204e-04
0.000000e+00
1.637447e-06
8.035531e-06
1.725960e-05
2.966131e-05
4.568383e-05
6.482671e-05
8.703097e-05
1.123494e-04
1.405933e-04
1.714122e-04
2.042973e-04
2.385750e-04
2.731259e-04
3.064618e-04
3.428986e-04
3.829274e-04
0.000000e+00
1.382398e-06
7.464364e-06
1.666271e-05
2.920367e-05
4.516206e-05
6.433521e-05
8.663863e-05
1.120739e-04
1.404462e-04
1.713561e-04
2.042360e-04
2.383513e-04
2.726027e-04
3.056875e-04
3.399597e-04
3.763653e-04
0.000000e+00
1.646194e-06
8.043671e-06
1.725382e-05
2.963398e-05
4.564072e-05
6.477102e-05
8.698245e-05
1.124130e-04
1.408990e-04
1.719208e-04
2.047653e-04
2.386212e-04
2.725113e-04
3.057992e-04
3.391739e-04
3.727955e-04
0.000000e+00
2.765038e-06
9.993690e-06
1.903584e-05
3.135310e-05
4.732895e-05
6.630532e-05
8.833396e-05
1.136685e-04
1.421415e-04
1.731444e-04
2.058110e-04
2.392717e-04
2.727842e-04
3.059444e-04
3.388772e-04
3.713011e-04
0.000000e+00
5.965645e-06
1.388107e-05
2.296797e-05
3.568921e-05
5.136845e-05
6.998973e-05
9.188547e-05
1.169936e-04
1.449777e-04
1.753122e-04
2.072421e-04
2.400453e-04
2.731156e-04
3.060593e-04
3.387153e-04
3.708870e-04
0.000000e+00
1.092035e-05
1.830857e-05
2.822400e-05
4.147588e-05
5.679583e-05
7.512480e-05
9.698880e-05
1.218351e-04
1.490893e-04
1.782781e-04
2.090168e-04
2.409403e-04
2.735057e-04
3.062005e-04
3.386914e-04
3.708417e-04


2.454091e+00
2.344777e+00
2.447687e+00
2.586637e+00
2.691869e+00
2.962657e+00
3.277558e+00
3.625056e+00
4.100072e+00
4.711378e+00
5.364982e+00
5.917737e+00
6.219452e+00
5.975610e+00
5.103121e+00
4.338994e+00
3.765247e+00
3.644795e+00
3.680186e+00
3.740306e+00
3.789493e+00
3.972943e+00
4.192376e+00
4.434698e+00
4.773314e+00
5.216695e+00
5.693513e+00
6.094605e+00
6.276006e+00
5.912072e+00
4.952926e+00
4.109018e+00
5.461441e+00
5.388786e+00
5.370526e+00
5.353603e+00
5.340280e+00
5.409886e+00
5.494302e+00
5.587380e+00
5.727327e+00
5.917646e+00
6.125237e+00
6.296725e+00
6.338167e+00
5.975425e+00
5.150623e+00
4.480625e+00
6.384888e+00
6.348665e+00
6.321281e+00
6.270169e+00
6.241252e+00
6.242737e+00
6.245483e+00
6.247465e+00
6.258531e+00
6.279827e+00
6.306085e+00
6.331984e+00
6.326576e+00
6.134220e+00
5.712989e+00
5.373018e+00
6.384557e+00
6.348109e+00
6.319907e+00
6.267054e+00
6.235553e+00
6.232743e+00
6.227310e+00
6.216892e+00
6.213753e+00
6.220044e+00
6.232626e+00
6.259966e+00
6.302870e+00
6.295547e+00
6.199564e+00
6.110569e+00
5.460244e+00
5.387005e+00
5.366408e+00
5.345061e+00
5.326120e+00
5.386247e+00
5.452792e+00
5.526014e+00
5.654899e+00
5.833787e+00
6.018583e+00
6.184718e+00
6.332369e+00
6.442271e+00
6.494760e+00
6.510308e+00
3.763213e+00
3.642211e+00
3.675122e+00
3.731063e+00
3.776734e+00
3.954531e+00
4.164479e+00
4.414026e+00
4.795283e+00
5.279705e+00
5.749682e+00
6.122574e+00
6.385889e+00
6.554621e+00
6.646251e+00
6.683023e+00
2.451740e+00
2.342406e+00
2.443803e+00
2.580676e+00
2.686885e+00
2.959938e+00
3.280339e+00
3.666920e+00
4.236076e+00
4.936736e+00
5.597807e+00
6.100119e+00
6.427002e+00
6.614321e+00
6.706684e+00
6.742649e+00


-5.663667e-01
-2.328629e-01
-2.158154e-01
-2.636923e-01
-1.779827e-01
-1.855151e-01
-1.982196e-01
-1.720381e-01
-1.621686e-01
-1.704365e-01
-1.567907e-01
-8.795397e-02
4.276814e-02
2.619183e-01
5.430873e-01
-5.946327e-01
5.383005e-01
4.051200e-01
3.380803e-01
2.812963e-01
3.104443e-01
2.943809e-01
2.775647e-01
2.844036e-01
2.915267e-01
3.073378e-01
3.636359e-01
4.841980e-01
6.642308e-01
8.475740e-01
7.479967e-01
-1.265452e+00
8.256749e-01
6.965774e-01
5.761653e-01
5.227270e-01
5.119587e-01
4.919883e-01
4.792528e-01
4.789340e-01
4.848979e-01
5.031838e-01
5.435608e-01
5.985900e-01
6.183768e-01
5.093635e-01
2.072649e-01
-3.225298e-01
8.905613e-01
7.762346e-01
6.506876e-01
5.804690e-01
5.508564e-01
5.351920e-01
5.271597e-01
5.231317e-01
5.156078e-01
4.982470e-01
4.657222e-01
4.030572e-01
2.806390e-01
1.186181e-01
8.271799e-02
1.402446e-01
8.913103e-01
7.771099e-01
6.513984e-01
5.798970e-01
5.471817e-01
5.255979e-01
5.077523e-01
4.875107e-01
4.527240e-01
3.939186e-01
3.101260e-01
2.076921e-01
1.109956e-01
1.039368e-01
2.768009e-01
5.619130e-01
8.274434e-01
6.986210e-01
5.779546e-01
5.223221e-01
5.056745e-01
4.742326e-01
4.418539e-01
4.074245e-01
3.544364e-01
2.839815e-01
2.145822e-01
1.727758e-01
1.981231e-01
3.387852e-01
5.876453e-01
8.527240e-01
5.396831e-01
4.065022e-01
3.394672e-01
2.822965e-01
3.084793e-01
2.870336e-01
2.616748e-01
2.489759e-01
2.181273e-01
1.865417e-01
2.017574e-01
2.862676e-01
4.351495e-01
6.360597e-01
8.418526e-01
9.740160e-01
-5.674591e-01
-2.349046e-01
-2.176763e-01
-2.643196e-01
-1.781385e-01
-1.825506e-01
-1.852666e-01
-1.500597e-01
-1.275830e-01
-7.246749e-02
9.985283e-02
3.798998e-01
6.683007e-01
8.751542e-01
9.753718e-01
9.995116e-01
1 2 19 18
2 3 20 19
3 4 21 20
4 5 22 21
5 6 23 22
6 7 24 23
7 8 25 24
8 9 26 25
9 10 27 26
10 11 28 27
11 12 29 28
12 13 30 29
13 14 31 30
14 15 32 31
15 16 33 32
16 17 34 33
18 19 36 35
19 20 37 36
20 21 38 37
21 22 39 38
22 23 40 39
23 24 41 40
24 25 42 41
25 26 43 42
26 27 44 43
27 28 45 44
28 29 46 45
29 30 47 46
30 31 48 47
31 32 49 48
32 33 50 49
33 34 51 50
35 36 53 52
36 37 54 53
37 38 55 54
38 39 56 55
39 40 57 56
40 41 58 57
41 42 59 58
42 43 60 59
43 44 61 60
44 45 62 61
45 46 63 62
46 47 64 63
47 48 65 64
48 49 66 65
49 50 67 66
50 51 68 67
52 53 70 69
53 54 71 70
54 55 72 71
55 56 73 72
56 57 74 73
57 58 75 74
58 59 76 75
59 60 77 76
60 61 78 77
61 62 79 78
62 63 80 79
63 64 81 80
64 65 82 81
65 66 83 82
66 67 84 83
67 68 85 84
69 70 87 86
70 71 88 87
71 72 89 88
72 73 90 89
73 74 91 90
74 75 92 91
75 76 93 92
76 77 94 93
77 78 95 94
78 79 96 95
79 80 97 96
80 81 98 97
81 82 99 98
82 83 100 99
83 84 101 100
84 85 102 101
86 87 104 103
87 88 105 104
88 89 106 105
89 90 107 106
90 91 108 107
91 92 109 108
92 93 110 109
93 94 111 110
94 95 112 111
95 96 113 112
96 97 114 113
97 98 115 114
98 99 116 115
99 100 117 116
100 101 118 117
101 102 119 118
103 104 121 120
104 105 122 121
105 106 123 122
106 107 124 123
107 108 125 124
108 109 126 125
109 110 127 126
110 111 128 127
111 112 129 128
112 113 130 129
113 114 131 130
114 115 132 131
115 116 133 132
116 117 134 133
117 118 135 134
118 119 136 135
120 121 138 137
121 122 139 138
122 123 140 139
123 124 141 140
124 125 142 141
125 126 143 142
126 127 144 143
127 128 145 144
128 129 146 145
129 130 147 146
130 131 148 147
131 132 149 148
132 133 150 149
133 134 151 150
134 135 152 151
135 136 153 152
