TITLE = "Solution"
VARIABLES = x, y, u, v, psiu, psiv, t, stress
ZONE T="structure" N=153 E=128 F=FEBLOCK ET=QUADRILATERAL VARLOCATION=([7,8]=cellcentered)
0.000000e+00
1.250000e+01
2.500000e+01
3.750000e+01
5.000000e+01
6.250000e+01
7.500000e+01
8.750000e+01
1.000000e+02
1.125000e+02
1.250000e+02
1.375000e+02
1.500000e+02
1.625000e+02
1.750000e+02
1.875000e+02
2.000000e+02
0.000000e+00
1.250000e+01
2.500000e+01
3.750000e+01
5.000000e+01
6.250000e+01
7.500000e+01
8.750000e+01
1.000000e+02
1.125000e+02
1.250000e+02
1.375000e+02
1.500000e+02
1.625000e+02
1.750000e+02
1.875000e+02
2.000000e+02
0.000000e+00
1.250000e+01
2.500000e+01
3.750000e+01
5.000000e+01
6.250000e+01
7.500000e+01
8.750000e+01
1.000000e+02
1.125000e+02
1.250000e+02
1.375000e+02
1.500000e+02
1.625000e+02
1.750000e+02
1.875000e+02
2.000000e+02
0.000000e+00
1.250000e+01
2.500000e+01
3.750000e+01
5.000000e+01
6.250000e+01
7.500000e+01
8.750000e+01
1.000000e+02
1.125000e+02
1.250000e+02
1.375000e+02
1.500000e+02
1.625000e+02
1.750000e+02
1.875000e+02
2.000000e+02
0.000000e+00
1.250000e+01
2.500000e+01
3.750000e+01
5.000000e+01
6.250000e+01
7.500000e+01
8.750000e+01
1.000000e+02
1.125000e+02
1.250000e+02
1.375000e+02
1.500000e+02
1.625000e+02
1.750000e+02
1.875000e+02
2.000000e+02
0.000000e+00
1.250000e+01
2.500000e+01
3.750000e+01
5.000000e+01
6.250000e+01
7.500000e+01
8.750000e+01
1.000000e+02
1.125000e+02
1.250000e+02
1.375000e+02
1.500000e+02
1.625000e+02
1.750000e+02
1.875000e+02
2.000000e+02
0.000000e+00
1.250000e+01
2.500000e+01
3.750000e+01
5.000000e+01
6.250000e+01
7.500000e+01
8.750000e+01
1.000000e+02
1.125000e+02
1.250000e+02
1.375000e+02
1.500000e+02
1.625000e+02
1.750000e+02
1.875000e+02
2.000000e+02
0.000000e+00
1.250000e+01
2.500000e+01
3.750000e+01
5.000000e+01
6.250000e+01
7.500000e+01
8.750000e+01
1.000000e+02
1.125000e+02
1.250000e+02
1.375000e+02
1.500000e+02
1.625000e+02
1.750000e+02
1.875000e+02
2.000000e+02
0.000000e+00
1.250000e+01
2.500000e+01
3.750000e+01
5.000000e+01
6.250000e+01
7.500000e+01
8.750000e+01
1.000000e+02
1.125000e+02
1.250000e+02
1.375000e+02
1.500000e+02
1.625000e+02
1.750000e+02
1.875000e+02
2.000000e+02
0.000000e+00
0.000000e+00
0.000000e+00
0.000000e+00
0.000000e+00
0.000000e+00
0.000000e+00
0.000000e+00
0.000000e+00
0.000000e+00
0.000000e+00
0.000000e+00
0.000000e+00
0.000000e+00
0.000000e+00
0.000000e+00
0.000000e+00
1.250000e+01
1.250000e+01
1.250000e+01
1.250000e+01
1.250000e+01
1.250000e+01
1.250000e+01
1.250000e+01
1.250000e+01
1.250000e+01
1.250000e+01
1.250000e+01
1.250000e+01
1.250000e+01
1.250000e+01
1.250000e+01
1.250000e+01
2.500000e+01
2.500000e+01
2.500000e+01
2.500000e+01
2.500000e+01
2.500000e+01
2.500000e+01
2.500000e+01
2.500000e+01
2.500000e+01
2.500000e+01
2.500000e+01
2.500000e+01
2.500000e+01
2.500000e+01
2.500000e+01
2.500000e+01
3.750000e+01
3.750000e+01
3.750000e+01
3.750000e+01
3.750000e+01
3.750000e+01
3.750000e+01
3.750000e+01
3.750000e+01
3.750000e+01
3.750000e+01
3.750000e+01
3.750000e+01
3.750000e+01
3.750000e+01
3.750000e+01
3.750000e+01
5.000000e+01
5.000000e+01
5.000000e+01
5.000000e+01
5.000000e+01
5.000000e+01
5.000000e+01
5.000000e+01
5.000000e+01
5.000000e+01
5.000000e+01
5.000000e+01
5.000000e+01
5.000000e+01
5.000000e+01
5.000000e+01
5.000000e+01
6.250000e+01
6.250000e+01
6.250000e+01
6.250000e+01
6.250000e+01
6.250000e+01
6.250000e+01
6.250000e+01
6.250000e+01
6.250000e+01
6.250000e+01
6.250000e+01
6.250000e+01
6.250000e+01
6.250000e+01
6.250000e+01
6.250000e+01
7.500000e+01
7.500000e+01
7.500000e+01
7.500000e+01
7.500000e+01
7.500000e+01
7.500000e+01
7.500000e+01
7.500000e+01
7.500000e+01
7.500000e+01
7.500000e+01
7.500000e+01
7.500000e+01
7.500000e+01
7.500000e+01
7.500000e+01
8.750000e+01
8.750000e+01
8.750000e+01
8.750000e+01
8.750000e+01
8.750000e+01
8.750000e+01
8.750000e+01
8.750000e+01
8.750000e+01
8.750000e+01
8.750000e+01
8.750000e+01
8.750000e+01
8.750000e+01
8.750000e+01
8.750000e+01
1.000000e+02
1.000000e+02
1.000000e+02
1.000000e+02
1.000000e+02
1.000000e+02
1.000000e+02
1.000000e+02
1.000000e+02
1.000000e+02
1.000000e+02
1.000000e+02
1.000000e+02
1.000000e+02
1.000000e+02
1.000000e+02
1.000000e+02
0.000000e+00
-9.331618e-01
-1.640827e+00
-2.341856e+00
-3.030308e+00
-3.688160e+00
-4.362307e+00
-5.033616e+00
-5.693529e+00
-6.360934e+00
-7.030933e+00
-7.700187e+00
-8.398180e+00
-9.160306e+00
-9.973196e+00
-1.069100e+01
-1.114074e+01
0.000000e+00
-4.449353e-01
-9.303681e-01
-1.433521e+00
-1.951798e+00
-2.447038e+00
-2.954450e+00
-3.461411e+00
-3.957729e+00
-4.457420e+00
-4.956528e+00
-5.447398e+00
-5.941465e+00
-6.435982e+00
-6.817703e+00
-6.917761e+00
-7.089550e+00
0.000000e+00
-1.835190e-01
-4.181895e-01
-7.271706e-01
-1.068627e+00
-1.403467e+00
-1.750663e+00
-2.097441e+00
-2.437673e+00
-2.776678e+00
-3.107824e+00
-3.419722e+00
-3.698199e+00
-3.907258e+00
-3.978277e+00
-3.962787e+00
-4.114279e+00
0.000000e+00
-7.887964e-02
-1.738368e-01
-3.137301e-01
-4.685925e-01
-6.372860e-01
-8.121479e-01
-9.858433e-01
-1.157135e+00
-1.322906e+00
-1.475634e+00
-1.600280e+00
-1.672417e+00
-1.668872e+00
-1.603330e+00
-1.594752e+00
-1.719136e+00
0.000000e+00
-2.177086e-03
-4.477463e-03
-6.753138e-03
-8.693397e-03
-9.662043e-03
-8.658624e-03
-4.171816e-03
5.915301e-03
2.476822e-02
5.859930e-02
1.176898e-01
2.106083e-01
3.327510e-01
4.419327e-01
4.641038e-01
3.651268e-01
0.000000e+00
7.500585e-02
1.659843e-01
3.018450e-01
4.535165e-01
6.205865e-01
7.969906e-01
9.787057e-01
1.169146e+00
1.371621e+00
1.587013e+00
1.810543e+00
2.029556e+00
2.224281e+00
2.357544e+00
2.387659e+00
2.324785e+00
0.000000e+00
1.816875e-01
4.142654e-01
7.212675e-01
1.061580e+00
1.396204e+00
1.744645e+00
2.096784e+00
2.449229e+00
2.809197e+00
3.172258e+00
3.524785e+00
3.844326e+00
4.101662e+00
4.267072e+00
4.323503e+00
4.306075e+00
0.000000e+00
4.453111e-01
9.303886e-01
1.433051e+00
1.951131e+00
2.445211e+00
2.949483e+00
3.452401e+00
3.942801e+00
4.431103e+00
4.912548e+00
5.370794e+00
5.779741e+00
6.100054e+00
6.303167e+00
6.391827e+00
6.408037e+00
0.000000e+00
9.350064e-01
1.644089e+00
2.346784e+00
3.037060e+00
3.694762e+00
4.364934e+00
5.028016e+00
5.671516e+00
6.307444e+00
6.927396e+00
7.510760e+00
8.019551e+00
8.388348e+00
8.579153e+00
8.628382e+00
8.628118e+00
0.000000e+00
-5.887917e-01
-1.279645e+00
-2.192040e+00
-3.272506e+00
-4.515600e+00
-5.933807e+00
-7.519414e+00
-9.274752e+00
-1.120655e+01
-1.331191e+01
-1.559242e+01
-1.806368e+01
-2.074176e+01
-2.365323e+01
-2.700121e+01
-3.196203e+01
0.000000e+00
-3.861466e-01
-1.110328e+00
-2.011880e+00
-3.098293e+00
-4.341408e+00
-5.757181e+00
-7.345465e+00
-9.101667e+00
-1.103290e+01
-1.314040e+01
-1.542112e+01
-1.788652e+01
-2.056978e+01
-2.352652e+01
-2.690523e+01
-3.096581e+01
0.000000e+00
-3.475148e-01
-1.007926e+00
-1.900823e+00
-2.978912e+00
-4.218171e+00
-5.633503e+00
-7.222798e+00
-8.980971e+00
-1.091605e+01
-1.303063e+01
-1.532162e+01
-1.780096e+01
-2.051653e+01
-2.351670e+01
-2.673491e+01
-2.975008e+01
0.000000e+00
-3.841913e-01
-9.940153e-01
-1.860017e+00
-2.917852e+00
-4.151387e+00
-5.565515e+00
-7.155237e+00
-8.918359e+00
-1.086157e+01
-1.298944e+01
-1.530140e+01
-1.780189e+01
-2.052086e+01
-2.345788e+01
-2.641219e+01
-2.899144e+01
0.000000e+00
-3.978616e-01
-1.002326e+00
-1.851774e+00
-2.903923e+00
-4.135981e+00
-5.551188e+00
-7.144311e+00
-8.914345e+00
-1.086687e+01
-1.300803e+01
-1.533559e+01
-1.783930e+01
-2.051849e+01
-2.332214e+01
-2.606276e+01
-2.840333e+01
0.000000e+00
-3.838741e-01
-9.946061e-01
-1.862936e+00
-2.925170e+00
-4.164910e+00
-5.586826e+00
-7.186908e+00
-8.963375e+00
-1.092216e+01
-1.306748e+01
-1.539390e+01
-1.788273e+01
-2.050585e+01
-2.318817e+01
-2.576416e+01
-2.798738e+01
0.000000e+00
-3.471026e-01
-1.009212e+00
-1.905987e+00
-2.991135e+00
-4.240611e+00
-5.669235e+00
-7.276040e+00
-9.056183e+00
-1.101589e+01
-1.315658e+01
-1.547051e+01
-1.793687e+01
-2.050969e+01
-2.309965e+01
-2.556836e+01
-2.777537e+01
0.000000e+00
-3.858124e-01
-1.111834e+00
-2.017763e+00
-3.112003e+00
-4.366440e+00
-5.797494e+00
-7.405844e+00
-9.186305e+00
-1.114387e+01
-1.327721e+01
-1.557629e+01
-1.801952e+01
-2.055217e+01
-2.307704e+01
-2.548323e+01
-2.772256e+01
0.000000e+00
-5.888260e-01
-1.281416e+00
-2.198352e+00
-3.286588e+00
-4.540562e+00
-5.973608e+00
-7.578646e+00
-9.356200e+00
-1.131100e+01
-1.343707e+01
-1.572164e+01
-1.813799e+01
-2.062708e+01
-2.309970e+01
-2.546781e+01
-2.772265e+01


0.000000e+00
1.536972e-05
2.686281e-05
4.016358e-05
5.637005e-05
7.117045e-05
8.543875e-05
1.008935e-04
1.158918e-04
1.303767e-04
1.453677e-04
1.614404e-04
1.778030e-04
1.911423e-04
1.991170e-04
2.045399e-04
2.112972e-04
0.000000e+00
1.080068e-05
2.051745e-05
2.977847e-05
4.253376e-05
5.354212e-05
6.360961e-05
7.503736e-05
8.629025e-05
9.647580e-05
1.069078e-04
1.181345e-04
1.290493e-04
1.363523e-04
1.388065e-04
1.430731e-04
1.490866e-04
0.000000e+00
8.409834e-06
1.461473e-05
2.018002e-05
2.858010e-05
3.544949e-05
4.180486e-05
4.903585e-05
5.604311e-05
6.226904e-05
6.834817e-05
7.417359e-05
7.886340e-05
8.097966e-05
8.199395e-05
8.508794e-05
8.978486e-05
0.000000e+00
4.290523e-06
6.126902e-06
9.454489e-06
1.268544e-05
1.579948e-05
1.898313e-05
2.222132e-05
2.502055e-05
2.763594e-05
2.955625e-05
3.034570e-05
3.012534e-05
2.992568e-05
3.087198e-05
3.403086e-05
3.911872e-05
0.000000e+00
-2.358323e-08
-7.701383e-08
-1.640736e-07
-3.060626e-07
-4.934846e-07
-7.487591e-07
-1.161917e-06
-1.843919e-06
-2.876841e-06
-4.498377e-06
-6.696075e-06
-9.062358e-06
-1.072374e-05
-1.042025e-05
-8.184509e-06
-4.607279e-06
0.000000e+00
-4.314847e-06
-6.212947e-06
-9.725220e-06
-1.317133e-05
-1.653660e-05
-2.008548e-05
-2.386926e-05
-2.733086e-05
-3.104367e-05
-3.495682e-05
-3.898861e-05
-4.271002e-05
-4.531055e-05
-4.676784e-05
-4.699362e-05
-4.563856e-05
0.000000e+00
-8.331940e-06
-1.458056e-05
-2.032305e-05
-2.881681e-05
-3.575199e-05
-4.243069e-05
-4.987228e-05
-5.663858e-05
-6.267260e-05
-6.904682e-05
-7.507430e-05
-8.002002e-05
-8.366072e-05
-8.603865e-05
-8.737378e-05
-8.757547e-05
0.000000e+00
-1.069672e-05
-2.041691e-05
-2.979016e-05
-4.249464e-05
-5.338529e-05
-6.368898e-05
-7.526401e-05
-8.607550e-05
-9.598694e-05
-1.064187e-04
-1.161852e-04
-1.236480e-04
-1.284975e-04
-1.310991e-04
-1.320936e-04
-1.322801e-04
0.000000e+00
-1.533734e-05
-2.679902e-05
-4.010102e-05
-5.612544e-05
-7.064375e-05
-8.482276e-05
-1.001769e-04
-1.146856e-04
-1.291213e-04
-1.446118e-04
-1.591233e-04
-1.702171e-04
-1.765010e-04
-1.788253e-04
-1.791763e-04
-1.791132e-04
0.000000e+00
1.308592e-05
2.223821e-05
3.589644e-05
5.385191e-05
7.407505e-05
9.910837e-05
1.290799e-04
1.623793e-04
1.998494e-04
2.425452e-04
2.904150e-04
3.428108e-04
3.989742e-04
4.623398e-04
5.329605e-04
6.054595e-04
0.000000e+00
7.726384e-06
1.763152e-05
2.958809e-05
4.707314e-05
6.801120e-05
9.288694e-05
1.224687e-04
1.561187e-04
1.937665e-04
2.361443e-04
2.836791e-04
3.368139e-04
3.949203e-04
4.573374e-04
5.252498e-04
5.950140e-04
0.000000e+00
4.299325e-06
1.347883e-05
2.476535e-05
4.160345e-05
6.324301e-05
8.838329e-05
1.176801e-04
1.514856e-04
1.894903e-04
2.318102e-04
2.793295e-04
3.330785e-04
3.929909e-04
4.532921e-04
5.177329e-04
5.846047e-04
0.000000e+00
3.351026e-06
1.152158e-05
2.274774e-05
3.917986e-05
6.105709e-05
8.659686e-05
1.159098e-04
1.495503e-04
1.876639e-04
2.303115e-04
2.779274e-04
3.320095e-04
3.916024e-04
4.504008e-04
5.100745e-04
5.709812e-04
0.000000e+00
3.130201e-06
1.109149e-05
2.215941e-05
3.857785e-05
6.035384e-05
8.612604e-05
1.155420e-04
1.490903e-04
1.871771e-04
2.300887e-04
2.781293e-04
3.322555e-04
3.915531e-04
4.483940e-04
5.030484e-04
5.569138e-04
0.000000e+00
3.397474e-06
1.157033e-05
2.287410e-05
3.936510e-05
6.116502e-05
8.666319e-05
1.161143e-04
1.497588e-04
1.878215e-04
2.310425e-04
2.798576e-04
3.342687e-04
3.921507e-04
4.480282e-04
4.994956e-04
5.475381e-04
0.000000e+00
4.356880e-06
1.356853e-05
2.498043e-05
4.188441e-05
6.337578e-05
8.846729e-05
1.178866e-04
1.515908e-04
1.896877e-04
2.333828e-04
2.830842e-04
3.374872e-04
3.936382e-04
4.475922e-04
4.975486e-04
5.440363e-04
0.000000e+00
7.774112e-06
1.777302e-05
2.985636e-05
4.736374e-05
6.819892e-05
9.304924e-05
1.225823e-04
1.559632e-04
1.938323e-04
2.378057e-04
2.874987e-04
3.409477e-04
3.951934e-04
4.473906e-04
4.966298e-04
5.436259e-04
0.000000e+00
1.311978e-05
2.241554e-05
3.619126e-05
5.410368e-05
7.430235e-05
9.941018e-05
1.291870e-04
1.620980e-04
1.999736e-04
2.440013e-04
2.926546e-04
3.442633e-04
3.965550e-04
4.475525e-04
4.964433e-04
5.436971e-04


3.420669e+00
3.215042e+00
3.097461e+00
3.006396e+00
2.934159e+00
3.183311e+00
3.395612e+00
3.671259e+00
4.144116e+00
4.682803e+00
5.349029e+00
6.380469e+00
7.608033e+00
8.059235e+00
7.040807e+00
5.769881e+00
5.955663e+00
5.636670e+00
5.508975e+00
5.241803e+00
5.047023e+00
5.134463e+00
5.223209e+00
5.371950e+00
5.685225e+00
6.074184e+00
6.554438e+00
7.255662e+00
7.994781e+00
7.883025e+00
6.363820e+00
4.795905e+00
8.425693e+00
8.336522e+00
8.181400e+00
7.915620e+00
7.623291e+00
7.549671e+00
7.515054e+00
7.514600e+00
7.611047e+00
7.775108e+00
7.952233e+00
8.102927e+00
8.186244e+00
7.577530e+00
6.057427e+00
4.793283e+00
9.330063e+00
9.298000e+00
9.234063e+00
8.956125e+00
8.677792e+00
8.512929e+00
8.431836e+00
8.382421e+00
8.350327e+00
8.319299e+00
8.164866e+00
7.818725e+00
7.490765e+00
7.090950e+00
6.541264e+00
6.208199e+00
9.331842e+00
9.303206e+00
9.245139e+00
8.969348e+00
8.680700e+00
8.493409e+00
8.388050e+00
8.301813e+00
8.172696e+00
7.943524e+00
7.527864e+00
7.010859e+00
6.821136e+00
7.074041e+00
7.527725e+00
7.886136e+00
8.428429e+00
8.341883e+00
8.192785e+00
7.924461e+00
7.599223e+00
7.465050e+00
7.359531e+00
7.252790e+00
7.140005e+00
6.966165e+00
6.778224e+00
6.770582e+00
7.166309e+00
7.913624e+00
8.595152e+00
8.964163e+00
5.956878e+00
5.632658e+00
5.501600e+00
5.225506e+00
4.994597e+00
5.022326e+00
5.050597e+00
5.125339e+00
5.344150e+00
5.706720e+00
6.313188e+00
7.165312e+00
8.077426e+00
8.777881e+00
9.134949e+00
9.240377e+00
3.421550e+00
3.208326e+00
3.084651e+00
2.988990e+00
2.898908e+00
3.126855e+00
3.339660e+00
3.649053e+00
4.244726e+00
5.127610e+00
6.342240e+00
7.688813e+00
8.677313e+00
9.135371e+00
9.219347e+00
9.188819e+00


-6.716460e-01
-2.646823e-01
-2.725661e-01
-2.775518e-01
-1.700752e-01
-2.277331e-01
-2.226014e-01
-1.806507e-01
-2.043960e-01
-2.095152e-01
-1.912874e-01
-2.536895e-01
-3.754278e-01
-2.188672e-01
4.082023e-01
-7.876762e-01
5.871339e-01
4.199714e-01
3.058516e-01
2.367392e-01
2.824267e-01
2.350697e-01
2.244242e-01
2.391633e-01
2.203814e-01
2.207833e-01
2.605864e-01
3.165901e-01
4.320099e-01
6.956480e-01
7.198756e-01
-1.138786e+00
7.885382e-01
5.803132e-01
3.641985e-01
3.054580e-01
3.097787e-01
2.774838e-01
2.750975e-01
2.832769e-01
2.777755e-01
2.861267e-01
3.291681e-01
4.006435e-01
4.352167e-01
3.200069e-01
8.744939e-02
-2.676077e-01
8.019217e-01
6.290783e-01
3.896353e-01
2.821798e-01
2.417803e-01
2.189556e-01
2.209628e-01
2.332525e-01
2.404725e-01
2.436056e-01
2.496747e-01
2.343561e-01
1.007978e-01
-1.530885e-01
-1.764697e-01
1.910296e-02
8.034116e-01
6.309436e-01
3.920258e-01
2.831909e-01
2.404319e-01
2.126657e-01
2.050016e-01
2.035956e-01
1.938869e-01
1.708407e-01
1.324118e-01
6.657383e-02
-6.267525e-02
-1.604069e-01
-4.254324e-03
3.882347e-01
7.923558e-01
5.860615e-01
3.716407e-01
3.103344e-01
3.098870e-01
2.686585e-01
2.458717e-01
2.201938e-01
1.628757e-01
8.953185e-02
1.740535e-02
-3.340610e-02
-4.380530e-02
6.403989e-02
3.676963e-01
7.584396e-01
5.897218e-01
4.240429e-01
3.093728e-01
2.366173e-01
2.788049e-01
2.252686e-01
1.968983e-01
1.831931e-01
1.234678e-01
5.882049e-02
2.484147e-02
5.331314e-02
1.873449e-01
4.364587e-01
7.415563e-01
9.547482e-01
-6.760848e-01
-2.668580e-01
-2.752209e-01
-2.815038e-01
-1.685849e-01
-2.159258e-01
-2.030372e-01
-1.459938e-01
-1.373971e-01
-1.077072e-01
-1.334468e-02
1.812491e-01
4.955069e-01
7.950331e-01
9.577817e-01
9.990209e-01
1 2 19 18
2 3 20 19
3 4 21 20
4 5 22 21
5 6 23 22
6 7 24 23
7 8 25 24
8 9 26 25
9 10 27 26
10 11 28 27
11 12 29 28
12 13 30 29
13 14 31 30
14 15 32 31
15 16 33 32
16 17 34 33
18 19 36 35
19 20 37 36
20 21 38 37
21 22 39 38
22 23 40 39
23 24 41 40
24 25 42 41
25 26 43 42
26 27 44 43
27 28 45 44
28 29 46 45
29 30 47 46
30 31 48 47
31 32 49 48
32 33 50 49
33 34 51 50
35 36 53 52
36 37 54 53
37 38 55 54
38 39 56 55
39 40 57 56
40 41 58 57
41 42 59 58
42 43 60 59
43 44 61 60
44 45 62 61
45 46 63 62
46 47 64 63
47 48 65 64
48 49 66 65
49 50 67 66
50 51 68 67
52 53 70 69
53 54 71 70
54 55 72 71
55 56 73 72
56 57 74 73
57 58 75 74
58 59 76 75
59 60 77 76
60 61 78 77
61 62 79 78
62 63 80 79
63 64 81 80
64 65 82 81
65 66 83 82
66 67 84 83
67 68 85 84
69 70 87 86
70 71 88 87
71 72 89 88
72 73 90 89
73 74 91 90
74 75 92 91
75 76 93 92
76 77 94 93
77 78 95 94
78 79 96 95
79 80 97 96
80 81 98 97
81 82 99 98
82 83 100 99
83 84 101 100
84 85 102 101
86 87 104 103
87 88 105 104
88 89 106 105
89 90 107 106
90 91 108 107
91 92 109 108
92 93 110 109
93 94 111 110
94 95 112 111
95 96 113 112
96 97 114 113
97 98 115 114
98 99 116 115
99 100 117 116
100 101 118 117
101 102 119 118
103 104 121 120
104 105 122 121
105 106 123 122
106 107 124 123
107 108 125 124
108 109 126 125
109 110 127 126
110 111 128 127
111 112 129 128
112 113 130 129
113 114 131 130
114 115 132 131
115 116 133 132
116 117 134 133
117 118 135 134
118 119 136 135
120 121 138 137
121 122 139 138
122 123 140 139
123 124 141 140
124 125 142 141
125 126 143 142
126 127 144 143
127 128 145 144
128 129 146 145
129 130 147 146
130 131 148 147
131 132 149 148
132 133 150 149
133 134 151 150
134 135 152 151
135 136 153 152
