TITLE = "Solution"
VARIABLES = x, y, u, v, psiu, psiv, t, stress
ZONE T="structure" N=153 E=128 F=FEBLOCK ET=QUADRILATERAL VARLOCATION=([7,8]=cellcentered)
0.000000e+00
1.250000e+01
2.500000e+01
3.750000e+01
5.000000e+01
6.250000e+01
7.500000e+01
8.750000e+01
1.000000e+02
1.125000e+02
1.250000e+02
1.375000e+02
1.500000e+02
1.625000e+02
1.750000e+02
1.875000e+02
2.000000e+02
0.000000e+00
1.250000e+01
2.500000e+01
3.750000e+01
5.000000e+01
6.250000e+01
7.500000e+01
8.750000e+01
1.000000e+02
1.125000e+02
1.250000e+02
1.375000e+02
1.500000e+02
1.625000e+02
1.750000e+02
1.875000e+02
2.000000e+02
0.000000e+00
1.250000e+01
2.500000e+01
3.750000e+01
5.000000e+01
6.250000e+01
7.500000e+01
8.750000e+01
1.000000e+02
1.125000e+02
1.250000e+02
1.375000e+02
1.500000e+02
1.625000e+02
1.750000e+02
1.875000e+02
2.000000e+02
0.000000e+00
1.250000e+01
2.500000e+01
3.750000e+01
5.000000e+01
6.250000e+01
7.500000e+01
8.750000e+01
1.000000e+02
1.125000e+02
1.250000e+02
1.375000e+02
1.500000e+02
1.625000e+02
1.750000e+02
1.875000e+02
2.000000e+02
0.000000e+00
1.250000e+01
2.500000e+01
3.750000e+01
5.000000e+01
6.250000e+01
7.500000e+01
8.750000e+01
1.000000e+02
1.125000e+02
1.250000e+02
1.375000e+02
1.500000e+02
1.625000e+02
1.750000e+02
1.875000e+02
2.000000e+02
0.000000e+00
1.250000e+01
2.500000e+01
3.750000e+01
5.000000e+01
6.250000e+01
7.500000e+01
8.750000e+01
1.000000e+02
1.125000e+02
1.250000e+02
1.375000e+02
1.500000e+02
1.625000e+02
1.750000e+02
1.875000e+02
2.000000e+02
0.000000e+00
1.250000e+01
2.500000e+01
3.750000e+01
5.000000e+01
6.250000e+01
7.500000e+01
8.750000e+01
1.000000e+02
1.125000e+02
1.250000e+02
1.375000e+02
1.500000e+02
1.625000e+02
1.750000e+02
1.875000e+02
2.000000e+02
0.000000e+00
1.250000e+01
2.500000e+01
3.750000e+01
5.000000e+01
6.250000e+01
7.500000e+01
8.750000e+01
1.000000e+02
1.125000e+02
1.250000e+02
1.375000e+02
1.500000e+02
1.625000e+02
1.750000e+02
1.875000e+02
2.000000e+02
0.000000e+00
1.250000e+01
2.500000e+01
3.750000e+01
5.000000e+01
6.250000e+01
7.500000e+01
8.750000e+01
1.000000e+02
1.125000e+02
1.250000e+02
1.375000e+02
1.500000e+02
1.625000e+02
1.750000e+02
1.875000e+02
2.000000e+02
0.000000e+00
0.000000e+00
0.000000e+00
0.000000e+00
0.000000e+00
0.000000e+00
0.000000e+00
0.000000e+00
0.000000e+00
0.000000e+00
0.000000e+00
0.000000e+00
0.000000e+00
0.000000e+00
0.000000e+00
0.000000e+00
0.000000e+00
1.250000e+01
1.250000e+01
1.250000e+01
1.250000e+01
1.250000e+01
1.250000e+01
1.250000e+01
1.250000e+01
1.250000e+01
1.250000e+01
1.250000e+01
1.250000e+01
1.250000e+01
1.250000e+01
1.250000e+01
1.250000e+01
1.250000e+01
2.500000e+01
2.500000e+01
2.500000e+01
2.500000e+01
2.500000e+01
2.500000e+01
2.500000e+01
2.500000e+01
2.500000e+01
2.500000e+01
2.500000e+01
2.500000e+01
2.500000e+01
2.500000e+01
2.500000e+01
2.500000e+01
2.500000e+01
3.750000e+01
3.750000e+01
3.750000e+01
3.750000e+01
3.750000e+01
3.750000e+01
3.750000e+01
3.750000e+01
3.750000e+01
3.750000e+01
3.750000e+01
3.750000e+01
3.750000e+01
3.750000e+01
3.750000e+01
3.750000e+01
3.750000e+01
5.000000e+01
5.000000e+01
5.000000e+01
5.000000e+01
5.000000e+01
5.000000e+01
5.000000e+01
5.000000e+01
5.000000e+01
5.000000e+01
5.000000e+01
5.000000e+01
5.000000e+01
5.000000e+01
5.000000e+01
5.000000e+01
5.000000e+01
6.250000e+01
6.250000e+01
6.250000e+01
6.250000e+01
6.250000e+01
6.250000e+01
6.250000e+01
6.250000e+01
6.250000e+01
6.250000e+01
6.250000e+01
6.250000e+01
6.250000e+01
6.250000e+01
6.250000e+01
6.250000e+01
6.250000e+01
7.500000e+01
7.500000e+01
7.500000e+01
7.500000e+01
7.500000e+01
7.500000e+01
7.500000e+01
7.500000e+01
7.500000e+01
7.500000e+01
7.500000e+01
7.500000e+01
7.500000e+01
7.500000e+01
7.500000e+01
7.500000e+01
7.500000e+01
8.750000e+01
8.750000e+01
8.750000e+01
8.750000e+01
8.750000e+01
8.750000e+01
8.750000e+01
8.750000e+01
8.750000e+01
8.750000e+01
8.750000e+01
8.750000e+01
8.750000e+01
8.750000e+01
8.750000e+01
8.750000e+01
8.750000e+01
1.000000e+02
1.000000e+02
1.000000e+02
1.000000e+02
1.000000e+02
1.000000e+02
1.000000e+02
1.000000e+02
1.000000e+02
1.000000e+02
1.000000e+02
1.000000e+02
1.000000e+02
1.000000e+02
1.000000e+02
1.000000e+02
1.000000e+02
0.000000e+00
-8.469850e-01
-1.527838e+00
-2.192172e+00
-2.869237e+00
-3.529207e+00
-4.183305e+00
-4.837354e+00
-5.486533e+00
-6.127418e+00
-6.753963e+00
-7.357207e+00
-7.934922e+00
-8.499912e+00
-9.076162e+00
-9.694038e+00
-1.012128e+01
0.000000e+00
-4.595883e-01
-9.554325e-01
-1.448641e+00
-1.955400e+00
-2.449830e+00
-2.938928e+00
-3.427504e+00
-3.911748e+00
-4.388093e+00
-4.849928e+00
-5.285444e+00
-5.680901e+00
-6.016333e+00
-6.244668e+00
-6.296111e+00
-6.439176e+00
0.000000e+00
-2.514766e-01
-5.319021e-01
-8.506983e-01
-1.185635e+00
-1.517549e+00
-1.848297e+00
-2.177238e+00
-2.500069e+00
-2.811498e+00
-3.102391e+00
-3.358352e+00
-3.559993e+00
-3.681293e+00
-3.696609e+00
-3.664898e+00
-3.813483e+00
0.000000e+00
-1.099037e-01
-2.367451e-01
-3.882418e-01
-5.522056e-01
-7.195262e-01
-8.871597e-01
-1.051813e+00
-1.209486e+00
-1.354465e+00
-1.478025e+00
-1.568344e+00
-1.612171e+00
-1.601134e+00
-1.556079e+00
-1.562605e+00
-1.682436e+00
0.000000e+00
-6.478216e-04
-1.331043e-03
-1.931192e-03
-2.215889e-03
-1.758370e-03
1.969416e-04
4.953515e-03
1.472184e-02
3.300266e-02
6.462250e-02
1.147306e-01
1.854241e-01
2.673882e-01
3.274443e-01
3.204539e-01
2.346151e-01
0.000000e+00
1.088055e-01
2.344620e-01
3.848495e-01
5.481384e-01
7.159061e-01
8.863134e-01
1.058190e+00
1.231073e+00
1.404727e+00
1.578042e+00
1.747935e+00
1.907034e+00
2.039453e+00
2.120515e+00
2.130747e+00
2.085263e+00
0.000000e+00
2.509141e-01
5.306533e-01
8.486710e-01
1.182859e+00
1.514270e+00
1.845148e+00
2.175809e+00
2.503397e+00
2.823993e+00
3.129729e+00
3.408436e+00
3.645807e+00
3.826739e+00
3.937465e+00
3.974316e+00
3.963826e+00
0.000000e+00
4.596822e-01
9.554934e-01
1.448563e+00
1.955028e+00
2.448701e+00
2.936107e+00
3.421810e+00
3.901183e+00
4.366638e+00
4.802956e+00
5.187449e+00
5.498467e+00
5.722604e+00
5.858013e+00
5.916032e+00
5.926789e+00
0.000000e+00
8.475060e-01
1.529058e+00
2.194285e+00
2.872386e+00
3.533122e+00
4.187137e+00
4.839697e+00
5.483736e+00
6.107278e+00
6.685919e+00
7.183888e+00
7.567536e+00
7.817838e+00
7.939518e+00
7.969042e+00
7.968151e+00
0.000000e+00
-5.219059e-01
-1.081029e+00
-1.822876e+00
-2.731990e+00
-3.807426e+00
-5.055380e+00
-6.475742e+00
-8.066234e+00
-9.824133e+00
-1.174341e+01
-1.381604e+01
-1.603829e+01
-1.842045e+01
-2.102583e+01
-2.406887e+01
-2.856828e+01
0.000000e+00
-3.301286e-01
-9.138079e-01
-1.647714e+00
-2.557291e+00
-3.635699e+00
-4.884441e+00
-6.305778e+00
-7.898619e+00
-9.660522e+00
-1.158675e+01
-1.366976e+01
-1.590488e+01
-1.830472e+01
-2.092555e+01
-2.396255e+01
-2.771819e+01
0.000000e+00
-2.706152e-01
-8.035448e-01
-1.529884e+00
-2.435310e+00
-3.513721e+00
-4.763832e+00
-6.187536e+00
-7.784530e+00
-9.553403e+00
-1.149061e+01
-1.358971e+01
-1.584740e+01
-1.827605e+01
-2.091069e+01
-2.377335e+01
-2.649297e+01
0.000000e+00
-2.655675e-01
-7.611716e-01
-1.467746e+00
-2.365695e+00
-3.442090e+00
-4.693973e+00
-6.121623e+00
-7.725194e+00
-9.504218e+00
-1.145565e+01
-1.357277e+01
-1.584901e+01
-1.828207e+01
-2.085362e+01
-2.344202e+01
-2.573918e+01
0.000000e+00
-2.687500e-01
-7.527624e-01
-1.450633e+00
-2.344345e+00
-3.420532e+00
-4.674674e+00
-6.106577e+00
-7.716949e+00
-9.505895e+00
-1.146986e+01
-1.359909e+01
-1.587764e+01
-1.827963e+01
-2.074341e+01
-2.313497e+01
-2.523793e+01
0.000000e+00
-2.653893e-01
-7.612957e-01
-1.468726e+00
-2.368351e+00
-3.447618e+00
-4.704056e+00
-6.138854e+00
-7.753554e+00
-9.548648e+00
-1.151945e+01
-1.365128e+01
-1.591677e+01
-1.827076e+01
-2.063884e+01
-2.290925e+01
-2.493858e+01
0.000000e+00
-2.703061e-01
-8.037088e-01
-1.531398e+00
-2.439529e+00
-3.522625e+00
-4.780261e+00
-6.215889e+00
-7.831581e+00
-9.627698e+00
-1.159814e+01
-1.372360e+01
-1.596789e+01
-1.827598e+01
-2.057357e+01
-2.277588e+01
-2.480351e+01
0.000000e+00
-3.298176e-01
-9.139797e-01
-1.649371e+00
-2.561967e+00
-3.645621e+00
-4.902887e+00
-6.337860e+00
-7.951992e+00
-9.744468e+00
-1.170722e+01
-1.381798e+01
-1.603699e+01
-1.830678e+01
-2.055664e+01
-2.271991e+01
-2.477221e+01
0.000000e+00
-5.217368e-01
-1.081333e+00
-1.824710e+00
-2.736860e+00
-3.817483e+00
-5.073868e+00
-6.507722e+00
-8.118591e+00
-9.903648e+00
-1.185148e+01
-1.393796e+01
-1.612435e+01
-1.835660e+01
-2.057028e+01
-2.270953e+01
-2.477302e+01


0.000000e+00
1.123783e-05
2.145762e-05
3.145077e-05
4.246747e-05
5.328919e-05
6.328141e-05
7.261686e-05
8.115748e-05
8.838996e-05
9.392026e-05
9.776876e-05
1.003653e-04
1.023476e-04
1.041793e-04
1.066221e-04
1.096910e-04
0.000000e+00
8.281668e-06
1.732142e-05
2.482769e-05
3.329702e-05
4.161500e-05
4.907255e-05
5.596827e-05
6.227687e-05
6.747774e-05
7.120763e-05
7.350743e-05
7.464183e-05
7.487436e-05
7.505576e-05
7.703442e-05
8.039920e-05
0.000000e+00
6.310879e-06
1.243578e-05
1.761528e-05
2.333238e-05
2.876473e-05
3.363064e-05
3.806749e-05
4.200193e-05
4.513511e-05
4.728498e-05
4.847443e-05
4.887089e-05
4.881530e-05
4.904125e-05
5.080877e-05
5.382785e-05
0.000000e+00
3.168904e-06
5.837631e-06
8.829257e-06
1.163317e-05
1.422592e-05
1.662612e-05
1.878249e-05
2.060162e-05
2.201570e-05
2.297318e-05
2.348709e-05
2.370297e-05
2.390775e-05
2.439812e-05
2.555115e-05
2.739017e-05
0.000000e+00
-9.778573e-09
-2.034215e-08
-3.113535e-08
-4.246476e-08
-5.522966e-08
-7.213615e-08
-1.036780e-07
-1.694537e-07
-2.841707e-07
-4.353851e-07
-5.704572e-07
-5.941068e-07
-4.061518e-07
-6.997499e-08
3.677364e-07
1.163126e-06
0.000000e+00
-3.186102e-06
-5.871951e-06
-8.882379e-06
-1.170649e-05
-1.431872e-05
-1.673891e-05
-1.892903e-05
-2.082088e-05
-2.236654e-05
-2.351490e-05
-2.423946e-05
-2.457729e-05
-2.464328e-05
-2.463790e-05
-2.461892e-05
-2.436627e-05
0.000000e+00
-6.318535e-06
-1.245417e-05
-1.764983e-05
-2.338608e-05
-2.883342e-05
-3.371519e-05
-3.816493e-05
-4.206433e-05
-4.508046e-05
-4.709362e-05
-4.826380e-05
-4.886767e-05
-4.917310e-05
-4.936890e-05
-4.948423e-05
-4.943383e-05
0.000000e+00
-8.280082e-06
-1.732116e-05
-2.483486e-05
-3.331476e-05
-4.163756e-05
-4.911034e-05
-5.602853e-05
-6.225498e-05
-6.713695e-05
-7.038059e-05
-7.228551e-05
-7.335080e-05
-7.395720e-05
-7.431426e-05
-7.449330e-05
-7.452344e-05
0.000000e+00
-1.123617e-05
-2.144615e-05
-3.142904e-05
-4.243348e-05
-5.323515e-05
-6.321384e-05
-7.254165e-05
-8.097580e-05
-8.784980e-05
-9.278919e-05
-9.598805e-05
-9.791892e-05
-9.901825e-05
-9.957853e-05
-9.978356e-05
-9.981527e-05
0.000000e+00
9.746178e-06
1.657055e-05
2.522418e-05
3.677440e-05
5.039874e-05
6.638058e-05
8.490823e-05
1.055219e-04
1.276634e-04
1.509976e-04
1.753463e-04
2.006573e-04
2.273304e-04
2.574768e-04
2.924138e-04
3.281496e-04
0.000000e+00
5.150728e-06
1.232558e-05
2.059954e-05
3.181154e-05
4.569532e-05
6.207309e-05
8.092302e-05
1.020222e-04
1.249080e-04
1.490927e-04
1.741936e-04
2.000359e-04
2.268409e-04
2.554402e-04
2.881684e-04
3.227983e-04
0.000000e+00
2.292986e-06
8.773843e-06
1.718966e-05
2.821861e-05
4.230764e-05
5.903009e-05
7.817699e-05
9.964417e-05
1.230591e-04
1.478488e-04
1.735115e-04
1.997750e-04
2.264132e-04
2.531680e-04
2.831683e-04
3.159132e-04
0.000000e+00
1.321315e-06
7.068986e-06
1.557592e-05
2.674070e-05
4.089356e-05
5.774156e-05
7.706275e-05
9.870245e-05
1.223030e-04
1.473132e-04
1.731999e-04
1.995595e-04
2.259459e-04
2.517667e-04
2.795844e-04
3.099299e-04
0.000000e+00
1.120563e-06
6.573385e-06
1.503007e-05
2.632647e-05
4.047981e-05
5.735615e-05
7.675523e-05
9.847525e-05
1.221418e-04
1.472095e-04
1.731185e-04
1.993984e-04
2.256002e-04
2.513864e-04
2.780563e-04
3.059884e-04
0.000000e+00
1.323300e-06
7.066865e-06
1.556564e-05
2.672076e-05
4.086310e-05
5.770989e-05
7.706828e-05
9.879643e-05
1.224955e-04
1.475473e-04
1.733587e-04
1.994748e-04
2.255449e-04
2.514501e-04
2.776112e-04
3.039155e-04
0.000000e+00
2.295930e-06
8.770650e-06
1.717459e-05
2.818888e-05
4.226060e-05
5.898078e-05
7.819293e-05
9.981739e-05
1.234136e-04
1.482976e-04
1.738783e-04
1.997609e-04
2.256904e-04
2.515593e-04
2.774229e-04
3.030250e-04
0.000000e+00
5.154659e-06
1.232602e-05
2.059000e-05
3.178683e-05
4.565336e-05
6.203403e-05
8.094932e-05
1.021875e-04
1.252315e-04
1.495218e-04
1.746076e-04
2.001475e-04
2.258836e-04
2.516478e-04
2.773280e-04
3.027545e-04
0.000000e+00
9.750908e-06
1.657391e-05
2.522148e-05
3.675748e-05
5.036666e-05
6.636015e-05
8.493691e-05
1.056018e-04
1.277727e-04
1.511503e-04
1.755330e-04
2.006299e-04
2.261193e-04
2.517454e-04
2.773186e-04
3.027188e-04


2.241855e+00
2.168262e+00
2.304820e+00
2.512501e+00
2.669585e+00
2.925277e+00
3.255296e+00
3.631989e+00
4.064228e+00
4.512409e+00
4.902231e+00
5.178017e+00
5.282145e+00
5.044933e+00
4.460547e+00
3.984599e+00
3.126513e+00
3.050751e+00
3.128240e+00
3.262884e+00
3.366586e+00
3.549849e+00
3.791819e+00
4.070753e+00
4.396484e+00
4.739638e+00
5.040541e+00
5.250698e+00
5.308621e+00
5.034319e+00
4.439234e+00
3.957844e+00
4.383037e+00
4.331497e+00
4.350635e+00
4.393514e+00
4.425241e+00
4.506607e+00
4.615908e+00
4.744546e+00
4.902613e+00
5.076252e+00
5.232079e+00
5.339870e+00
5.350477e+00
5.114353e+00
4.633367e+00
4.263757e+00
5.141900e+00
5.112127e+00
5.102188e+00
5.091059e+00
5.090583e+00
5.108808e+00
5.133586e+00
5.164875e+00
5.210134e+00
5.266763e+00
5.322789e+00
5.365915e+00
5.369607e+00
5.248055e+00
4.996169e+00
4.802372e+00
5.141854e+00
5.111953e+00
5.101748e+00
5.090119e+00
5.088524e+00
5.104443e+00
5.125680e+00
5.152771e+00
5.193393e+00
5.245030e+00
5.297605e+00
5.344460e+00
5.375779e+00
5.356608e+00
5.279576e+00
5.215972e+00
4.382702e+00
4.330736e+00
4.349079e+00
4.390719e+00
4.419859e+00
4.496522e+00
4.600598e+00
4.726019e+00
4.881393e+00
5.048573e+00
5.195955e+00
5.308317e+00
5.386830e+00
5.428654e+00
5.436276e+00
5.432173e+00
3.125591e+00
3.049166e+00
3.125639e+00
3.259101e+00
3.360801e+00
3.541858e+00
3.786746e+00
4.078534e+00
4.420534e+00
4.769189e+00
5.060947e+00
5.267094e+00
5.397239e+00
5.472064e+00
5.509313e+00
5.523402e+00
2.240455e+00
2.166184e+00
2.301835e+00
2.508918e+00
2.665540e+00
2.922924e+00
3.264822e+00
3.669703e+00
4.135704e+00
4.601183e+00
4.983303e+00
5.246498e+00
5.405682e+00
5.493484e+00
5.537189e+00
5.554927e+00


-5.037125e-01
-2.218289e-01
-1.749383e-01
-2.284979e-01
-1.708993e-01
-1.498868e-01
-1.500819e-01
-1.332758e-01
-1.020045e-01
-4.512184e-02
5.094221e-02
1.727537e-01
2.998468e-01
4.403057e-01
5.996099e-01
-5.011024e-01
5.221761e-01
3.995981e-01
3.558277e-01
3.094717e-01
3.264479e-01
3.279647e-01
3.215208e-01
3.278012e-01
3.499963e-01
4.000693e-01
4.913932e-01
6.210074e-01
7.713750e-01
8.967143e-01
7.649125e-01
-1.259337e+00
8.314624e-01
7.271304e-01
6.365107e-01
5.928317e-01
5.821790e-01
5.717891e-01
5.638484e-01
5.640999e-01
5.752429e-01
6.034898e-01
6.516317e-01
7.051601e-01
7.210266e-01
6.214695e-01
3.086223e-01
-2.419834e-01
9.199466e-01
8.306841e-01
7.438397e-01
6.942382e-01
6.734949e-01
6.628219e-01
6.544433e-01
6.452700e-01
6.331865e-01
6.173087e-01
5.943915e-01
5.510522e-01
4.642835e-01
3.422559e-01
2.866539e-01
3.019441e-01
9.205028e-01
8.313521e-01
7.443797e-01
6.938393e-01
6.708541e-01
6.559019e-01
6.397178e-01
6.168526e-01
5.824409e-01
5.342986e-01
4.736191e-01
4.048913e-01
3.458006e-01
3.505784e-01
4.759893e-01
6.786500e-01
8.327640e-01
7.287500e-01
6.379928e-01
5.927020e-01
5.780032e-01
5.594811e-01
5.358229e-01
5.077811e-01
4.725994e-01
4.333935e-01
3.993991e-01
3.856301e-01
4.189038e-01
5.295463e-01
7.092718e-01
8.959081e-01
5.231134e-01
4.008890e-01
3.571408e-01
3.102462e-01
3.257810e-01
3.240355e-01
3.094546e-01
2.998837e-01
2.989388e-01
3.204795e-01
3.780907e-01
4.708816e-01
5.941278e-01
7.432847e-01
8.893731e-01
9.817968e-01
-5.047330e-01
-2.231411e-01
-1.764536e-01
-2.301343e-01
-1.712931e-01
-1.473789e-01
-1.438235e-01
-1.186418e-01
-5.768651e-02
7.119875e-02
2.827458e-01
5.352542e-01
7.607359e-01
9.118152e-01
9.827436e-01
9.996547e-01
1 2 19 18
2 3 20 19
3 4 21 20
4 5 22 21
5 6 23 22
6 7 24 23
7 8 25 24
8 9 26 25
9 10 27 26
10 11 28 27
11 12 29 28
12 13 30 29
13 14 31 30
14 15 32 31
15 16 33 32
16 17 34 33
18 19 36 35
19 20 37 36
20 21 38 37
21 22 39 38
22 23 40 39
23 24 41 40
24 25 42 41
25 26 43 42
26 27 44 43
27 28 45 44
28 29 46 45
29 30 47 46
30 31 48 47
31 32 49 48
32 33 50 49
33 34 51 50
35 36 53 52
36 37 54 53
37 38 55 54
38 39 56 55
39 40 57 56
40 41 58 57
41 42 59 58
42 43 60 59
43 44 61 60
44 45 62 61
45 46 63 62
46 47 64 63
47 48 65 64
48 49 66 65
49 50 67 66
50 51 68 67
52 53 70 69
53 54 71 70
54 55 72 71
55 56 73 72
56 57 74 73
57 58 75 74
58 59 76 75
59 60 77 76
60 61 78 77
61 62 79 78
62 63 80 79
63 64 81 80
64 65 82 81
65 66 83 82
66 67 84 83
67 68 85 84
69 70 87 86
70 71 88 87
71 72 89 88
72 73 90 89
73 74 91 90
74 75 92 91
75 76 93 92
76 77 94 93
77 78 95 94
78 79 96 95
79 80 97 96
80 81 98 97
81 82 99 98
82 83 100 99
83 84 101 100
84 85 102 101
86 87 104 103
87 88 105 104
88 89 106 105
89 90 107 106
90 91 108 107
91 92 109 108
92 93 110 109
93 94 111 110
94 95 112 111
95 96 113 112
96 97 114 113
97 98 115 114
98 99 116 115
99 100 117 116
100 101 118 117
101 102 119 118
103 104 121 120
104 105 122 121
105 106 123 122
106 107 124 123
107 108 125 124
108 109 126 125
109 110 127 126
110 111 128 127
111 112 129 128
112 113 130 129
113 114 131 130
114 115 132 131
115 116 133 132
116 117 134 133
117 118 135 134
118 119 136 135
120 121 138 137
121 122 139 138
122 123 140 139
123 124 141 140
124 125 142 141
125 126 143 142
126 127 144 143
127 128 145 144
128 129 146 145
129 130 147 146
130 131 148 147
131 132 149 148
132 133 150 149
133 134 151 150
134 135 152 151
135 136 153 152
