TITLE = "Solution"
VARIABLES = x, y, u, v, psiu, psiv, t, stress
ZONE T="structure" N=153 E=128 F=FEBLOCK ET=QUADRILATERAL VARLOCATION=([7,8]=cellcentered)
0.000000e+00
1.250000e+01
2.500000e+01
3.750000e+01
5.000000e+01
6.250000e+01
7.500000e+01
8.750000e+01
1.000000e+02
1.125000e+02
1.250000e+02
1.375000e+02
1.500000e+02
1.625000e+02
1.750000e+02
1.875000e+02
2.000000e+02
0.000000e+00
1.250000e+01
2.500000e+01
3.750000e+01
5.000000e+01
6.250000e+01
7.500000e+01
8.750000e+01
1.000000e+02
1.125000e+02
1.250000e+02
1.375000e+02
1.500000e+02
1.625000e+02
1.750000e+02
1.875000e+02
2.000000e+02
0.000000e+00
1.250000e+01
2.500000e+01
3.750000e+01
5.000000e+01
6.250000e+01
7.500000e+01
8.750000e+01
1.000000e+02
1.125000e+02
1.250000e+02
1.375000e+02
1.500000e+02
1.625000e+02
1.750000e+02
1.875000e+02
2.000000e+02
0.000000e+00
1.250000e+01
2.500000e+01
3.750000e+01
5.000000e+01
6.250000e+01
7.500000e+01
8.750000e+01
1.000000e+02
1.125000e+02
1.250000e+02
1.375000e+02
1.500000e+02
1.625000e+02
1.750000e+02
1.875000e+02
2.000000e+02
0.000000e+00
1.250000e+01
2.500000e+01
3.750000e+01
5.000000e+01
6.250000e+01
7.500000e+01
8.750000e+01
1.000000e+02
1.125000e+02
1.250000e+02
1.375000e+02
1.500000e+02
1.625000e+02
1.750000e+02
1.875000e+02
2.000000e+02
0.000000e+00
1.250000e+01
2.500000e+01
3.750000e+01
5.000000e+01
6.250000e+01
7.500000e+01
8.750000e+01
1.000000e+02
1.125000e+02
1.250000e+02
1.375000e+02
1.500000e+02
1.625000e+02
1.750000e+02
1.875000e+02
2.000000e+02
0.000000e+00
1.250000e+01
2.500000e+01
3.750000e+01
5.000000e+01
6.250000e+01
7.500000e+01
8.750000e+01
1.000000e+02
1.125000e+02
1.250000e+02
1.375000e+02
1.500000e+02
1.625000e+02
1.750000e+02
1.875000e+02
2.000000e+02
0.000000e+00
1.250000e+01
2.500000e+01
3.750000e+01
5.000000e+01
6.250000e+01
7.500000e+01
8.750000e+01
1.000000e+02
1.125000e+02
1.250000e+02
1.375000e+02
1.500000e+02
1.625000e+02
1.750000e+02
1.875000e+02
2.000000e+02
0.000000e+00
1.250000e+01
2.500000e+01
3.750000e+01
5.000000e+01
6.250000e+01
7.500000e+01
8.750000e+01
1.000000e+02
1.125000e+02
1.250000e+02
1.375000e+02
1.500000e+02
1.625000e+02
1.750000e+02
1.875000e+02
2.000000e+02
0.000000e+00
0.000000e+00
0.000000e+00
0.000000e+00
0.000000e+00
0.000000e+00
0.000000e+00
0.000000e+00
0.000000e+00
0.000000e+00
0.000000e+00
0.000000e+00
0.000000e+00
0.000000e+00
0.000000e+00
0.000000e+00
0.000000e+00
1.250000e+01
1.250000e+01
1.250000e+01
1.250000e+01
1.250000e+01
1.250000e+01
1.250000e+01
1.250000e+01
1.250000e+01
1.250000e+01
1.250000e+01
1.250000e+01
1.250000e+01
1.250000e+01
1.250000e+01
1.250000e+01
1.250000e+01
2.500000e+01
2.500000e+01
2.500000e+01
2.500000e+01
2.500000e+01
2.500000e+01
2.500000e+01
2.500000e+01
2.500000e+01
2.500000e+01
2.500000e+01
2.500000e+01
2.500000e+01
2.500000e+01
2.500000e+01
2.500000e+01
2.500000e+01
3.750000e+01
3.750000e+01
3.750000e+01
3.750000e+01
3.750000e+01
3.750000e+01
3.750000e+01
3.750000e+01
3.750000e+01
3.750000e+01
3.750000e+01
3.750000e+01
3.750000e+01
3.750000e+01
3.750000e+01
3.750000e+01
3.750000e+01
5.000000e+01
5.000000e+01
5.000000e+01
5.000000e+01
5.000000e+01
5.000000e+01
5.000000e+01
5.000000e+01
5.000000e+01
5.000000e+01
5.000000e+01
5.000000e+01
5.000000e+01
5.000000e+01
5.000000e+01
5.000000e+01
5.000000e+01
6.250000e+01
6.250000e+01
6.250000e+01
6.250000e+01
6.250000e+01
6.250000e+01
6.250000e+01
6.250000e+01
6.250000e+01
6.250000e+01
6.250000e+01
6.250000e+01
6.250000e+01
6.250000e+01
6.250000e+01
6.250000e+01
6.250000e+01
7.500000e+01
7.500000e+01
7.500000e+01
7.500000e+01
7.500000e+01
7.500000e+01
7.500000e+01
7.500000e+01
7.500000e+01
7.500000e+01
7.500000e+01
7.500000e+01
7.500000e+01
7.500000e+01
7.500000e+01
7.500000e+01
7.500000e+01
8.750000e+01
8.750000e+01
8.750000e+01
8.750000e+01
8.750000e+01
8.750000e+01
8.750000e+01
8.750000e+01
8.750000e+01
8.750000e+01
8.750000e+01
8.750000e+01
8.750000e+01
8.750000e+01
8.750000e+01
8.750000e+01
8.750000e+01
1.000000e+02
1.000000e+02
1.000000e+02
1.000000e+02
1.000000e+02
1.000000e+02
1.000000e+02
1.000000e+02
1.000000e+02
1.000000e+02
1.000000e+02
1.000000e+02
1.000000e+02
1.000000e+02
1.000000e+02
1.000000e+02
1.000000e+02
0.000000e+00
-7.177847e-02
-1.321669e-01
-1.877321e-01
-2.394788e-01
-2.872979e-01
-3.310867e-01
-3.708113e-01
-4.065296e-01
-4.384059e-01
-4.667564e-01
-4.921351e-01
-5.154952e-01
-5.384836e-01
-5.639402e-01
-5.952042e-01
-6.186644e-01
0.000000e+00
-4.286484e-02
-8.904337e-02
-1.316863e-01
-1.709735e-01
-2.070544e-01
-2.400038e-01
-2.698658e-01
-2.966944e-01
-3.205720e-01
-3.416201e-01
-3.599901e-01
-3.757995e-01
-3.888853e-01
-3.981155e-01
-4.001386e-01
-4.073919e-01
0.000000e+00
-2.680645e-02
-5.512077e-02
-8.336848e-02
-1.097368e-01
-1.339467e-01
-1.559783e-01
-1.758567e-01
-1.935868e-01
-2.091390e-01
-2.224296e-01
-2.332729e-01
-2.412824e-01
-2.457535e-01
-2.458776e-01
-2.440915e-01
-2.514893e-01
0.000000e+00
-1.293845e-02
-2.663554e-02
-4.041912e-02
-5.359871e-02
-6.573792e-02
-7.674092e-02
-8.657566e-02
-9.518584e-02
-1.024594e-01
-1.082106e-01
-1.121677e-01
-1.140070e-01
-1.135773e-01
-1.118119e-01
-1.122947e-01
-1.178031e-01
0.000000e+00
-1.191871e-05
-2.709497e-05
-4.222140e-05
-5.024925e-05
-3.546018e-05
3.334475e-05
2.121482e-04
5.927972e-04
1.312103e-03
2.548556e-03
4.481463e-03
7.159274e-03
1.018534e-02
1.227564e-02
1.170234e-02
8.055272e-03
0.000000e+00
1.292011e-02
2.659296e-02
4.035102e-02
5.351400e-02
6.566903e-02
7.676765e-02
8.686415e-02
9.604609e-02
1.044199e-01
1.120952e-01
1.191285e-01
1.253979e-01
1.304252e-01
1.333825e-01
1.336171e-01
1.317660e-01
0.000000e+00
2.680344e-02
5.511160e-02
8.335023e-02
1.097083e-01
1.339112e-01
1.559489e-01
1.758663e-01
1.937046e-01
2.094957e-01
2.232531e-01
2.349433e-01
2.444319e-01
2.514472e-01
2.556579e-01
2.570251e-01
2.565935e-01
0.000000e+00
4.288243e-02
8.908160e-02
1.317472e-01
1.710552e-01
2.071419e-01
2.400529e-01
2.697761e-01
2.962661e-01
3.194466e-01
3.392075e-01
3.554123e-01
3.679312e-01
3.767230e-01
3.819674e-01
3.842039e-01
3.846146e-01
0.000000e+00
7.180788e-02
1.322445e-01
1.878774e-01
2.397110e-01
2.876244e-01
3.314762e-01
3.711388e-01
4.064797e-01
4.373152e-01
4.633778e-01
4.843202e-01
4.997983e-01
5.096905e-01
5.144745e-01
5.156553e-01
5.156326e-01
0.000000e+00
-4.344949e-02
-8.529638e-02
-1.395202e-01
-2.060687e-01
-2.848175e-01
-3.749039e-01
-4.753200e-01
-5.849978e-01
-7.028839e-01
-8.280049e-01
-9.595862e-01
-1.097311e+00
-1.241913e+00
-1.397146e+00
-1.574760e+00
-1.829960e+00
0.000000e+00
-2.674830e-02
-7.040148e-02
-1.252977e-01
-1.929339e-01
-2.727573e-01
-3.639351e-01
-4.654346e-01
-5.761754e-01
-6.950851e-01
-8.211634e-01
-9.536002e-01
-1.092029e+00
-1.237166e+00
-1.392338e+00
-1.568875e+00
-1.785150e+00
0.000000e+00
-2.018396e-02
-6.007559e-02
-1.151744e-01
-1.834501e-01
-2.640951e-01
-3.561110e-01
-4.584550e-01
-5.700543e-01
-6.898515e-01
-8.168656e-01
-9.503146e-01
-1.089867e+00
-1.236120e+00
-1.391425e+00
-1.558700e+00
-1.720586e+00
0.000000e+00
-1.739309e-02
-5.494161e-02
-1.092324e-01
-1.777548e-01
-2.588962e-01
-3.514859e-01
-4.544412e-01
-5.667096e-01
-6.872624e-01
-8.151399e-01
-9.495446e-01
-1.089987e+00
-1.236402e+00
-1.388601e+00
-1.542302e+00
-1.683897e+00
0.000000e+00
-1.658910e-02
-5.338782e-02
-1.073368e-01
-1.758779e-01
-2.572213e-01
-3.500771e-01
-4.533639e-01
-5.660489e-01
-6.871205e-01
-8.155974e-01
-9.505561e-01
-1.091124e+00
-1.236264e+00
-1.383805e+00
-1.528700e+00
-1.662185e+00
0.000000e+00
-1.738277e-02
-5.493426e-02
-1.092454e-01
-1.778191e-01
-2.590654e-01
-3.518478e-01
-4.551266e-01
-5.678914e-01
-6.891251e-01
-8.177832e-01
-9.527482e-01
-1.092714e+00
-1.235901e+00
-1.379556e+00
-1.519483e+00
-1.650118e+00
0.000000e+00
-2.016712e-02
-6.006341e-02
-1.151963e-01
-1.835583e-01
-2.643814e-01
-3.567247e-01
-4.596189e-01
-5.720637e-01
-6.930245e-01
-8.213864e-01
-9.558601e-01
-1.094825e+00
-1.236135e+00
-1.377006e+00
-1.514247e+00
-1.644796e+00
0.000000e+00
-2.673251e-02
-7.039088e-02
-1.253267e-01
-1.930638e-01
-2.730939e-01
-3.646494e-01
-4.667799e-01
-5.784837e-01
-6.987076e-01
-8.262910e-01
-9.598524e-01
-1.097634e+00
-1.237370e+00
-1.376367e+00
-1.512083e+00
-1.643546e+00
0.000000e+00
-4.344296e-02
-8.529730e-02
-1.395651e-01
-2.062194e-01
-2.851772e-01
-3.756348e-01
-4.766535e-01
-5.872211e-01
-7.062658e-01
-8.325991e-01
-9.648089e-01
-1.101125e+00
-1.239333e+00
-1.376910e+00
-1.511687e+00
-1.643566e+00


0.000000e+00
9.415391e-11
1.947237e-10
2.838215e-10
3.590986e-10
4.202510e-10
4.684203e-10
5.053428e-10
5.329664e-10
5.530897e-10
5.674269e-10
5.774876e-10
5.846608e-10
5.902344e-10
5.954172e-10
6.018045e-10
6.094677e-10
0.000000e+00
6.403516e-11
1.509061e-10
2.216921e-10
2.784797e-10
3.233640e-10
3.580063e-10
3.841321e-10
4.033093e-10
4.169590e-10
4.263257e-10
4.324064e-10
4.360003e-10
4.377698e-10
4.395635e-10
4.447883e-10
4.526781e-10
0.000000e+00
4.767729e-11
1.048194e-10
1.525690e-10
1.909478e-10
2.205772e-10
2.429034e-10
2.593006e-10
2.710081e-10
2.789966e-10
2.841101e-10
2.870034e-10
2.882944e-10
2.887917e-10
2.900513e-10
2.941429e-10
3.005292e-10
0.000000e+00
2.551777e-11
5.228443e-11
7.616961e-11
9.571379e-11
1.106550e-10
1.216918e-10
1.296126e-10
1.350824e-10
1.386202e-10
1.406743e-10
1.416562e-10
1.420549e-10
1.424961e-10
1.435994e-10
1.460881e-10
1.500232e-10
0.000000e+00
-2.356941e-14
-6.478844e-14
-1.210281e-13
-2.005984e-13
-3.185707e-13
-4.749021e-13
-7.051282e-13
-1.010110e-12
-1.396031e-12
-1.837410e-12
-2.218256e-12
-2.377420e-12
-2.120935e-12
-1.444538e-12
-2.462159e-13
1.802925e-12
0.000000e+00
-2.557802e-11
-5.240480e-11
-7.638118e-11
-9.604072e-11
-1.111542e-10
-1.224428e-10
-1.307128e-10
-1.366560e-10
-1.408031e-10
-1.435665e-10
-1.452701e-10
-1.461460e-10
-1.464379e-10
-1.464235e-10
-1.461273e-10
-1.452471e-10
0.000000e+00
-4.770063e-11
-1.048913e-10
-1.527064e-10
-1.911725e-10
-2.209058e-10
-2.433438e-10
-2.598722e-10
-2.717325e-10
-2.799129e-10
-2.853027e-10
-2.886201e-10
-2.905226e-10
-2.915442e-10
-2.920936e-10
-2.922829e-10
-2.920350e-10
0.000000e+00
-6.405917e-11
-1.509628e-10
-2.217924e-10
-2.786053e-10
-3.235109e-10
-3.581523e-10
-3.842255e-10
-4.032816e-10
-4.167329e-10
-4.258355e-10
-4.316967e-10
-4.352823e-10
-4.373631e-10
-4.385139e-10
-4.390377e-10
-4.391091e-10
0.000000e+00
-9.420022e-11
-1.948064e-10
-2.839155e-10
-3.591853e-10
-4.202980e-10
-4.683436e-10
-5.050635e-10
-5.323485e-10
-5.519796e-10
-5.656503e-10
-5.747796e-10
-5.806218e-10
-5.841172e-10
-5.859583e-10
-5.866695e-10
-5.867797e-10
0.000000e+00
8.552643e-11
1.537284e-10
2.253145e-10
3.112541e-10
4.124361e-10
5.267858e-10
6.516258e-10
7.843954e-10
9.229614e-10
1.065711e-09
1.211557e-09
1.360021e-09
1.512129e-09
1.671929e-09
1.841529e-09
2.013334e-09
0.000000e+00
4.598033e-11
1.126291e-10
1.890138e-10
2.814894e-10
3.889305e-10
5.088067e-10
6.382312e-10
7.746812e-10
9.161545e-10
1.061105e-09
1.208548e-09
1.358072e-09
1.510130e-09
1.666696e-09
1.831575e-09
2.000578e-09
0.000000e+00
2.267533e-11
8.036057e-11
1.606716e-10
2.584641e-10
3.710901e-10
4.953616e-10
6.283636e-10
7.676752e-10
9.113824e-10
1.058055e-09
1.206767e-09
1.357025e-09
1.508564e-09
1.661575e-09
1.820993e-09
1.985465e-09
0.000000e+00
1.289736e-11
6.513074e-11
1.458115e-10
2.463879e-10
3.618584e-10
4.885187e-10
6.234274e-10
7.642495e-10
9.091516e-10
1.056748e-09
1.206079e-09
1.356501e-09
1.507321e-09
1.658395e-09
1.813473e-09
1.972214e-09
0.000000e+00
1.041664e-11
6.097447e-11
1.413172e-10
2.426731e-10
3.590535e-10
4.864794e-10
6.220021e-10
7.633352e-10
9.086378e-10
1.056540e-09
1.206008e-09
1.356275e-09
1.506653e-09
1.656901e-09
1.809167e-09
1.962787e-09
0.000000e+00
1.291949e-11
6.516096e-11
1.458554e-10
2.464433e-10
3.619411e-10
4.886505e-10
6.236416e-10
7.645918e-10
9.096310e-10
1.057325e-09
1.206573e-09
1.356561e-09
1.506637e-09
1.656555e-09
1.807089e-09
1.957357e-09
0.000000e+00
2.270590e-11
8.040739e-11
1.607513e-10
2.585607e-10
3.712567e-10
4.956316e-10
6.287915e-10
7.683531e-10
9.123221e-10
1.059216e-09
1.207845e-09
1.357336e-09
1.507063e-09
1.656659e-09
1.806165e-09
1.954819e-09
0.000000e+00
4.603344e-11
1.127079e-10
1.891499e-10
2.816490e-10
3.891826e-10
5.091870e-10
6.388066e-10
7.755375e-10
9.173192e-10
1.062535e-09
1.209923e-09
1.358549e-09
1.507692e-09
1.656893e-09
1.805813e-09
1.953971e-09
0.000000e+00
8.559232e-11
1.538423e-10
2.254859e-10
3.114750e-10
4.127312e-10
5.271994e-10
6.522081e-10
7.852042e-10
9.240211e-10
1.066964e-09
1.212678e-09
1.360124e-09
1.508509e-09
1.657227e-09
1.805790e-09
1.953835e-09


2.097306e-01
2.097306e-01
2.097306e-01
2.097306e-01
2.097306e-01
2.097306e-01
2.097306e-01
2.097306e-01
2.097306e-01
2.097306e-01
2.097306e-01
2.097306e-01
2.097306e-01
2.097306e-01
2.097306e-01
2.097306e-01
2.097306e-01
2.097306e-01
2.097306e-01
2.097306e-01
2.097306e-01
2.097306e-01
2.097306e-01
2.097306e-01
2.097306e-01
2.097306e-01
2.097306e-01
2.097306e-01
2.097306e-01
2.097306e-01
2.097306e-01
2.097306e-01
2.097306e-01
2.097306e-01
2.097306e-01
2.097306e-01
2.097306e-01
2.097306e-01
2.097306e-01
2.097306e-01
2.097306e-01
2.097306e-01
2.097306e-01
2.097306e-01
2.097306e-01
2.097306e-01
2.097306e-01
2.097306e-01
2.097306e-01
2.097306e-01
2.097306e-01
2.097306e-01
2.097306e-01
2.097306e-01
2.097306e-01
2.097306e-01
2.097306e-01
2.097306e-01
2.097306e-01
2.097306e-01
2.097306e-01
2.097306e-01
2.097306e-01
2.097306e-01
2.097306e-01
2.097306e-01
2.097306e-01
2.097306e-01
2.097306e-01
2.097306e-01
2.097306e-01
2.097306e-01
2.097306e-01
2.097306e-01
2.097306e-01
2.097306e-01
2.097306e-01
2.097306e-01
2.097306e-01
2.097306e-01
2.097306e-01
2.097306e-01
2.097306e-01
2.097306e-01
2.097306e-01
2.097306e-01
2.097306e-01
2.097306e-01
2.097306e-01
2.097306e-01
2.097306e-01
2.097306e-01
2.097306e-01
2.097306e-01
2.097306e-01
2.097306e-01
2.097306e-01
2.097306e-01
2.097306e-01
2.097306e-01
2.097306e-01
2.097306e-01
2.097306e-01
2.097306e-01
2.097306e-01
2.097306e-01
2.097306e-01
2.097306e-01
2.097306e-01
2.097306e-01
2.097306e-01
2.097306e-01
2.097306e-01
2.097306e-01
2.097306e-01
2.097306e-01
2.097306e-01
2.097306e-01
2.097306e-01
2.097306e-01
2.097306e-01
2.097306e-01
2.097306e-01
2.097306e-01
2.097306e-01
2.097306e-01
2.097306e-01
2.097306e-01


9.884085e-01
9.900523e-01
9.915729e-01
9.927434e-01
9.938300e-01
9.948318e-01
9.957446e-01
9.965576e-01
9.972622e-01
9.978515e-01
9.983201e-01
9.986634e-01
9.988767e-01
9.989529e-01
9.990078e-01
9.956203e-01
9.956147e-01
9.948615e-01
9.953461e-01
9.959786e-01
9.965683e-01
9.971043e-01
9.975895e-01
9.980290e-01
9.984269e-01
9.987873e-01
9.991143e-01
9.994105e-01
9.996688e-01
9.998380e-01
9.994102e-01
9.936114e-01
9.984763e-01
9.980437e-01
9.979269e-01
9.980912e-01
9.983073e-01
9.985166e-01
9.987110e-01
9.988947e-01
9.990725e-01
9.992460e-01
9.994080e-01
9.995334e-01
9.995596e-01
9.993337e-01
9.985144e-01
9.970407e-01
9.996899e-01
9.993744e-01
9.991794e-01
9.991300e-01
9.991497e-01
9.991829e-01
9.992160e-01
9.992483e-01
9.992800e-01
9.993066e-01
9.993140e-01
9.992745e-01
9.991492e-01
9.989243e-01
9.987337e-01
9.986854e-01
9.996911e-01
9.993760e-01
9.991809e-01
9.991297e-01
9.991448e-01
9.991687e-01
9.991853e-01
9.991909e-01
9.991833e-01
9.991589e-01
9.991134e-01
9.990478e-01
9.989854e-01
9.989978e-01
9.991743e-01
9.994797e-01
9.984785e-01
9.980470e-01
9.979300e-01
9.980912e-01
9.982989e-01
9.984907e-01
9.986530e-01
9.987835e-01
9.988812e-01
9.989470e-01
9.989886e-01
9.990293e-01
9.991147e-01
9.992938e-01
9.995628e-01
9.998410e-01
9.956143e-01
9.948612e-01
9.953454e-01
9.959768e-01
9.965637e-01
9.970938e-01
9.975677e-01
9.979873e-01
9.983529e-01
9.986654e-01
9.989300e-01
9.991610e-01
9.993836e-01
9.996168e-01
9.998350e-01
9.999724e-01
9.884006e-01
9.900399e-01
9.915577e-01
9.927264e-01
9.938147e-01
9.948263e-01
9.957635e-01
9.966240e-01
9.974081e-01
9.981142e-01
9.987339e-01
9.992481e-01
9.996305e-01
9.998665e-01
9.999738e-01
9.999994e-01
1 2 19 18
2 3 20 19
3 4 21 20
4 5 22 21
5 6 23 22
6 7 24 23
7 8 25 24
8 9 26 25
9 10 27 26
10 11 28 27
11 12 29 28
12 13 30 29
13 14 31 30
14 15 32 31
15 16 33 32
16 17 34 33
18 19 36 35
19 20 37 36
20 21 38 37
21 22 39 38
22 23 40 39
23 24 41 40
24 25 42 41
25 26 43 42
26 27 44 43
27 28 45 44
28 29 46 45
29 30 47 46
30 31 48 47
31 32 49 48
32 33 50 49
33 34 51 50
35 36 53 52
36 37 54 53
37 38 55 54
38 39 56 55
39 40 57 56
40 41 58 57
41 42 59 58
42 43 60 59
43 44 61 60
44 45 62 61
45 46 63 62
46 47 64 63
47 48 65 64
48 49 66 65
49 50 67 66
50 51 68 67
52 53 70 69
53 54 71 70
54 55 72 71
55 56 73 72
56 57 74 73
57 58 75 74
58 59 76 75
59 60 77 76
60 61 78 77
61 62 79 78
62 63 80 79
63 64 81 80
64 65 82 81
65 66 83 82
66 67 84 83
67 68 85 84
69 70 87 86
70 71 88 87
71 72 89 88
72 73 90 89
73 74 91 90
74 75 92 91
75 76 93 92
76 77 94 93
77 78 95 94
78 79 96 95
79 80 97 96
80 81 98 97
81 82 99 98
82 83 100 99
83 84 101 100
84 85 102 101
86 87 104 103
87 88 105 104
88 89 106 105
89 90 107 106
90 91 108 107
91 92 109 108
92 93 110 109
93 94 111 110
94 95 112 111
95 96 113 112
96 97 114 113
97 98 115 114
98 99 116 115
99 100 117 116
100 101 118 117
101 102 119 118
103 104 121 120
104 105 122 121
105 106 123 122
106 107 124 123
107 108 125 124
108 109 126 125
109 110 127 126
110 111 128 127
111 112 129 128
112 113 130 129
113 114 131 130
114 115 132 131
115 116 133 132
116 117 134 133
117 118 135 134
118 119 136 135
120 121 138 137
121 122 139 138
122 123 140 139
123 124 141 140
124 125 142 141
125 126 143 142
126 127 144 143
127 128 145 144
128 129 146 145
129 130 147 146
130 131 148 147
131 132 149 148
132 133 150 149
133 134 151 150
134 135 152 151
135 136 153 152
