TITLE = "Solution"
VARIABLES = x, y, u, v, psiu, psiv, t, stress
ZONE T="structure" N=153 E=128 F=FEBLOCK ET=QUADRILATERAL VARLOCATION=([7,8]=cellcentered)
0.000000e+00
1.250000e+01
2.500000e+01
3.750000e+01
5.000000e+01
6.250000e+01
7.500000e+01
8.750000e+01
1.000000e+02
1.125000e+02
1.250000e+02
1.375000e+02
1.500000e+02
1.625000e+02
1.750000e+02
1.875000e+02
2.000000e+02
0.000000e+00
1.250000e+01
2.500000e+01
3.750000e+01
5.000000e+01
6.250000e+01
7.500000e+01
8.750000e+01
1.000000e+02
1.125000e+02
1.250000e+02
1.375000e+02
1.500000e+02
1.625000e+02
1.750000e+02
1.875000e+02
2.000000e+02
0.000000e+00
1.250000e+01
2.500000e+01
3.750000e+01
5.000000e+01
6.250000e+01
7.500000e+01
8.750000e+01
1.000000e+02
1.125000e+02
1.250000e+02
1.375000e+02
1.500000e+02
1.625000e+02
1.750000e+02
1.875000e+02
2.000000e+02
0.000000e+00
1.250000e+01
2.500000e+01
3.750000e+01
5.000000e+01
6.250000e+01
7.500000e+01
8.750000e+01
1.000000e+02
1.125000e+02
1.250000e+02
1.375000e+02
1.500000e+02
1.625000e+02
1.750000e+02
1.875000e+02
2.000000e+02
0.000000e+00
1.250000e+01
2.500000e+01
3.750000e+01
5.000000e+01
6.250000e+01
7.500000e+01
8.750000e+01
1.000000e+02
1.125000e+02
1.250000e+02
1.375000e+02
1.500000e+02
1.625000e+02
1.750000e+02
1.875000e+02
2.000000e+02
0.000000e+00
1.250000e+01
2.500000e+01
3.750000e+01
5.000000e+01
6.250000e+01
7.500000e+01
8.750000e+01
1.000000e+02
1.125000e+02
1.250000e+02
1.375000e+02
1.500000e+02
1.625000e+02
1.750000e+02
1.875000e+02
2.000000e+02
0.000000e+00
1.250000e+01
2.500000e+01
3.750000e+01
5.000000e+01
6.250000e+01
7.500000e+01
8.750000e+01
1.000000e+02
1.125000e+02
1.250000e+02
1.375000e+02
1.500000e+02
1.625000e+02
1.750000e+02
1.875000e+02
2.000000e+02
0.000000e+00
1.250000e+01
2.500000e+01
3.750000e+01
5.000000e+01
6.250000e+01
7.500000e+01
8.750000e+01
1.000000e+02
1.125000e+02
1.250000e+02
1.375000e+02
1.500000e+02
1.625000e+02
1.750000e+02
1.875000e+02
2.000000e+02
0.000000e+00
1.250000e+01
2.500000e+01
3.750000e+01
5.000000e+01
6.250000e+01
7.500000e+01
8.750000e+01
1.000000e+02
1.125000e+02
1.250000e+02
1.375000e+02
1.500000e+02
1.625000e+02
1.750000e+02
1.875000e+02
2.000000e+02
0.000000e+00
0.000000e+00
0.000000e+00
0.000000e+00
0.000000e+00
0.000000e+00
0.000000e+00
0.000000e+00
0.000000e+00
0.000000e+00
0.000000e+00
0.000000e+00
0.000000e+00
0.000000e+00
0.000000e+00
0.000000e+00
0.000000e+00
1.250000e+01
1.250000e+01
1.250000e+01
1.250000e+01
1.250000e+01
1.250000e+01
1.250000e+01
1.250000e+01
1.250000e+01
1.250000e+01
1.250000e+01
1.250000e+01
1.250000e+01
1.250000e+01
1.250000e+01
1.250000e+01
1.250000e+01
2.500000e+01
2.500000e+01
2.500000e+01
2.500000e+01
2.500000e+01
2.500000e+01
2.500000e+01
2.500000e+01
2.500000e+01
2.500000e+01
2.500000e+01
2.500000e+01
2.500000e+01
2.500000e+01
2.500000e+01
2.500000e+01
2.500000e+01
3.750000e+01
3.750000e+01
3.750000e+01
3.750000e+01
3.750000e+01
3.750000e+01
3.750000e+01
3.750000e+01
3.750000e+01
3.750000e+01
3.750000e+01
3.750000e+01
3.750000e+01
3.750000e+01
3.750000e+01
3.750000e+01
3.750000e+01
5.000000e+01
5.000000e+01
5.000000e+01
5.000000e+01
5.000000e+01
5.000000e+01
5.000000e+01
5.000000e+01
5.000000e+01
5.000000e+01
5.000000e+01
5.000000e+01
5.000000e+01
5.000000e+01
5.000000e+01
5.000000e+01
5.000000e+01
6.250000e+01
6.250000e+01
6.250000e+01
6.250000e+01
6.250000e+01
6.250000e+01
6.250000e+01
6.250000e+01
6.250000e+01
6.250000e+01
6.250000e+01
6.250000e+01
6.250000e+01
6.250000e+01
6.250000e+01
6.250000e+01
6.250000e+01
7.500000e+01
7.500000e+01
7.500000e+01
7.500000e+01
7.500000e+01
7.500000e+01
7.500000e+01
7.500000e+01
7.500000e+01
7.500000e+01
7.500000e+01
7.500000e+01
7.500000e+01
7.500000e+01
7.500000e+01
7.500000e+01
7.500000e+01
8.750000e+01
8.750000e+01
8.750000e+01
8.750000e+01
8.750000e+01
8.750000e+01
8.750000e+01
8.750000e+01
8.750000e+01
8.750000e+01
8.750000e+01
8.750000e+01
8.750000e+01
8.750000e+01
8.750000e+01
8.750000e+01
8.750000e+01
1.000000e+02
1.000000e+02
1.000000e+02
1.000000e+02
1.000000e+02
1.000000e+02
1.000000e+02
1.000000e+02
1.000000e+02
1.000000e+02
1.000000e+02
1.000000e+02
1.000000e+02
1.000000e+02
1.000000e+02
1.000000e+02
1.000000e+02
0.000000e+00
-8.641337e-01
-1.549247e+00
-2.222379e+00
-2.905960e+00
-3.567743e+00
-4.228099e+00
-4.890576e+00
-5.547363e+00
-6.201372e+00
-6.854534e+00
-7.499415e+00
-8.128292e+00
-8.746082e+00
-9.365965e+00
-1.000334e+01
-1.043483e+01
0.000000e+00
-4.587052e-01
-9.531020e-01
-1.449451e+00
-1.960920e+00
-2.456618e+00
-2.950378e+00
-3.445699e+00
-3.935968e+00
-4.421822e+00
-4.902492e+00
-5.367549e+00
-5.799595e+00
-6.172199e+00
-6.426259e+00
-6.485076e+00
-6.633812e+00
0.000000e+00
-2.416556e-01
-5.150418e-01
-8.326764e-01
-1.169293e+00
-1.502214e+00
-1.836688e+00
-2.170899e+00
-2.499591e+00
-2.819705e+00
-3.124214e+00
-3.398314e+00
-3.619677e+00
-3.757443e+00
-3.780074e+00
-3.749671e+00
-3.901411e+00
0.000000e+00
-1.037130e-01
-2.247018e-01
-3.738800e-01
-5.365846e-01
-7.044328e-01
-8.739830e-01
-1.041273e+00
-1.202498e+00
-1.352340e+00
-1.481849e+00
-1.578011e+00
-1.625487e+00
-1.613528e+00
-1.563341e+00
-1.568161e+00
-1.693322e+00
0.000000e+00
-8.077890e-04
-1.630193e-03
-2.317006e-03
-2.591784e-03
-1.959640e-03
4.418307e-04
6.018188e-03
1.707719e-02
3.736728e-02
7.226508e-02
1.277009e-01
2.064716e-01
2.989558e-01
3.684048e-01
3.640550e-01
2.717917e-01
0.000000e+00
1.023389e-01
2.219118e-01
3.698130e-01
5.318303e-01
7.004065e-01
8.734761e-01
1.049381e+00
1.228106e+00
1.410258e+00
1.595192e+00
1.779566e+00
1.954886e+00
2.102871e+00
2.194941e+00
2.208080e+00
2.158310e+00
0.000000e+00
2.409344e-01
5.135056e-01
8.302293e-01
1.166007e+00
1.498562e+00
1.833509e+00
2.169926e+00
2.504570e+00
2.836498e+00
3.159698e+00
3.460466e+00
3.720825e+00
3.921592e+00
4.045444e+00
4.087018e+00
4.075538e+00
0.000000e+00
4.587426e-01
9.530841e-01
1.449199e+00
1.960214e+00
2.455162e+00
2.947084e+00
3.438766e+00
3.923860e+00
4.400584e+00
4.858369e+00
5.271757e+00
5.612086e+00
5.859961e+00
6.010547e+00
6.075218e+00
6.087235e+00
0.000000e+00
8.647087e-01
1.550634e+00
2.224692e+00
2.909242e+00
3.571816e+00
4.231702e+00
4.891250e+00
5.541959e+00
6.180397e+00
6.787969e+00
7.323777e+00
7.743551e+00
8.019991e+00
8.154902e+00
8.187566e+00
8.186504e+00
0.000000e+00
-5.340040e-01
-1.115919e+00
-1.888265e+00
-2.829202e+00
-3.936991e+00
-5.219818e+00
-6.676379e+00
-8.304927e+00
-1.010647e+01
-1.207928e+01
-1.421819e+01
-1.652041e+01
-1.899450e+01
-2.169925e+01
-2.484823e+01
-2.948325e+01
0.000000e+00
-3.399622e-01
-9.481647e-01
-1.711333e+00
-2.653719e+00
-3.764323e+00
-5.046882e+00
-6.504315e+00
-8.134758e+00
-9.937944e+00
-1.191402e+01
-1.406005e+01
-1.637365e+01
-1.886734e+01
-2.159418e+01
-2.474287e+01
-2.860742e+01
0.000000e+00
-2.837301e-01
-8.391259e-01
-1.594159e+00
-2.531599e+00
-3.641655e+00
-4.925032e+00
-6.384359e+00
-8.018312e+00
-9.827310e+00
-1.181281e+01
-1.397350e+01
-1.630927e+01
-1.883432e+01
-2.158064e+01
-2.455522e+01
-2.737118e+01
0.000000e+00
-2.852066e-01
-8.011600e-01
-1.534891e+00
-2.462747e+00
-3.570071e+00
-4.854881e+00
-6.317469e+00
-7.957515e+00
-9.776710e+00
-1.177677e+01
-1.395584e+01
-1.631065e+01
-1.884068e+01
-2.152333e+01
-2.421847e+01
-2.659738e+01
0.000000e+00
-2.907349e-01
-7.954791e-01
-1.519396e+00
-2.442244e+00
-3.549117e+00
-4.836235e+00
-6.302900e+00
-7.949728e+00
-9.779347e+00
-1.179288e+01
-1.398503e+01
-1.634239e+01
-1.883900e+01
-2.140610e+01
-2.389319e+01
-2.606116e+01
0.000000e+00
-2.850552e-01
-8.014532e-01
-1.536282e+00
-2.466148e+00
-3.576855e+00
-4.866894e+00
-6.337128e+00
-7.988571e+00
-9.824528e+00
-1.184555e+01
-1.404118e+01
-1.638522e+01
-1.882982e+01
-2.129219e+01
-2.364653e+01
-2.573212e+01
0.000000e+00
-2.834691e-01
-8.395611e-01
-1.596328e+00
-2.537009e+00
-3.652567e+00
-4.944541e+00
-6.416573e+00
-8.069563e+00
-9.906805e+00
-1.192812e+01
-1.411824e+01
-1.644063e+01
-1.883557e+01
-2.122012e+01
-2.349876e+01
-2.558239e+01
0.000000e+00
-3.397035e-01
-9.486246e-01
-1.713694e+00
-2.659718e+00
-3.776465e+00
-5.068643e+00
-6.540535e+00
-8.192739e+00
-1.002768e+01
-1.204297e+01
-1.421948e+01
-1.651596e+01
-1.886949e+01
-2.120125e+01
-2.343643e+01
-2.554775e+01
0.000000e+00
-5.339033e-01
-1.116523e+00
-1.890791e+00
-2.835409e+00
-3.949281e+00
-5.241437e+00
-6.712194e+00
-8.361997e+00
-1.019241e+01
-1.219597e+01
-1.434942e+01
-1.661191e+01
-1.892463e+01
-2.121635e+01
-2.342483e+01
-2.554873e+01


0.000000e+00
1.215227e-05
2.270413e-05
3.334300e-05
4.551962e-05
5.743518e-05
6.852292e-05
7.924393e-05
8.950536e-05
9.879662e-05
1.065244e-04
1.122443e-04
1.161132e-04
1.189360e-04
1.213351e-04
1.242240e-04
1.276735e-04
0.000000e+00
8.963383e-06
1.833922e-05
2.628093e-05
3.575853e-05
4.497145e-05
5.321211e-05
6.114536e-05
6.881345e-05
7.561727e-05
8.098499e-05
8.453437e-05
8.628896e-05
8.662299e-05
8.678116e-05
8.913063e-05
9.307325e-05
0.000000e+00
6.921023e-06
1.336027e-05
1.883979e-05
2.524220e-05
3.126832e-05
3.667716e-05
4.181828e-05
4.661856e-05
5.069183e-05
5.372500e-05
5.552631e-05
5.614997e-05
5.603277e-05
5.623270e-05
5.844771e-05
6.222261e-05
0.000000e+00
3.505545e-06
6.290835e-06
9.544675e-06
1.260406e-05
1.545516e-05
1.816094e-05
2.066631e-05
2.284154e-05
2.460579e-05
2.585968e-05
2.656589e-05
2.686615e-05
2.712706e-05
2.777172e-05
2.937349e-05
3.188039e-05
0.000000e+00
-1.554275e-08
-3.271654e-08
-5.027541e-08
-6.820424e-08
-8.852232e-08
-1.137906e-07
-1.543676e-07
-2.383967e-07
-4.020724e-07
-6.422018e-07
-8.815710e-07
-9.698966e-07
-7.392587e-07
-2.490248e-07
4.130261e-07
1.547900e-06
0.000000e+00
-3.533029e-06
-6.346358e-06
-9.630421e-06
-1.272170e-05
-1.560404e-05
-1.833828e-05
-2.087956e-05
-2.314375e-05
-2.509101e-05
-2.663623e-05
-2.769374e-05
-2.823951e-05
-2.837331e-05
-2.837618e-05
-2.835464e-05
-2.800827e-05
0.000000e+00
-6.935478e-06
-1.339055e-05
-1.889317e-05
-2.532929e-05
-3.137912e-05
-3.679173e-05
-4.194219e-05
-4.672977e-05
-5.066052e-05
-5.343324e-05
-5.510964e-05
-5.600158e-05
-5.646232e-05
-5.675488e-05
-5.693276e-05
-5.687722e-05
0.000000e+00
-8.964618e-06
-1.834018e-05
-2.628781e-05
-3.578795e-05
-4.501016e-05
-5.323383e-05
-6.118399e-05
-6.884552e-05
-7.531404e-05
-7.988715e-05
-8.262801e-05
-8.413848e-05
-8.498694e-05
-8.548556e-05
-8.573587e-05
-8.578001e-05
0.000000e+00
-1.215109e-05
-2.268660e-05
-3.330499e-05
-4.546635e-05
-5.735208e-05
-6.838528e-05
-7.907967e-05
-8.930876e-05
-9.824768e-05
-1.050824e-04
-1.096451e-04
-1.123923e-04
-1.139203e-04
-1.146734e-04
-1.149372e-04
-1.149751e-04
0.000000e+00
1.046486e-05
1.765093e-05
2.707762e-05
3.968350e-05
5.437393e-05
7.179372e-05
9.231545e-05
1.154227e-04
1.405556e-04
1.672814e-04
1.952607e-04
2.244825e-04
2.555824e-04
2.911868e-04
3.325976e-04
3.746580e-04
0.000000e+00
5.632563e-06
1.327822e-05
2.206824e-05
3.420518e-05
4.920757e-05
6.696790e-05
8.764159e-05
1.110645e-04
1.368298e-04
1.644719e-04
1.934795e-04
2.235444e-04
2.549482e-04
2.887419e-04
3.276658e-04
3.685347e-04
0.000000e+00
2.559976e-06
9.514175e-06
1.835020e-05
3.017134e-05
4.541871e-05
6.352915e-05
8.440610e-05
1.081066e-04
1.343702e-04
1.626793e-04
1.924285e-04
2.231438e-04
2.543969e-04
2.858014e-04
3.214244e-04
3.601985e-04
0.000000e+00
1.493880e-06
7.654060e-06
1.662989e-05
2.855030e-05
4.383040e-05
6.207089e-05
8.313174e-05
1.070122e-04
1.334710e-04
1.620022e-04
1.919904e-04
2.228369e-04
2.537827e-04
2.838142e-04
3.165198e-04
3.524594e-04
0.000000e+00
1.258724e-06
7.103904e-06
1.604870e-05
2.811266e-05
4.335597e-05
6.162097e-05
8.277743e-05
1.067642e-04
1.333171e-04
1.619131e-04
1.919028e-04
2.226227e-04
2.533146e-04
2.832470e-04
3.142899e-04
3.471186e-04
0.000000e+00
1.498631e-06
7.654537e-06
1.661740e-05
2.852412e-05
4.379197e-05
6.202015e-05
8.310432e-05
1.071021e-04
1.337411e-04
1.623795e-04
1.922787e-04
2.227698e-04
2.532272e-04
2.833437e-04
3.136943e-04
3.442675e-04
0.000000e+00
2.567789e-06
9.515962e-06
1.833291e-05
3.013311e-05
4.535892e-05
6.344493e-05
8.436237e-05
1.082716e-04
1.348638e-04
1.633930e-04
1.930533e-04
2.232164e-04
2.534326e-04
2.834834e-04
3.134560e-04
3.430525e-04
0.000000e+00
5.642269e-06
1.328483e-05
2.206029e-05
3.417612e-05
4.914701e-05
6.688158e-05
8.760747e-05
1.112286e-04
1.372739e-04
1.651151e-04
1.941210e-04
2.237825e-04
2.536975e-04
2.835959e-04
3.133286e-04
3.426963e-04
0.000000e+00
1.047548e-05
1.765914e-05
2.707885e-05
3.966752e-05
5.431685e-05
7.171322e-05
9.230224e-05
1.155335e-04
1.407198e-04
1.674443e-04
1.954622e-04
2.244658e-04
2.540169e-04
2.837227e-04
3.133138e-04
3.426527e-04


2.345202e+00
2.250902e+00
2.371927e+00
2.544750e+00
2.673744e+00
2.939798e+00
3.265437e+00
3.632011e+00
4.105481e+00
4.667866e+00
5.213625e+00
5.636022e+00
5.834653e+00
5.571306e+00
4.805465e+00
4.157515e+00
3.461739e+00
3.362485e+00
3.420127e+00
3.517524e+00
3.592203e+00
3.776509e+00
4.007509e+00
4.269262e+00
4.615223e+00
5.033571e+00
5.443291e+00
5.757949e+00
5.875065e+00
5.534802e+00
4.723104e+00
4.036609e+00
4.969882e+00
4.907826e+00
4.910004e+00
4.924040e+00
4.932961e+00
5.007731e+00
5.101547e+00
5.209419e+00
5.363170e+00
5.558266e+00
5.753885e+00
5.903465e+00
5.931450e+00
5.617432e+00
4.938748e+00
4.401514e+00
5.833560e+00
5.800329e+00
5.782633e+00
5.753447e+00
5.740365e+00
5.749201e+00
5.758687e+00
5.770813e+00
5.798693e+00
5.843237e+00
5.894151e+00
5.940043e+00
5.945230e+00
5.781165e+00
5.427384e+00
5.147989e+00
5.833199e+00
5.799770e+00
5.781594e+00
5.751564e+00
5.736964e+00
5.742581e+00
5.746190e+00
5.750483e+00
5.769957e+00
5.805730e+00
5.849917e+00
5.899679e+00
5.943501e+00
5.925572e+00
5.826316e+00
5.740462e+00
4.968821e+00
4.906175e+00
4.906902e+00
4.918797e+00
4.924331e+00
4.991904e+00
5.074494e+00
5.173236e+00
5.322578e+00
5.510125e+00
5.692516e+00
5.844249e+00
5.961531e+00
6.032968e+00
6.054617e+00
6.054560e+00
3.460113e+00
3.360126e+00
3.416063e+00
3.511529e+00
3.584072e+00
3.763837e+00
3.992380e+00
4.268835e+00
4.646793e+00
5.086377e+00
5.487250e+00
5.787620e+00
5.986162e+00
6.104771e+00
6.165756e+00
6.189352e+00
2.343310e+00
2.248506e+00
2.368262e+00
2.540376e+00
2.670025e+00
2.937003e+00
3.272293e+00
3.678183e+00
4.217587e+00
4.827730e+00
5.369774e+00
5.761848e+00
6.005726e+00
6.141804e+00
6.209562e+00
6.236817e+00


-5.406804e-01
-2.293113e-01
-1.993879e-01
-2.518823e-01
-1.776582e-01
-1.720766e-01
-1.808492e-01
-1.612165e-01
-1.480785e-01
-1.354065e-01
-8.480925e-02
1.547702e-02
1.522526e-01
3.413422e-01
5.674253e-01
-5.525241e-01
5.303782e-01
4.021419e-01
3.451605e-01
2.922617e-01
3.159910e-01
3.078680e-01
2.948839e-01
3.002726e-01
3.112656e-01
3.390416e-01
4.118305e-01
5.409459e-01
7.118786e-01
8.703792e-01
7.537004e-01
-1.278913e+00
8.290031e-01
7.114394e-01
6.048191e-01
5.550966e-01
5.439764e-01
5.282539e-01
5.172858e-01
5.166998e-01
5.237963e-01
5.450299e-01
5.885730e-01
6.435098e-01
6.616208e-01
5.558276e-01
2.442692e-01
-3.037822e-01
9.043249e-01
8.010898e-01
6.934028e-01
6.321864e-01
6.065759e-01
5.934903e-01
5.855345e-01
5.790220e-01
5.683515e-01
5.496438e-01
5.191929e-01
4.630451e-01
3.549914e-01
2.109956e-01
1.658596e-01
2.025164e-01
9.049792e-01
8.018470e-01
6.939775e-01
6.315582e-01
6.031218e-01
5.848175e-01
5.678906e-01
5.459772e-01
5.097426e-01
4.530744e-01
3.765893e-01
2.866543e-01
2.062199e-01
2.067753e-01
3.615358e-01
6.115186e-01
8.305526e-01
7.132682e-01
6.064121e-01
5.546031e-01
5.382692e-01
5.126242e-01
4.836377e-01
4.507997e-01
4.038238e-01
3.450295e-01
2.894775e-01
2.593407e-01
2.895117e-01
4.197558e-01
6.403534e-01
8.716356e-01
5.315707e-01
4.035686e-01
3.466459e-01
2.930444e-01
3.143887e-01
3.023045e-01
2.808645e-01
2.670568e-01
2.464953e-01
2.367448e-01
2.715056e-01
3.619132e-01
5.020977e-01
6.822772e-01
8.626836e-01
9.774742e-01
-5.417154e-01
-2.308287e-01
-2.008232e-01
-2.531488e-01
-1.782360e-01
-1.686549e-01
-1.704421e-01
-1.445573e-01
-1.107147e-01
-2.495166e-02
1.689009e-01
4.428247e-01
7.074441e-01
8.911235e-01
9.786423e-01
9.995776e-01
1 2 19 18
2 3 20 19
3 4 21 20
4 5 22 21
5 6 23 22
6 7 24 23
7 8 25 24
8 9 26 25
9 10 27 26
10 11 28 27
11 12 29 28
12 13 30 29
13 14 31 30
14 15 32 31
15 16 33 32
16 17 34 33
18 19 36 35
19 20 37 36
20 21 38 37
21 22 39 38
22 23 40 39
23 24 41 40
24 25 42 41
25 26 43 42
26 27 44 43
27 28 45 44
28 29 46 45
29 30 47 46
30 31 48 47
31 32 49 48
32 33 50 49
33 34 51 50
35 36 53 52
36 37 54 53
37 38 55 54
38 39 56 55
39 40 57 56
40 41 58 57
41 42 59 58
42 43 60 59
43 44 61 60
44 45 62 61
45 46 63 62
46 47 64 63
47 48 65 64
48 49 66 65
49 50 67 66
50 51 68 67
52 53 70 69
53 54 71 70
54 55 72 71
55 56 73 72
56 57 74 73
57 58 75 74
58 59 76 75
59 60 77 76
60 61 78 77
61 62 79 78
62 63 80 79
63 64 81 80
64 65 82 81
65 66 83 82
66 67 84 83
67 68 85 84
69 70 87 86
70 71 88 87
71 72 89 88
72 73 90 89
73 74 91 90
74 75 92 91
75 76 93 92
76 77 94 93
77 78 95 94
78 79 96 95
79 80 97 96
80 81 98 97
81 82 99 98
82 83 100 99
83 84 101 100
84 85 102 101
86 87 104 103
87 88 105 104
88 89 106 105
89 90 107 106
90 91 108 107
91 92 109 108
92 93 110 109
93 94 111 110
94 95 112 111
95 96 113 112
96 97 114 113
97 98 115 114
98 99 116 115
99 100 117 116
100 101 118 117
101 102 119 118
103 104 121 120
104 105 122 121
105 106 123 122
106 107 124 123
107 108 125 124
108 109 126 125
109 110 127 126
110 111 128 127
111 112 129 128
112 113 130 129
113 114 131 130
114 115 132 131
115 116 133 132
116 117 134 133
117 118 135 134
118 119 136 135
120 121 138 137
121 122 139 138
122 123 140 139
123 124 141 140
124 125 142 141
125 126 143 142
126 127 144 143
127 128 145 144
128 129 146 145
129 130 147 146
130 131 148 147
131 132 149 148
132 133 150 149
133 134 151 150
134 135 152 151
135 136 153 152
