TITLE = "Solution"
VARIABLES = x, y, u, v, psiu, psiv, t, stress
ZONE T="structure" N=153 E=128 F=FEBLOCK ET=QUADRILATERAL VARLOCATION=([7,8]=cellcentered)
0.000000e+00
1.250000e+01
2.500000e+01
3.750000e+01
5.000000e+01
6.250000e+01
7.500000e+01
8.750000e+01
1.000000e+02
1.125000e+02
1.250000e+02
1.375000e+02
1.500000e+02
1.625000e+02
1.750000e+02
1.875000e+02
2.000000e+02
0.000000e+00
1.250000e+01
2.500000e+01
3.750000e+01
5.000000e+01
6.250000e+01
7.500000e+01
8.750000e+01
1.000000e+02
1.125000e+02
1.250000e+02
1.375000e+02
1.500000e+02
1.625000e+02
1.750000e+02
1.875000e+02
2.000000e+02
0.000000e+00
1.250000e+01
2.500000e+01
3.750000e+01
5.000000e+01
6.250000e+01
7.500000e+01
8.750000e+01
1.000000e+02
1.125000e+02
1.250000e+02
1.375000e+02
1.500000e+02
1.625000e+02
1.750000e+02
1.875000e+02
2.000000e+02
0.000000e+00
1.250000e+01
2.500000e+01
3.750000e+01
5.000000e+01
6.250000e+01
7.500000e+01
8.750000e+01
1.000000e+02
1.125000e+02
1.250000e+02
1.375000e+02
1.500000e+02
1.625000e+02
1.750000e+02
1.875000e+02
2.000000e+02
0.000000e+00
1.250000e+01
2.500000e+01
3.750000e+01
5.000000e+01
6.250000e+01
7.500000e+01
8.750000e+01
1.000000e+02
1.125000e+02
1.250000e+02
1.375000e+02
1.500000e+02
1.625000e+02
1.750000e+02
1.875000e+02
2.000000e+02
0.000000e+00
1.250000e+01
2.500000e+01
3.750000e+01
5.000000e+01
6.250000e+01
7.500000e+01
8.750000e+01
1.000000e+02
1.125000e+02
1.250000e+02
1.375000e+02
1.500000e+02
1.625000e+02
1.750000e+02
1.875000e+02
2.000000e+02
0.000000e+00
1.250000e+01
2.500000e+01
3.750000e+01
5.000000e+01
6.250000e+01
7.500000e+01
8.750000e+01
1.000000e+02
1.125000e+02
1.250000e+02
1.375000e+02
1.500000e+02
1.625000e+02
1.750000e+02
1.875000e+02
2.000000e+02
0.000000e+00
1.250000e+01
2.500000e+01
3.750000e+01
5.000000e+01
6.250000e+01
7.500000e+01
8.750000e+01
1.000000e+02
1.125000e+02
1.250000e+02
1.375000e+02
1.500000e+02
1.625000e+02
1.750000e+02
1.875000e+02
2.000000e+02
0.000000e+00
1.250000e+01
2.500000e+01
3.750000e+01
5.000000e+01
6.250000e+01
7.500000e+01
8.750000e+01
1.000000e+02
1.125000e+02
1.250000e+02
1.375000e+02
1.500000e+02
1.625000e+02
1.750000e+02
1.875000e+02
2.000000e+02
0.000000e+00
0.000000e+00
0.000000e+00
0.000000e+00
0.000000e+00
0.000000e+00
0.000000e+00
0.000000e+00
0.000000e+00
0.000000e+00
0.000000e+00
0.000000e+00
0.000000e+00
0.000000e+00
0.000000e+00
0.000000e+00
0.000000e+00
1.250000e+01
1.250000e+01
1.250000e+01
1.250000e+01
1.250000e+01
1.250000e+01
1.250000e+01
1.250000e+01
1.250000e+01
1.250000e+01
1.250000e+01
1.250000e+01
1.250000e+01
1.250000e+01
1.250000e+01
1.250000e+01
1.250000e+01
2.500000e+01
2.500000e+01
2.500000e+01
2.500000e+01
2.500000e+01
2.500000e+01
2.500000e+01
2.500000e+01
2.500000e+01
2.500000e+01
2.500000e+01
2.500000e+01
2.500000e+01
2.500000e+01
2.500000e+01
2.500000e+01
2.500000e+01
3.750000e+01
3.750000e+01
3.750000e+01
3.750000e+01
3.750000e+01
3.750000e+01
3.750000e+01
3.750000e+01
3.750000e+01
3.750000e+01
3.750000e+01
3.750000e+01
3.750000e+01
3.750000e+01
3.750000e+01
3.750000e+01
3.750000e+01
5.000000e+01
5.000000e+01
5.000000e+01
5.000000e+01
5.000000e+01
5.000000e+01
5.000000e+01
5.000000e+01
5.000000e+01
5.000000e+01
5.000000e+01
5.000000e+01
5.000000e+01
5.000000e+01
5.000000e+01
5.000000e+01
5.000000e+01
6.250000e+01
6.250000e+01
6.250000e+01
6.250000e+01
6.250000e+01
6.250000e+01
6.250000e+01
6.250000e+01
6.250000e+01
6.250000e+01
6.250000e+01
6.250000e+01
6.250000e+01
6.250000e+01
6.250000e+01
6.250000e+01
6.250000e+01
7.500000e+01
7.500000e+01
7.500000e+01
7.500000e+01
7.500000e+01
7.500000e+01
7.500000e+01
7.500000e+01
7.500000e+01
7.500000e+01
7.500000e+01
7.500000e+01
7.500000e+01
7.500000e+01
7.500000e+01
7.500000e+01
7.500000e+01
8.750000e+01
8.750000e+01
8.750000e+01
8.750000e+01
8.750000e+01
8.750000e+01
8.750000e+01
8.750000e+01
8.750000e+01
8.750000e+01
8.750000e+01
8.750000e+01
8.750000e+01
8.750000e+01
8.750000e+01
8.750000e+01
8.750000e+01
1.000000e+02
1.000000e+02
1.000000e+02
1.000000e+02
1.000000e+02
1.000000e+02
1.000000e+02
1.000000e+02
1.000000e+02
1.000000e+02
1.000000e+02
1.000000e+02
1.000000e+02
1.000000e+02
1.000000e+02
1.000000e+02
1.000000e+02
0.000000e+00
-8.582844e-01
-1.542090e+00
-2.212324e+00
-2.894080e+00
-3.555583e+00
-4.213963e+00
-4.873890e+00
-5.528817e+00
-6.179604e+00
-6.825329e+00
-7.457471e+00
-8.069872e+00
-8.670271e+00
-9.275508e+00
-9.906585e+00
-1.033670e+01
0.000000e+00
-4.591198e-01
-9.541227e-01
-1.449520e+00
-1.959640e+00
-2.455155e+00
-2.947438e+00
-3.440666e+00
-3.929375e+00
-4.412846e+00
-4.888233e+00
-5.344244e+00
-5.764445e+00
-6.124582e+00
-6.369757e+00
-6.425947e+00
-6.572753e+00
0.000000e+00
-2.451724e-01
-5.210629e-01
-8.391994e-01
-1.175374e+00
-1.508105e+00
-1.841418e+00
-2.174027e+00
-2.501064e+00
-2.818707e+00
-3.119149e+00
-3.387549e+00
-3.602438e+00
-3.734566e+00
-3.754518e+00
-3.723570e+00
-3.874488e+00
0.000000e+00
-1.057866e-01
-2.288064e-01
-3.788152e-01
-5.420593e-01
-7.098080e-01
-8.788147e-01
-1.045372e+00
-1.205577e+00
-1.353956e+00
-1.481619e+00
-1.575916e+00
-1.622184e+00
-1.610494e+00
-1.562041e+00
-1.567508e+00
-1.691088e+00
0.000000e+00
-7.499751e-04
-1.520810e-03
-2.173608e-03
-2.447273e-03
-1.870562e-03
3.795459e-04
5.672469e-03
1.629328e-02
3.592356e-02
6.975999e-02
1.234620e-01
1.995708e-01
2.885182e-01
3.547299e-01
3.493707e-01
2.591586e-01
0.000000e+00
1.045144e-01
2.262010e-01
3.749917e-01
5.375556e-01
7.059428e-01
8.782171e-01
1.052910e+00
1.229833e+00
1.409296e+00
1.590499e+00
1.770173e+00
1.940163e+00
2.082952e+00
2.171284e+00
2.183392e+00
2.135032e+00
0.000000e+00
2.445181e-01
5.196350e-01
8.368893e-01
1.172249e+00
1.504565e+00
1.838223e+00
2.172880e+00
2.505494e+00
2.834027e+00
3.151743e+00
3.445390e+00
3.698201e+00
3.892375e+00
4.011827e+00
4.051809e+00
4.040658e+00
0.000000e+00
4.592015e-01
9.541486e-01
1.449313e+00
1.959021e+00
2.453779e+00
2.944244e+00
3.434122e+00
3.917887e+00
4.391642e+00
4.842960e+00
5.247121e+00
5.577832e+00
5.817818e+00
5.963335e+00
6.025782e+00
6.037378e+00
0.000000e+00
8.588740e-01
1.543436e+00
2.214545e+00
2.897280e+00
3.559558e+00
4.217566e+00
4.875118e+00
5.524496e+00
6.159150e+00
6.758087e+00
7.281841e+00
7.689759e+00
7.957509e+00
8.087999e+00
8.119609e+00
8.118603e+00
0.000000e+00
-5.298766e-01
-1.103960e+00
-1.865864e+00
-2.796010e+00
-3.892883e+00
-5.163998e+00
-6.608572e+00
-8.224783e+00
-1.001248e+01
-1.196847e+01
-1.408647e+01
-1.636328e+01
-1.880809e+01
-2.148147e+01
-2.459753e+01
-2.918977e+01
0.000000e+00
-3.365797e-01
-9.363496e-01
-1.689477e+00
-2.620693e+00
-3.720474e+00
-4.991689e+00
-6.437100e+00
-8.055244e+00
-9.845263e+00
-1.180574e+01
-1.393207e+01
-1.622091e+01
-1.868479e+01
-2.137797e+01
-2.449169e+01
-2.832296e+01
0.000000e+00
-2.791758e-01
-8.268635e-01
-1.572023e+00
-2.498566e+00
-3.597987e+00
-4.870201e+00
-6.317641e+00
-7.939469e+00
-9.735645e+00
-1.170605e+01
-1.384757e+01
-1.615883e+01
-1.865329e+01
-2.136392e+01
-2.430316e+01
-2.708895e+01
0.000000e+00
-2.783609e-01
-7.873453e-01
-1.511715e+00
-2.429420e+00
-3.526324e+00
-4.800072e+00
-6.251022e+00
-7.879128e+00
-9.685492e+00
-1.167033e+01
-1.383011e+01
-1.616028e+01
-1.865953e+01
-2.130652e+01
-2.396752e+01
-2.632053e+01
0.000000e+00
-2.831271e-01
-7.807122e-01
-1.495669e+00
-2.408603e+00
-3.505127e+00
-4.781158e+00
-6.236258e+00
-7.871188e+00
-9.687837e+00
-1.168583e+01
-1.385834e+01
-1.619097e+01
-1.865753e+01
-2.119148e+01
-2.364792e+01
-2.579545e+01
0.000000e+00
-2.782058e-01
-7.875892e-01
-1.512965e+00
-2.432557e+00
-3.532666e+00
-4.811396e+00
-6.269814e+00
-7.909276e+00
-9.732250e+00
-1.173755e+01
-1.391325e+01
-1.623258e+01
-1.864840e+01
-2.108060e+01
-2.340816e+01
-2.547625e+01
0.000000e+00
-2.789051e-01
-8.272170e-01
-1.573965e+00
-2.503554e+00
-3.608192e+00
-4.888608e+00
-6.348468e+00
-7.989300e+00
-9.813528e+00
-1.181896e+01
-1.398885e+01
-1.628661e+01
-1.865394e+01
-2.101077e+01
-2.326518e+01
-2.533141e+01
0.000000e+00
-3.363112e-01
-9.367193e-01
-1.691591e+00
-2.626221e+00
-3.731830e+00
-5.012263e+00
-6.471843e+00
-8.111678e+00
-9.933201e+00
-1.193206e+01
-1.408793e+01
-1.635991e+01
-1.868682e+01
-2.099253e+01
-2.320499e+01
-2.529789e+01
0.000000e+00
-5.297632e-01
-1.104461e+00
-1.868140e+00
-2.801739e+00
-3.904374e+00
-5.184491e+00
-6.643048e+00
-8.280310e+00
-1.009637e+01
-1.208237e+01
-1.421466e+01
-1.645303e+01
-1.874019e+01
-2.100714e+01
-2.319379e+01
-2.529881e+01


0.000000e+00
1.186314e-05
2.233285e-05
3.277646e-05
4.459534e-05
5.618441e-05
6.693402e-05
7.721974e-05
8.695400e-05
9.558679e-05
1.025423e-04
1.075582e-04
1.109452e-04
1.134643e-04
1.156713e-04
1.184267e-04
1.217691e-04
0.000000e+00
8.749034e-06
1.803528e-05
2.584756e-05
3.500842e-05
4.395469e-05
5.195512e-05
5.956091e-05
6.681253e-05
7.310415e-05
7.788872e-05
8.095586e-05
8.246647e-05
8.276050e-05
8.293102e-05
8.516700e-05
8.893737e-05
0.000000e+00
6.722675e-06
1.307041e-05
1.846312e-05
2.464911e-05
3.049829e-05
3.574116e-05
4.065893e-05
4.518917e-05
4.896046e-05
5.168399e-05
5.325476e-05
5.378939e-05
5.369561e-05
5.391006e-05
5.598387e-05
5.952297e-05
0.000000e+00
3.391567e-06
6.145273e-06
9.316823e-06
1.230102e-05
1.507642e-05
1.768850e-05
2.008351e-05
2.214724e-05
2.380157e-05
2.496116e-05
2.560492e-05
2.587813e-05
2.612167e-05
2.671630e-05
2.816330e-05
3.043902e-05
0.000000e+00
-1.448218e-08
-2.992244e-08
-4.527070e-08
-6.073089e-08
-7.783922e-08
-9.888295e-08
-1.346944e-07
-2.114034e-07
-3.566792e-07
-5.616001e-07
-7.576030e-07
-8.158278e-07
-5.950185e-07
-1.601830e-07
4.161858e-07
1.426578e-06
0.000000e+00
-3.417549e-06
-6.196797e-06
-9.394980e-06
-1.240694e-05
-1.520858e-05
-1.784420e-05
-2.027246e-05
-2.241746e-05
-2.423326e-05
-2.564455e-05
-2.658292e-05
-2.704831e-05
-2.715253e-05
-2.715045e-05
-2.713040e-05
-2.681953e-05
0.000000e+00
-6.736937e-06
-1.310056e-05
-1.851505e-05
-2.472948e-05
-3.059773e-05
-3.584936e-05
-4.078043e-05
-4.528509e-05
-4.891231e-05
-5.141996e-05
-5.291430e-05
-5.369986e-05
-5.410108e-05
-5.435634e-05
-5.451070e-05
-5.445642e-05
0.000000e+00
-8.751435e-06
-1.803995e-05
-2.586034e-05
-3.503938e-05
-4.399063e-05
-5.198759e-05
-5.962022e-05
-6.683222e-05
-7.277242e-05
-7.687006e-05
-7.930140e-05
-8.064744e-05
-8.140740e-05
-8.185415e-05
-8.207876e-05
-8.211818e-05
0.000000e+00
-1.186417e-05
-2.232130e-05
-3.274927e-05
-4.455414e-05
-5.611474e-05
-6.682587e-05
-7.709910e-05
-8.677025e-05
-9.502600e-05
-1.011907e-04
-1.052524e-04
-1.076981e-04
-1.090693e-04
-1.097541e-04
-1.099989e-04
-1.100357e-04
0.000000e+00
1.023915e-05
1.731916e-05
2.650501e-05
3.878990e-05
5.316243e-05
7.013854e-05
9.004499e-05
1.123851e-04
1.365660e-04
1.621766e-04
1.889601e-04
2.169010e-04
2.465378e-04
2.803306e-04
3.196171e-04
3.596117e-04
0.000000e+00
5.474970e-06
1.297708e-05
2.161309e-05
3.346628e-05
4.813330e-05
6.547276e-05
8.558306e-05
1.082923e-04
1.331645e-04
1.596989e-04
1.874221e-04
2.160844e-04
2.459543e-04
2.780105e-04
3.148832e-04
3.537132e-04
0.000000e+00
2.469438e-06
9.275994e-06
1.799086e-05
2.957173e-05
4.446948e-05
6.215926e-05
8.250267e-05
1.055177e-04
1.309072e-04
1.581037e-04
1.865132e-04
2.157403e-04
2.454426e-04
2.752867e-04
3.090279e-04
3.458136e-04
0.000000e+00
1.435238e-06
7.465253e-06
1.630056e-05
2.799540e-05
4.293696e-05
6.075556e-05
8.128084e-05
1.044716e-04
1.300491e-04
1.574686e-04
1.861189e-04
2.154667e-04
2.448797e-04
2.735037e-04
3.045734e-04
3.386574e-04
0.000000e+00
1.213243e-06
6.932506e-06
1.572873e-05
2.756408e-05
4.248245e-05
6.032651e-05
8.094320e-05
1.042316e-04
1.298892e-04
1.573681e-04
1.860293e-04
2.152697e-04
2.444518e-04
2.730098e-04
3.026069e-04
3.338106e-04
0.000000e+00
1.438996e-06
7.465057e-06
1.628925e-05
2.797197e-05
4.290103e-05
6.071032e-05
8.126632e-05
1.045674e-04
1.302927e-04
1.577896e-04
1.863533e-04
2.153870e-04
2.443757e-04
2.730960e-04
3.020700e-04
3.312406e-04
0.000000e+00
2.475852e-06
9.276684e-06
1.797518e-05
2.953749e-05
4.441370e-05
6.208537e-05
8.248213e-05
1.056923e-04
1.313522e-04
1.587133e-04
1.870336e-04
2.157720e-04
2.445596e-04
2.732269e-04
3.018505e-04
3.301428e-04
0.000000e+00
5.483665e-06
1.298299e-05
2.160578e-05
3.343931e-05
4.807868e-05
6.540257e-05
8.557292e-05
1.084604e-04
1.335626e-04
1.602572e-04
1.879754e-04
2.162712e-04
2.447993e-04
2.733316e-04
3.017348e-04
3.298161e-04
0.000000e+00
1.024959e-05
1.732785e-05
2.650645e-05
3.877334e-05
5.311297e-05
7.008128e-05
9.005072e-05
1.124815e-04
1.366994e-04
1.623324e-04
1.891616e-04
2.168808e-04
2.450886e-04
2.734484e-04
3.017218e-04
3.297744e-04


2.304587e+00
2.217374e+00
2.345031e+00
2.531534e+00
2.670432e+00
2.933020e+00
3.261867e+00
3.635029e+00
4.099065e+00
4.626580e+00
5.119134e+00
5.488094e+00
5.650138e+00
5.390467e+00
4.682365e+00
4.091576e+00
3.339680e+00
3.248537e+00
3.313990e+00
3.425645e+00
3.510672e+00
3.694856e+00
3.930940e+00
4.200835e+00
4.543538e+00
4.939967e+00
5.313655e+00
5.590962e+00
5.685108e+00
5.363948e+00
4.624554e+00
4.009210e+00
4.764069e+00
4.705111e+00
4.713284e+00
4.737941e+00
4.755008e+00
4.832370e+00
4.932153e+00
5.047935e+00
5.204857e+00
5.395237e+00
5.579244e+00
5.715177e+00
5.736550e+00
5.447861e+00
4.837274e+00
4.359304e+00
5.596841e+00
5.563899e+00
5.548039e+00
5.524914e+00
5.516302e+00
5.528643e+00
5.543499e+00
5.562001e+00
5.596173e+00
5.646495e+00
5.701609e+00
5.748564e+00
5.753684e+00
5.603571e+00
5.284848e+00
5.035736e+00
5.596681e+00
5.563515e+00
5.547203e+00
5.523399e+00
5.513511e+00
5.522969e+00
5.532734e+00
5.544758e+00
5.572039e+00
5.615216e+00
5.665191e+00
5.716219e+00
5.756093e+00
5.736816e+00
5.644538e+00
5.566349e+00
4.763471e+00
4.703844e+00
4.710688e+00
4.733657e+00
4.747832e+00
4.818902e+00
4.909686e+00
5.018840e+00
5.172192e+00
5.355431e+00
5.528400e+00
5.667969e+00
5.771689e+00
5.831997e+00
5.848216e+00
5.846605e+00
3.338515e+00
3.246481e+00
3.310344e+00
3.420495e+00
3.503608e+00
3.684063e+00
3.920032e+00
4.204810e+00
4.573576e+00
4.984309e+00
5.348598e+00
5.616205e+00
5.790410e+00
5.893375e+00
5.945899e+00
5.966062e+00
2.303042e+00
2.215073e+00
2.341458e+00
2.527433e+00
2.666663e+00
2.930362e+00
3.270271e+00
3.679796e+00
4.197420e+00
4.759263e+00
5.245600e+00
5.591707e+00
5.805344e+00
5.924496e+00
5.983788e+00
6.007506e+00


-5.283010e-01
-2.272880e-01
-1.914921e-01
-2.452405e-01
-1.765412e-01
-1.650531e-01
-1.714118e-01
-1.541462e-01
-1.364981e-01
-1.096597e-01
-4.220311e-02
6.781148e-02
2.028551e-01
3.757810e-01
5.782222e-01
-5.351545e-01
5.273105e-01
4.010566e-01
3.485558e-01
2.976282e-01
3.190078e-01
3.144462e-01
3.034004e-01
3.083798e-01
3.224710e-01
3.576034e-01
4.375524e-01
5.681400e-01
7.328497e-01
8.798534e-01
7.569114e-01
-1.278378e+00
8.300775e-01
7.172429e-01
6.163186e-01
5.685042e-01
5.574503e-01
5.435801e-01
5.334449e-01
5.328455e-01
5.410576e-01
5.645549e-01
6.098455e-01
6.645852e-01
6.819916e-01
5.779971e-01
2.642312e-01
-2.875412e-01
9.099454e-01
8.115425e-01
7.113080e-01
6.541213e-01
6.302473e-01
6.180806e-01
6.099617e-01
6.023827e-01
5.909359e-01
5.728240e-01
5.446389e-01
4.927032e-01
3.919683e-01
2.556714e-01
2.063218e-01
2.348828e-01
9.105633e-01
8.122656e-01
7.118658e-01
6.535582e-01
6.270515e-01
6.100071e-01
5.933221e-01
5.708734e-01
5.348864e-01
4.806719e-01
4.091927e-01
3.263839e-01
2.535757e-01
2.560711e-01
4.008879e-01
6.344869e-01
8.315305e-01
7.189993e-01
6.178879e-01
5.681295e-01
5.522439e-01
5.291004e-01
5.017219e-01
4.701173e-01
4.268487e-01
3.745697e-01
3.263652e-01
3.020255e-01
3.336797e-01
4.575605e-01
6.641873e-01
8.800199e-01
5.283721e-01
4.024578e-01
3.500587e-01
2.984419e-01
3.177358e-01
3.095115e-01
2.900017e-01
2.767104e-01
2.623476e-01
2.635704e-01
3.069326e-01
3.988777e-01
5.336779e-01
7.033475e-01
8.719277e-01
9.789707e-01
-5.294613e-01
-2.286822e-01
-1.928101e-01
-2.465827e-01
-1.770307e-01
-1.618157e-01
-1.626122e-01
-1.388307e-01
-9.675407e-02
4.466468e-03
2.061735e-01
4.740977e-01
7.257523e-01
8.982763e-01
9.800640e-01
9.996044e-01
1 2 19 18
2 3 20 19
3 4 21 20
4 5 22 21
5 6 23 22
6 7 24 23
7 8 25 24
8 9 26 25
9 10 27 26
10 11 28 27
11 12 29 28
12 13 30 29
13 14 31 30
14 15 32 31
15 16 33 32
16 17 34 33
18 19 36 35
19 20 37 36
20 21 38 37
21 22 39 38
22 23 40 39
23 24 41 40
24 25 42 41
25 26 43 42
26 27 44 43
27 28 45 44
28 29 46 45
29 30 47 46
30 31 48 47
31 32 49 48
32 33 50 49
33 34 51 50
35 36 53 52
36 37 54 53
37 38 55 54
38 39 56 55
39 40 57 56
40 41 58 57
41 42 59 58
42 43 60 59
43 44 61 60
44 45 62 61
45 46 63 62
46 47 64 63
47 48 65 64
48 49 66 65
49 50 67 66
50 51 68 67
52 53 70 69
53 54 71 70
54 55 72 71
55 56 73 72
56 57 74 73
57 58 75 74
58 59 76 75
59 60 77 76
60 61 78 77
61 62 79 78
62 63 80 79
63 64 81 80
64 65 82 81
65 66 83 82
66 67 84 83
67 68 85 84
69 70 87 86
70 71 88 87
71 72 89 88
72 73 90 89
73 74 91 90
74 75 92 91
75 76 93 92
76 77 94 93
77 78 95 94
78 79 96 95
79 80 97 96
80 81 98 97
81 82 99 98
82 83 100 99
83 84 101 100
84 85 102 101
86 87 104 103
87 88 105 104
88 89 106 105
89 90 107 106
90 91 108 107
91 92 109 108
92 93 110 109
93 94 111 110
94 95 112 111
95 96 113 112
96 97 114 113
97 98 115 114
98 99 116 115
99 100 117 116
100 101 118 117
101 102 119 118
103 104 121 120
104 105 122 121
105 106 123 122
106 107 124 123
107 108 125 124
108 109 126 125
109 110 127 126
110 111 128 127
111 112 129 128
112 113 130 129
113 114 131 130
114 115 132 131
115 116 133 132
116 117 134 133
117 118 135 134
118 119 136 135
120 121 138 137
121 122 139 138
122 123 140 139
123 124 141 140
124 125 142 141
125 126 143 142
126 127 144 143
127 128 145 144
128 129 146 145
129 130 147 146
130 131 148 147
131 132 149 148
132 133 150 149
133 134 151 150
134 135 152 151
135 136 153 152
