TITLE = "Solution"
VARIABLES = x, y, u, v, psiu, psiv, t, stress
ZONE T="structure" N=153 E=128 F=FEBLOCK ET=QUADRILATERAL VARLOCATION=([7,8]=cellcentered)
0.000000e+00
1.250000e+01
2.500000e+01
3.750000e+01
5.000000e+01
6.250000e+01
7.500000e+01
8.750000e+01
1.000000e+02
1.125000e+02
1.250000e+02
1.375000e+02
1.500000e+02
1.625000e+02
1.750000e+02
1.875000e+02
2.000000e+02
0.000000e+00
1.250000e+01
2.500000e+01
3.750000e+01
5.000000e+01
6.250000e+01
7.500000e+01
8.750000e+01
1.000000e+02
1.125000e+02
1.250000e+02
1.375000e+02
1.500000e+02
1.625000e+02
1.750000e+02
1.875000e+02
2.000000e+02
0.000000e+00
1.250000e+01
2.500000e+01
3.750000e+01
5.000000e+01
6.250000e+01
7.500000e+01
8.750000e+01
1.000000e+02
1.125000e+02
1.250000e+02
1.375000e+02
1.500000e+02
1.625000e+02
1.750000e+02
1.875000e+02
2.000000e+02
0.000000e+00
1.250000e+01
2.500000e+01
3.750000e+01
5.000000e+01
6.250000e+01
7.500000e+01
8.750000e+01
1.000000e+02
1.125000e+02
1.250000e+02
1.375000e+02
1.500000e+02
1.625000e+02
1.750000e+02
1.875000e+02
2.000000e+02
0.000000e+00
1.250000e+01
2.500000e+01
3.750000e+01
5.000000e+01
6.250000e+01
7.500000e+01
8.750000e+01
1.000000e+02
1.125000e+02
1.250000e+02
1.375000e+02
1.500000e+02
1.625000e+02
1.750000e+02
1.875000e+02
2.000000e+02
0.000000e+00
1.250000e+01
2.500000e+01
3.750000e+01
5.000000e+01
6.250000e+01
7.500000e+01
8.750000e+01
1.000000e+02
1.125000e+02
1.250000e+02
1.375000e+02
1.500000e+02
1.625000e+02
1.750000e+02
1.875000e+02
2.000000e+02
0.000000e+00
1.250000e+01
2.500000e+01
3.750000e+01
5.000000e+01
6.250000e+01
7.500000e+01
8.750000e+01
1.000000e+02
1.125000e+02
1.250000e+02
1.375000e+02
1.500000e+02
1.625000e+02
1.750000e+02
1.875000e+02
2.000000e+02
0.000000e+00
1.250000e+01
2.500000e+01
3.750000e+01
5.000000e+01
6.250000e+01
7.500000e+01
8.750000e+01
1.000000e+02
1.125000e+02
1.250000e+02
1.375000e+02
1.500000e+02
1.625000e+02
1.750000e+02
1.875000e+02
2.000000e+02
0.000000e+00
1.250000e+01
2.500000e+01
3.750000e+01
5.000000e+01
6.250000e+01
7.500000e+01
8.750000e+01
1.000000e+02
1.125000e+02
1.250000e+02
1.375000e+02
1.500000e+02
1.625000e+02
1.750000e+02
1.875000e+02
2.000000e+02
0.000000e+00
0.000000e+00
0.000000e+00
0.000000e+00
0.000000e+00
0.000000e+00
0.000000e+00
0.000000e+00
0.000000e+00
0.000000e+00
0.000000e+00
0.000000e+00
0.000000e+00
0.000000e+00
0.000000e+00
0.000000e+00
0.000000e+00
1.250000e+01
1.250000e+01
1.250000e+01
1.250000e+01
1.250000e+01
1.250000e+01
1.250000e+01
1.250000e+01
1.250000e+01
1.250000e+01
1.250000e+01
1.250000e+01
1.250000e+01
1.250000e+01
1.250000e+01
1.250000e+01
1.250000e+01
2.500000e+01
2.500000e+01
2.500000e+01
2.500000e+01
2.500000e+01
2.500000e+01
2.500000e+01
2.500000e+01
2.500000e+01
2.500000e+01
2.500000e+01
2.500000e+01
2.500000e+01
2.500000e+01
2.500000e+01
2.500000e+01
2.500000e+01
3.750000e+01
3.750000e+01
3.750000e+01
3.750000e+01
3.750000e+01
3.750000e+01
3.750000e+01
3.750000e+01
3.750000e+01
3.750000e+01
3.750000e+01
3.750000e+01
3.750000e+01
3.750000e+01
3.750000e+01
3.750000e+01
3.750000e+01
5.000000e+01
5.000000e+01
5.000000e+01
5.000000e+01
5.000000e+01
5.000000e+01
5.000000e+01
5.000000e+01
5.000000e+01
5.000000e+01
5.000000e+01
5.000000e+01
5.000000e+01
5.000000e+01
5.000000e+01
5.000000e+01
5.000000e+01
6.250000e+01
6.250000e+01
6.250000e+01
6.250000e+01
6.250000e+01
6.250000e+01
6.250000e+01
6.250000e+01
6.250000e+01
6.250000e+01
6.250000e+01
6.250000e+01
6.250000e+01
6.250000e+01
6.250000e+01
6.250000e+01
6.250000e+01
7.500000e+01
7.500000e+01
7.500000e+01
7.500000e+01
7.500000e+01
7.500000e+01
7.500000e+01
7.500000e+01
7.500000e+01
7.500000e+01
7.500000e+01
7.500000e+01
7.500000e+01
7.500000e+01
7.500000e+01
7.500000e+01
7.500000e+01
8.750000e+01
8.750000e+01
8.750000e+01
8.750000e+01
8.750000e+01
8.750000e+01
8.750000e+01
8.750000e+01
8.750000e+01
8.750000e+01
8.750000e+01
8.750000e+01
8.750000e+01
8.750000e+01
8.750000e+01
8.750000e+01
8.750000e+01
1.000000e+02
1.000000e+02
1.000000e+02
1.000000e+02
1.000000e+02
1.000000e+02
1.000000e+02
1.000000e+02
1.000000e+02
1.000000e+02
1.000000e+02
1.000000e+02
1.000000e+02
1.000000e+02
1.000000e+02
1.000000e+02
1.000000e+02
0.000000e+00
-8.232968e-02
-1.515950e-01
-2.153281e-01
-2.746815e-01
-3.295298e-01
-3.797555e-01
-4.253195e-01
-4.662882e-01
-5.028503e-01
-5.353682e-01
-5.644775e-01
-5.912716e-01
-6.176392e-01
-6.468379e-01
-6.826976e-01
-7.096064e-01
0.000000e+00
-4.916583e-02
-1.021324e-01
-1.510437e-01
-1.961060e-01
-2.374907e-01
-2.752836e-01
-3.095353e-01
-3.403076e-01
-3.676952e-01
-3.918372e-01
-4.129076e-01
-4.310409e-01
-4.460504e-01
-4.566374e-01
-4.589578e-01
-4.672774e-01
0.000000e+00
-3.074691e-02
-6.322333e-02
-9.562337e-02
-1.258678e-01
-1.536364e-01
-1.789067e-01
-2.017071e-01
-2.220435e-01
-2.398818e-01
-2.551261e-01
-2.675634e-01
-2.767503e-01
-2.818786e-01
-2.820209e-01
-2.799723e-01
-2.884576e-01
0.000000e+00
-1.484036e-02
-3.055087e-02
-4.636059e-02
-6.147754e-02
-7.540119e-02
-8.802160e-02
-9.930202e-02
-1.091779e-01
-1.175207e-01
-1.241172e-01
-1.286561e-01
-1.307657e-01
-1.302729e-01
-1.282479e-01
-1.288017e-01
-1.351198e-01
0.000000e+00
-1.367075e-05
-3.107790e-05
-4.842789e-05
-5.763584e-05
-4.067283e-05
3.824625e-05
2.433334e-04
6.799369e-04
1.504979e-03
2.923187e-03
5.140227e-03
8.211671e-03
1.168256e-02
1.408014e-02
1.342256e-02
9.239379e-03
0.000000e+00
1.481933e-02
3.050204e-02
4.628248e-02
6.138038e-02
7.532216e-02
8.805225e-02
9.963292e-02
1.101646e-01
1.197694e-01
1.285728e-01
1.366401e-01
1.438310e-01
1.495974e-01
1.529894e-01
1.532584e-01
1.511352e-01
0.000000e+00
3.074346e-02
6.321281e-02
9.560244e-02
1.258351e-01
1.535957e-01
1.788729e-01
2.017181e-01
2.221786e-01
2.402909e-01
2.560706e-01
2.694793e-01
2.803627e-01
2.884092e-01
2.932389e-01
2.948071e-01
2.943120e-01
0.000000e+00
4.918600e-02
1.021763e-01
1.511137e-01
1.961998e-01
2.375911e-01
2.753399e-01
3.094323e-01
3.398164e-01
3.664043e-01
3.890701e-01
4.076569e-01
4.220161e-01
4.321002e-01
4.381155e-01
4.406808e-01
4.411519e-01
0.000000e+00
8.236340e-02
1.516840e-01
2.154948e-01
2.749477e-01
3.299043e-01
3.802022e-01
4.256951e-01
4.662310e-01
5.015992e-01
5.314930e-01
5.555139e-01
5.732672e-01
5.846136e-01
5.901008e-01
5.914552e-01
5.914291e-01
0.000000e+00
-4.983642e-02
-9.783468e-02
-1.600292e-01
-2.363602e-01
-3.266847e-01
-4.300137e-01
-5.451906e-01
-6.709908e-01
-8.062057e-01
-9.497192e-01
-1.100643e+00
-1.258612e+00
-1.424471e+00
-1.602522e+00
-1.806245e+00
-2.098959e+00
0.000000e+00
-3.068021e-02
-8.075027e-02
-1.437161e-01
-2.212946e-01
-3.128517e-01
-4.174325e-01
-5.338520e-01
-6.608715e-01
-7.972606e-01
-9.418720e-01
-1.093777e+00
-1.252554e+00
-1.419026e+00
-1.597008e+00
-1.799495e+00
-2.047562e+00
0.000000e+00
-2.315094e-02
-6.890651e-02
-1.321047e-01
-2.104167e-01
-3.029163e-01
-4.084583e-01
-5.258465e-01
-6.538505e-01
-7.912575e-01
-9.369425e-01
-1.090008e+00
-1.250074e+00
-1.417826e+00
-1.595960e+00
-1.787824e+00
-1.973507e+00
0.000000e+00
-1.994983e-02
-6.301785e-02
-1.252892e-01
-2.038842e-01
-2.969532e-01
-4.031532e-01
-5.212426e-01
-6.500142e-01
-7.882879e-01
-9.349630e-01
-1.089125e+00
-1.250212e+00
-1.418150e+00
-1.592721e+00
-1.769016e+00
-1.931425e+00
0.000000e+00
-1.902765e-02
-6.123567e-02
-1.231150e-01
-2.017314e-01
-2.950320e-01
-4.015374e-01
-5.200069e-01
-6.492564e-01
-7.881251e-01
-9.354878e-01
-1.090285e+00
-1.251516e+00
-1.417992e+00
-1.587221e+00
-1.753415e+00
-1.906521e+00
0.000000e+00
-1.993798e-02
-6.300942e-02
-1.253042e-01
-2.039579e-01
-2.971473e-01
-4.035683e-01
-5.220289e-01
-6.513697e-01
-7.904244e-01
-9.379949e-01
-1.092799e+00
-1.253340e+00
-1.417574e+00
-1.582347e+00
-1.742842e+00
-1.892681e+00
0.000000e+00
-2.313162e-02
-6.889255e-02
-1.321297e-01
-2.105408e-01
-3.032446e-01
-4.091621e-01
-5.271815e-01
-6.561553e-01
-7.948970e-01
-9.421278e-01
-1.096369e+00
-1.255761e+00
-1.417844e+00
-1.579422e+00
-1.736837e+00
-1.886576e+00
0.000000e+00
-3.066210e-02
-8.073811e-02
-1.437493e-01
-2.214436e-01
-3.132378e-01
-4.182517e-01
-5.353951e-01
-6.635190e-01
-8.014155e-01
-9.477533e-01
-1.100948e+00
-1.258982e+00
-1.419260e+00
-1.578689e+00
-1.734354e+00
-1.885143e+00
0.000000e+00
-4.982894e-02
-9.783573e-02
-1.600807e-01
-2.365330e-01
-3.270973e-01
-4.308520e-01
-5.467201e-01
-6.735408e-01
-8.100848e-01
-9.549887e-01
-1.106633e+00
-1.262987e+00
-1.421511e+00
-1.579312e+00
-1.733900e+00
-1.885165e+00


0.000000e+00
8.937557e-10
1.848224e-09
2.693545e-09
3.407309e-09
3.987078e-09
4.443460e-09
4.793438e-09
5.055084e-09
5.245788e-09
5.381524e-09
5.476684e-09
5.544437e-09
5.597018e-09
5.645939e-09
5.706360e-09
5.778924e-09
0.000000e+00
6.079320e-10
1.432460e-09
2.104081e-09
2.642595e-09
3.068029e-09
3.396353e-09
3.643820e-09
3.825490e-09
3.954795e-09
4.043395e-09
4.100963e-09
4.134800e-09
4.151449e-09
4.168330e-09
4.217739e-09
4.292454e-09
0.000000e+00
4.525750e-10
9.948584e-10
1.447935e-09
1.811904e-09
2.092870e-09
2.304325e-09
2.459713e-09
2.570503e-09
2.646187e-09
2.694555e-09
2.721988e-09
2.734197e-09
2.738927e-09
2.750828e-09
2.789594e-09
2.850099e-09
0.000000e+00
2.422418e-10
4.962111e-10
7.228365e-10
9.081874e-10
1.049856e-09
1.154462e-09
1.229550e-09
1.281375e-09
1.314926e-09
1.334382e-09
1.343703e-09
1.347490e-09
1.351651e-09
1.362131e-09
1.385691e-09
1.422925e-09
0.000000e+00
-2.638339e-13
-6.200260e-13
-1.115479e-12
-1.829346e-12
-2.868224e-12
-4.370905e-12
-6.496749e-12
-9.383127e-12
-1.303806e-11
-1.714015e-11
-2.074545e-11
-2.214993e-11
-1.967964e-11
-1.323571e-11
-1.877977e-12
1.752555e-11
0.000000e+00
-2.426945e-10
-4.972590e-10
-7.247163e-10
-9.112317e-10
-1.054544e-09
-1.161465e-09
-1.239767e-09
-1.295935e-09
-1.335084e-09
-1.361181e-09
-1.377219e-09
-1.385485e-09
-1.388225e-09
-1.388085e-09
-1.385277e-09
-1.376986e-09
0.000000e+00
-4.528068e-10
-9.954967e-10
-1.449118e-09
-1.813791e-09
-2.095632e-09
-2.308135e-09
-2.464749e-09
-2.576980e-09
-2.654476e-09
-2.705403e-09
-2.736786e-09
-2.754692e-09
-2.764285e-09
-2.769439e-09
-2.771200e-09
-2.768866e-09
0.000000e+00
-6.080127e-10
-1.432862e-09
-2.104794e-09
-2.643589e-09
-3.069199e-09
-3.397438e-09
-3.644350e-09
-3.824786e-09
-3.952097e-09
-4.038193e-09
-4.093614e-09
-4.127445e-09
-4.147093e-09
-4.157914e-09
-4.162841e-09
-4.163529e-09
0.000000e+00
-8.941457e-10
-1.848861e-09
-2.694253e-09
-3.407876e-09
-3.987123e-09
-4.442383e-09
-4.790357e-09
-5.048822e-09
-5.234895e-09
-5.364237e-09
-5.450653e-09
-5.505742e-09
-5.538663e-09
-5.556042e-09
-5.562693e-09
-5.563843e-09
0.000000e+00
8.121954e-10
1.459675e-09
2.139018e-09
2.954375e-09
3.914014e-09
4.998482e-09
6.182439e-09
7.441570e-09
8.755812e-09
1.010976e-08
1.149287e-08
1.290085e-08
1.434291e-08
1.585784e-08
1.746562e-08
1.909402e-08
0.000000e+00
4.367923e-10
1.069514e-09
1.794668e-09
2.671928e-09
3.691208e-09
4.828096e-09
6.055480e-09
7.349625e-09
8.691316e-09
1.006613e-08
1.146445e-08
1.288232e-08
1.432407e-08
1.580827e-08
1.737130e-08
1.897333e-08
0.000000e+00
2.155447e-10
7.632905e-10
1.525688e-09
2.453634e-09
3.522046e-09
4.700639e-09
5.961980e-09
7.283199e-09
8.646127e-09
1.003725e-08
1.144760e-08
1.287246e-08
1.430928e-08
1.575979e-08
1.727112e-08
1.883017e-08
0.000000e+00
1.228081e-10
6.187996e-10
1.384706e-09
2.339061e-09
3.434506e-09
4.635784e-09
5.915234e-09
7.250781e-09
8.625008e-09
1.002482e-08
1.144106e-08
1.286739e-08
1.429747e-08
1.572971e-08
1.719992e-08
1.870490e-08
0.000000e+00
9.927000e-11
5.794126e-10
1.342025e-09
2.303837e-09
3.407854e-09
4.616414e-09
5.901721e-09
7.242022e-09
8.620115e-09
1.002280e-08
1.144032e-08
1.286526e-08
1.429109e-08
1.571557e-08
1.715923e-08
1.861575e-08
0.000000e+00
1.229742e-10
6.190302e-10
1.385018e-09
2.339504e-09
3.435210e-09
4.636979e-09
5.917248e-09
7.253962e-09
8.629523e-09
1.003023e-08
1.144567e-08
1.286792e-08
1.429095e-08
1.571235e-08
1.713959e-08
1.856442e-08
0.000000e+00
2.158071e-10
7.637066e-10
1.526303e-09
2.454544e-09
3.523507e-09
4.703077e-09
5.965997e-09
7.289442e-09
8.654965e-09
1.004808e-08
1.145767e-08
1.287532e-08
1.429497e-08
1.571338e-08
1.713090e-08
1.854046e-08
0.000000e+00
4.371596e-10
1.070202e-09
1.795687e-09
2.673402e-09
3.693434e-09
4.831549e-09
6.060815e-09
7.357543e-09
8.702243e-09
1.007951e-08
1.147738e-08
1.288676e-08
1.430098e-08
1.571559e-08
1.712760e-08
1.853245e-08
0.000000e+00
8.127808e-10
1.460683e-09
2.140433e-09
2.956307e-09
3.916687e-09
5.002270e-09
6.187834e-09
7.449094e-09
8.765724e-09
1.012142e-08
1.150338e-08
1.290164e-08
1.430863e-08
1.571872e-08
1.712737e-08
1.853123e-08


2.405603e-01
2.405603e-01
2.405603e-01
2.405603e-01
2.405604e-01
2.405604e-01
2.405605e-01
2.405605e-01
2.405605e-01
2.405605e-01
2.405605e-01
2.405605e-01
2.405605e-01
2.405605e-01
2.405605e-01
2.405605e-01
2.405603e-01
2.405603e-01
2.405603e-01
2.405604e-01
2.405604e-01
2.405604e-01
2.405605e-01
2.405605e-01
2.405605e-01
2.405605e-01
2.405605e-01
2.405605e-01
2.405605e-01
2.405605e-01
2.405605e-01
2.405605e-01
2.405604e-01
2.405604e-01
2.405604e-01
2.405604e-01
2.405605e-01
2.405605e-01
2.405605e-01
2.405605e-01
2.405605e-01
2.405605e-01
2.405605e-01
2.405605e-01
2.405605e-01
2.405605e-01
2.405605e-01
2.405605e-01
2.405605e-01
2.405605e-01
2.405605e-01
2.405605e-01
2.405605e-01
2.405605e-01
2.405605e-01
2.405605e-01
2.405605e-01
2.405605e-01
2.405605e-01
2.405605e-01
2.405605e-01
2.405605e-01
2.405605e-01
2.405605e-01
2.405605e-01
2.405605e-01
2.405605e-01
2.405605e-01
2.405605e-01
2.405605e-01
2.405605e-01
2.405605e-01
2.405605e-01
2.405605e-01
2.405605e-01
2.405605e-01
2.405605e-01
2.405605e-01
2.405605e-01
2.405605e-01
2.405604e-01
2.405604e-01
2.405604e-01
2.405604e-01
2.405605e-01
2.405605e-01
2.405605e-01
2.405605e-01
2.405605e-01
2.405605e-01
2.405605e-01
2.405605e-01
2.405605e-01
2.405605e-01
2.405605e-01
2.405605e-01
2.405603e-01
2.405603e-01
2.405603e-01
2.405604e-01
2.405604e-01
2.405604e-01
2.405605e-01
2.405605e-01
2.405605e-01
2.405605e-01
2.405605e-01
2.405605e-01
2.405605e-01
2.405605e-01
2.405605e-01
2.405605e-01
2.405603e-01
2.405603e-01
2.405603e-01
2.405603e-01
2.405604e-01
2.405604e-01
2.405605e-01
2.405605e-01
2.405605e-01
2.405605e-01
2.405605e-01
2.405605e-01
2.405605e-01
2.405605e-01
2.405605e-01
2.405605e-01


9.847502e-01
9.869128e-01
9.889133e-01
9.904532e-01
9.918827e-01
9.932008e-01
9.944016e-01
9.954711e-01
9.963981e-01
9.971734e-01
9.977899e-01
9.982415e-01
9.985222e-01
9.986224e-01
9.986947e-01
9.942380e-01
9.942307e-01
9.932397e-01
9.938773e-01
9.947095e-01
9.954853e-01
9.961904e-01
9.968288e-01
9.974069e-01
9.979304e-01
9.984046e-01
9.988348e-01
9.992244e-01
9.995643e-01
9.997868e-01
9.992240e-01
9.915951e-01
9.979954e-01
9.974263e-01
9.972726e-01
9.974888e-01
9.977731e-01
9.980485e-01
9.983042e-01
9.985458e-01
9.987798e-01
9.990080e-01
9.992211e-01
9.993861e-01
9.994206e-01
9.991235e-01
9.980455e-01
9.961068e-01
9.995920e-01
9.991769e-01
9.989205e-01
9.988554e-01
9.988814e-01
9.989250e-01
9.989685e-01
9.990111e-01
9.990528e-01
9.990877e-01
9.990975e-01
9.990455e-01
9.988807e-01
9.985849e-01
9.983340e-01
9.982705e-01
9.995936e-01
9.991791e-01
9.989224e-01
9.988550e-01
9.988749e-01
9.989064e-01
9.989282e-01
9.989355e-01
9.989255e-01
9.988934e-01
9.988335e-01
9.987473e-01
9.986652e-01
9.986815e-01
9.989136e-01
9.993155e-01
9.979983e-01
9.974306e-01
9.972768e-01
9.974888e-01
9.977620e-01
9.980144e-01
9.982279e-01
9.983996e-01
9.985281e-01
9.986146e-01
9.986694e-01
9.987229e-01
9.988353e-01
9.990709e-01
9.994249e-01
9.997908e-01
9.942302e-01
9.932393e-01
9.938764e-01
9.947071e-01
9.954792e-01
9.961766e-01
9.968000e-01
9.973520e-01
9.978330e-01
9.982442e-01
9.985923e-01
9.988963e-01
9.991890e-01
9.994959e-01
9.997829e-01
9.999637e-01
9.847398e-01
9.868965e-01
9.888933e-01
9.904309e-01
9.918626e-01
9.931935e-01
9.944264e-01
9.955585e-01
9.965901e-01
9.975190e-01
9.983344e-01
9.990107e-01
9.995139e-01
9.998244e-01
9.999656e-01
9.999993e-01
1 2 19 18
2 3 20 19
3 4 21 20
4 5 22 21
5 6 23 22
6 7 24 23
7 8 25 24
8 9 26 25
9 10 27 26
10 11 28 27
11 12 29 28
12 13 30 29
13 14 31 30
14 15 32 31
15 16 33 32
16 17 34 33
18 19 36 35
19 20 37 36
20 21 38 37
21 22 39 38
22 23 40 39
23 24 41 40
24 25 42 41
25 26 43 42
26 27 44 43
27 28 45 44
28 29 46 45
29 30 47 46
30 31 48 47
31 32 49 48
32 33 50 49
33 34 51 50
35 36 53 52
36 37 54 53
37 38 55 54
38 39 56 55
39 40 57 56
40 41 58 57
41 42 59 58
42 43 60 59
43 44 61 60
44 45 62 61
45 46 63 62
46 47 64 63
47 48 65 64
48 49 66 65
49 50 67 66
50 51 68 67
52 53 70 69
53 54 71 70
54 55 72 71
55 56 73 72
56 57 74 73
57 58 75 74
58 59 76 75
59 60 77 76
60 61 78 77
61 62 79 78
62 63 80 79
63 64 81 80
64 65 82 81
65 66 83 82
66 67 84 83
67 68 85 84
69 70 87 86
70 71 88 87
71 72 89 88
72 73 90 89
73 74 91 90
74 75 92 91
75 76 93 92
76 77 94 93
77 78 95 94
78 79 96 95
79 80 97 96
80 81 98 97
81 82 99 98
82 83 100 99
83 84 101 100
84 85 102 101
86 87 104 103
87 88 105 104
88 89 106 105
89 90 107 106
90 91 108 107
91 92 109 108
92 93 110 109
93 94 111 110
94 95 112 111
95 96 113 112
96 97 114 113
97 98 115 114
98 99 116 115
99 100 117 116
100 101 118 117
101 102 119 118
103 104 121 120
104 105 122 121
105 106 123 122
106 107 124 123
107 108 125 124
108 109 126 125
109 110 127 126
110 111 128 127
111 112 129 128
112 113 130 129
113 114 131 130
114 115 132 131
115 116 133 132
116 117 134 133
117 118 135 134
118 119 136 135
120 121 138 137
121 122 139 138
122 123 140 139
123 124 141 140
124 125 142 141
125 126 143 142
126 127 144 143
127 128 145 144
128 129 146 145
129 130 147 146
130 131 148 147
131 132 149 148
132 133 150 149
133 134 151 150
134 135 152 151
135 136 153 152
