TITLE = "Solution"
VARIABLES = x, y, u, v, psiu, psiv, t, stress
ZONE T="structure" N=153 E=128 F=FEBLOCK ET=QUADRILATERAL VARLOCATION=([7,8]=cellcentered)
0.000000e+00
1.250000e+01
2.500000e+01
3.750000e+01
5.000000e+01
6.250000e+01
7.500000e+01
8.750000e+01
1.000000e+02
1.125000e+02
1.250000e+02
1.375000e+02
1.500000e+02
1.625000e+02
1.750000e+02
1.875000e+02
2.000000e+02
0.000000e+00
1.250000e+01
2.500000e+01
3.750000e+01
5.000000e+01
6.250000e+01
7.500000e+01
8.750000e+01
1.000000e+02
1.125000e+02
1.250000e+02
1.375000e+02
1.500000e+02
1.625000e+02
1.750000e+02
1.875000e+02
2.000000e+02
0.000000e+00
1.250000e+01
2.500000e+01
3.750000e+01
5.000000e+01
6.250000e+01
7.500000e+01
8.750000e+01
1.000000e+02
1.125000e+02
1.250000e+02
1.375000e+02
1.500000e+02
1.625000e+02
1.750000e+02
1.875000e+02
2.000000e+02
0.000000e+00
1.250000e+01
2.500000e+01
3.750000e+01
5.000000e+01
6.250000e+01
7.500000e+01
8.750000e+01
1.000000e+02
1.125000e+02
1.250000e+02
1.375000e+02
1.500000e+02
1.625000e+02
1.750000e+02
1.875000e+02
2.000000e+02
0.000000e+00
1.250000e+01
2.500000e+01
3.750000e+01
5.000000e+01
6.250000e+01
7.500000e+01
8.750000e+01
1.000000e+02
1.125000e+02
1.250000e+02
1.375000e+02
1.500000e+02
1.625000e+02
1.750000e+02
1.875000e+02
2.000000e+02
0.000000e+00
1.250000e+01
2.500000e+01
3.750000e+01
5.000000e+01
6.250000e+01
7.500000e+01
8.750000e+01
1.000000e+02
1.125000e+02
1.250000e+02
1.375000e+02
1.500000e+02
1.625000e+02
1.750000e+02
1.875000e+02
2.000000e+02
0.000000e+00
1.250000e+01
2.500000e+01
3.750000e+01
5.000000e+01
6.250000e+01
7.500000e+01
8.750000e+01
1.000000e+02
1.125000e+02
1.250000e+02
1.375000e+02
1.500000e+02
1.625000e+02
1.750000e+02
1.875000e+02
2.000000e+02
0.000000e+00
1.250000e+01
2.500000e+01
3.750000e+01
5.000000e+01
6.250000e+01
7.500000e+01
8.750000e+01
1.000000e+02
1.125000e+02
1.250000e+02
1.375000e+02
1.500000e+02
1.625000e+02
1.750000e+02
1.875000e+02
2.000000e+02
0.000000e+00
1.250000e+01
2.500000e+01
3.750000e+01
5.000000e+01
6.250000e+01
7.500000e+01
8.750000e+01
1.000000e+02
1.125000e+02
1.250000e+02
1.375000e+02
1.500000e+02
1.625000e+02
1.750000e+02
1.875000e+02
2.000000e+02
0.000000e+00
0.000000e+00
0.000000e+00
0.000000e+00
0.000000e+00
0.000000e+00
0.000000e+00
0.000000e+00
0.000000e+00
0.000000e+00
0.000000e+00
0.000000e+00
0.000000e+00
0.000000e+00
0.000000e+00
0.000000e+00
0.000000e+00
1.250000e+01
1.250000e+01
1.250000e+01
1.250000e+01
1.250000e+01
1.250000e+01
1.250000e+01
1.250000e+01
1.250000e+01
1.250000e+01
1.250000e+01
1.250000e+01
1.250000e+01
1.250000e+01
1.250000e+01
1.250000e+01
1.250000e+01
2.500000e+01
2.500000e+01
2.500000e+01
2.500000e+01
2.500000e+01
2.500000e+01
2.500000e+01
2.500000e+01
2.500000e+01
2.500000e+01
2.500000e+01
2.500000e+01
2.500000e+01
2.500000e+01
2.500000e+01
2.500000e+01
2.500000e+01
3.750000e+01
3.750000e+01
3.750000e+01
3.750000e+01
3.750000e+01
3.750000e+01
3.750000e+01
3.750000e+01
3.750000e+01
3.750000e+01
3.750000e+01
3.750000e+01
3.750000e+01
3.750000e+01
3.750000e+01
3.750000e+01
3.750000e+01
5.000000e+01
5.000000e+01
5.000000e+01
5.000000e+01
5.000000e+01
5.000000e+01
5.000000e+01
5.000000e+01
5.000000e+01
5.000000e+01
5.000000e+01
5.000000e+01
5.000000e+01
5.000000e+01
5.000000e+01
5.000000e+01
5.000000e+01
6.250000e+01
6.250000e+01
6.250000e+01
6.250000e+01
6.250000e+01
6.250000e+01
6.250000e+01
6.250000e+01
6.250000e+01
6.250000e+01
6.250000e+01
6.250000e+01
6.250000e+01
6.250000e+01
6.250000e+01
6.250000e+01
6.250000e+01
7.500000e+01
7.500000e+01
7.500000e+01
7.500000e+01
7.500000e+01
7.500000e+01
7.500000e+01
7.500000e+01
7.500000e+01
7.500000e+01
7.500000e+01
7.500000e+01
7.500000e+01
7.500000e+01
7.500000e+01
7.500000e+01
7.500000e+01
8.750000e+01
8.750000e+01
8.750000e+01
8.750000e+01
8.750000e+01
8.750000e+01
8.750000e+01
8.750000e+01
8.750000e+01
8.750000e+01
8.750000e+01
8.750000e+01
8.750000e+01
8.750000e+01
8.750000e+01
8.750000e+01
8.750000e+01
1.000000e+02
1.000000e+02
1.000000e+02
1.000000e+02
1.000000e+02
1.000000e+02
1.000000e+02
1.000000e+02
1.000000e+02
1.000000e+02
1.000000e+02
1.000000e+02
1.000000e+02
1.000000e+02
1.000000e+02
1.000000e+02
1.000000e+02
0.000000e+00
-8.527586e-01
-1.535160e+00
-2.202515e+00
-2.882135e+00
-3.543044e+00
-4.199350e+00
-4.856471e+00
-5.508945e+00
-6.155601e+00
-6.792775e+00
-7.411387e+00
-8.007142e+00
-8.590368e+00
-9.181430e+00
-9.806201e+00
-1.023495e+01
0.000000e+00
-4.594363e-01
-9.549099e-01
-1.449270e+00
-1.957852e+00
-2.452958e+00
-2.943700e+00
-3.434678e+00
-3.921430e+00
-4.401902e+00
-4.871251e+00
-5.317673e+00
-5.725967e+00
-6.074001e+00
-6.310801e+00
-6.364581e+00
-6.509539e+00
0.000000e+00
-2.483736e-01
-5.265594e-01
-8.450693e-01
-1.180699e+00
-1.513105e+00
-1.845191e+00
-2.176055e+00
-2.501188e+00
-2.816056e+00
-3.112120e+00
-3.374641e+00
-3.583113e+00
-3.709873e+00
-3.727434e+00
-3.696049e+00
-3.845959e+00
0.000000e+00
-1.078119e-01
-2.327362e-01
-3.834995e-01
-5.471458e-01
-7.147162e-01
-8.830858e-01
-1.048773e+00
-1.207826e+00
-1.354645e+00
-1.480397e+00
-1.572810e+00
-1.617899e+00
-1.606513e+00
-1.559730e+00
-1.565752e+00
-1.687606e+00
0.000000e+00
-6.947332e-04
-1.415933e-03
-2.034969e-03
-2.304892e-03
-1.777196e-03
3.349600e-04
5.367540e-03
1.557472e-02
3.455611e-02
6.732643e-02
1.192889e-01
1.927568e-01
2.782664e-01
3.414123e-01
3.351872e-01
2.470671e-01
0.000000e+00
1.066326e-01
2.303048e-01
3.799142e-01
5.428963e-01
7.110268e-01
8.824370e-01
1.055826e+00
1.230866e+00
1.407595e+00
1.585045e+00
1.760021e+00
1.924728e+00
2.062439e+00
2.147174e+00
2.158325e+00
2.111361e+00
0.000000e+00
2.477681e-01
5.252235e-01
8.429019e-01
1.177753e+00
1.509705e+00
1.842042e+00
2.174828e+00
2.505170e+00
2.830063e+00
3.142146e+00
3.428649e+00
3.673998e+00
3.861721e+00
3.976893e+00
4.015329e+00
4.004500e+00
0.000000e+00
4.595295e-01
9.549545e-01
1.449121e+00
1.957347e+00
2.451692e+00
2.940681e+00
3.428607e+00
3.910539e+00
4.380692e+00
4.825089e+00
5.219900e+00
5.541119e+00
5.773405e+00
5.913983e+00
5.974258e+00
5.985442e+00
0.000000e+00
8.533230e-01
1.536446e+00
2.204673e+00
2.885296e+00
3.546969e+00
4.203052e+00
4.858321e+00
5.505570e+00
6.135464e+00
6.725063e+00
7.236572e+00
7.632798e+00
7.892072e+00
8.018253e+00
8.048836e+00
8.047886e+00
0.000000e+00
-5.259570e-01
-1.092626e+00
-1.844611e+00
-2.764409e+00
-3.850753e+00
-5.110496e+00
-6.543261e+00
-8.147098e+00
-9.920639e+00
-1.185925e+01
-1.395571e+01
-1.620653e+01
-1.862146e+01
-2.126257e+01
-2.434428e+01
-2.889255e+01
0.000000e+00
-3.333908e-01
-9.251930e-01
-1.668802e+00
-2.589348e+00
-3.678654e+00
-4.938853e+00
-6.372481e+00
-7.978369e+00
-9.754988e+00
-1.169930e+01
-1.380517e+01
-1.606850e+01
-1.850187e+01
-2.116062e+01
-2.423812e+01
-2.803413e+01
0.000000e+00
-2.749145e-01
-8.153030e-01
-1.551134e+00
-2.467265e+00
-3.556397e+00
-4.817778e+00
-6.253586e+00
-7.863354e+00
-9.646500e+00
-1.160126e+01
-1.372279e+01
-1.600867e+01
-1.847180e+01
-2.114613e+01
-2.404905e+01
-2.680356e+01
0.000000e+00
-2.719728e-01
-7.743395e-01
-1.489887e+00
-2.397869e+00
-3.484720e+00
-4.747745e+00
-6.187287e+00
-7.803491e+00
-9.596805e+00
-1.156588e+01
-1.370556e+01
-1.601019e+01
-1.847792e+01
-2.108880e+01
-2.371512e+01
-2.604156e+01
0.000000e+00
-2.759663e-01
-7.668129e-01
-1.473309e+00
-2.376779e+00
-3.463326e+00
-4.728615e+00
-6.172368e+00
-7.795409e+00
-9.598839e+00
-1.158075e+01
-1.373285e+01
-1.603986e+01
-1.847567e+01
-2.097606e+01
-2.340144e+01
-2.552786e+01
0.000000e+00
-2.718099e-01
-7.745285e-01
-1.491006e+00
-2.400768e+00
-3.490652e+00
-4.758435e+00
-6.205290e+00
-7.832775e+00
-9.642466e+00
-1.163146e+01
-1.378645e+01
-1.608027e+01
-1.846665e+01
-2.086823e+01
-2.316851e+01
-2.521836e+01
0.000000e+00
-2.746292e-01
-8.155685e-01
-1.552866e+00
-2.471870e+00
-3.565947e+00
-4.835177e+00
-6.283164e+00
-7.911840e+00
-9.722701e+00
-1.171162e+01
-1.386051e+01
-1.613291e+01
-1.847205e+01
-2.080063e+01
-2.303025e+01
-2.507831e+01
0.000000e+00
-3.331054e-01
-9.254701e-01
-1.670692e+00
-2.594451e+00
-3.689290e+00
-4.958349e+00
-6.405893e+00
-8.033329e+00
-9.841052e+00
-1.182285e+01
-1.395737e+01
-1.620420e+01
-1.850392e+01
-2.078303e+01
-2.297213e+01
-2.504589e+01
0.000000e+00
-5.258202e-01
-1.093032e+00
-1.846668e+00
-2.769709e+00
-3.861522e+00
-5.129983e+00
-6.576516e+00
-8.201112e+00
-1.000244e+01
-1.197033e+01
-1.408088e+01
-1.629453e+01
-1.855556e+01
-2.079717e+01
-2.296134e+01
-2.504675e+01


0.000000e+00
1.156374e-05
2.192461e-05
3.215601e-05
4.359267e-05
5.482534e-05
6.522079e-05
7.505792e-05
8.423051e-05
9.218543e-05
9.841711e-05
1.028201e-04
1.057916e-04
1.080343e-04
1.100541e-04
1.126643e-04
1.158857e-04
0.000000e+00
8.526044e-06
1.770329e-05
2.537207e-05
3.420005e-05
4.285357e-05
5.060188e-05
5.787306e-05
6.468190e-05
7.044544e-05
7.468939e-05
7.734726e-05
7.865597e-05
7.891612e-05
7.909330e-05
8.120916e-05
8.479278e-05
0.000000e+00
6.524347e-06
1.277054e-05
1.806411e-05
2.402394e-05
2.967881e-05
3.474650e-05
3.943699e-05
4.368576e-05
4.714751e-05
4.957873e-05
5.094810e-05
5.140855e-05
5.133480e-05
5.155773e-05
5.348517e-05
5.677675e-05
0.000000e+00
3.283680e-06
6.000152e-06
9.085624e-06
1.198545e-05
1.467707e-05
1.718988e-05
1.947210e-05
2.142039e-05
2.295967e-05
2.402058e-05
2.459993e-05
2.484506e-05
2.507029e-05
2.561450e-05
2.691434e-05
2.897144e-05
0.000000e+00
-1.203633e-08
-2.462832e-08
-3.695520e-08
-4.933403e-08
-6.302927e-08
-8.062756e-08
-1.131346e-07
-1.836173e-07
-3.124547e-07
-4.880894e-07
-6.500862e-07
-6.877512e-07
-4.813540e-07
-9.698061e-08
4.063916e-07
1.305910e-06
0.000000e+00
-3.305507e-06
-6.043065e-06
-9.150259e-06
-1.207219e-05
-1.478390e-05
-1.731546e-05
-1.962897e-05
-2.165258e-05
-2.333663e-05
-2.461630e-05
-2.544414e-05
-2.584115e-05
-2.592372e-05
-2.591939e-05
-2.590040e-05
-2.562006e-05
0.000000e+00
-6.536118e-06
-1.279651e-05
-1.810923e-05
-2.409111e-05
-2.975957e-05
-3.483701e-05
-3.953901e-05
-4.375363e-05
-4.708119e-05
-4.933878e-05
-5.066562e-05
-5.135555e-05
-5.170533e-05
-5.192899e-05
-5.206289e-05
-5.201014e-05
0.000000e+00
-8.527372e-06
-1.770779e-05
-2.538536e-05
-3.422635e-05
-4.288104e-05
-5.063345e-05
-5.792927e-05
-6.467121e-05
-7.009056e-05
-7.375199e-05
-7.590917e-05
-7.710855e-05
-7.778791e-05
-7.818761e-05
-7.838854e-05
-7.842306e-05
0.000000e+00
-1.156424e-05
-2.191500e-05
-3.213435e-05
-4.355698e-05
-5.476253e-05
-6.513065e-05
-7.495819e-05
-8.404049e-05
-9.161735e-05
-9.715949e-05
-1.007750e-04
-1.029533e-04
-1.041835e-04
-1.048044e-04
-1.050291e-04
-1.050634e-04
0.000000e+00
1.000426e-05
1.696503e-05
2.589514e-05
3.783257e-05
5.185800e-05
6.836688e-05
8.762358e-05
1.091475e-04
1.323463e-04
1.568449e-04
1.824408e-04
2.091016e-04
2.372881e-04
2.692941e-04
3.064628e-04
3.443903e-04
0.000000e+00
5.317614e-06
1.266497e-05
2.113021e-05
3.267842e-05
4.697907e-05
6.386836e-05
8.338519e-05
1.053363e-04
1.292649e-04
1.546647e-04
1.811080e-04
2.083886e-04
2.367525e-04
2.671068e-04
3.019505e-04
3.387394e-04
0.000000e+00
2.382065e-06
9.033503e-06
1.760929e-05
2.892822e-05
4.344546e-05
6.068239e-05
8.046342e-05
1.027514e-04
1.272091e-04
1.532505e-04
1.803199e-04
2.080899e-04
2.362819e-04
2.646022e-04
2.965017e-04
3.313140e-04
0.000000e+00
1.378311e-06
7.273627e-06
1.595407e-05
2.739798e-05
4.196907e-05
5.933352e-05
7.929308e-05
1.017546e-04
1.263980e-04
1.526628e-04
1.799676e-04
2.078465e-04
2.357670e-04
2.630115e-04
2.924803e-04
3.247322e-04
0.000000e+00
1.167050e-06
6.758760e-06
1.539391e-05
2.697399e-05
4.153403e-05
5.892551e-05
7.897044e-05
1.015208e-04
1.262354e-04
1.525579e-04
1.798806e-04
2.076671e-04
2.353796e-04
2.625785e-04
2.907424e-04
3.203422e-04
0.000000e+00
1.380716e-06
7.272012e-06
1.594320e-05
2.737653e-05
4.193567e-05
5.929444e-05
7.928905e-05
1.018508e-04
1.266154e-04
1.529368e-04
1.801602e-04
2.077614e-04
2.353142e-04
2.626542e-04
2.902546e-04
3.180263e-04
0.000000e+00
2.386268e-06
9.031701e-06
1.759365e-05
2.889607e-05
4.339294e-05
6.061910e-05
8.046145e-05
1.029272e-04
1.276074e-04
1.537736e-04
1.807566e-04
2.080937e-04
2.354780e-04
2.627752e-04
2.900517e-04
3.170342e-04
0.000000e+00
5.323875e-06
1.266800e-05
2.112131e-05
3.265123e-05
4.692827e-05
6.381120e-05
8.339249e-05
1.055030e-04
1.296232e-04
1.551538e-04
1.815874e-04
2.085335e-04
2.356934e-04
2.628720e-04
2.899470e-04
3.167359e-04
0.000000e+00
1.001228e-05
1.697145e-05
2.589396e-05
3.781316e-05
5.181321e-05
6.832518e-05
8.763888e-05
1.092314e-04
1.324626e-04
1.569991e-04
1.826376e-04
2.090767e-04
2.359549e-04
2.629792e-04
2.899360e-04
3.166972e-04


2.271399e+00
2.190760e+00
2.323337e+00
2.521139e+00
2.669210e+00
2.928198e+00
3.258347e+00
3.635437e+00
4.086822e+00
4.576988e+00
5.018197e+00
5.339231e+00
5.470359e+00
5.219092e+00
4.570318e+00
4.035651e+00
3.230935e+00
3.147526e+00
3.219334e+00
3.343041e+00
3.437392e+00
3.620853e+00
3.860256e+00
4.136231e+00
4.473062e+00
4.845015e+00
5.182864e+00
5.425932e+00
5.500722e+00
5.201214e+00
4.532693e+00
3.984366e+00
4.572701e+00
4.517525e+00
4.531535e+00
4.565590e+00
4.589930e+00
4.669059e+00
4.773585e+00
4.896351e+00
5.055136e+00
5.238580e+00
5.409324e+00
5.531371e+00
5.547106e+00
5.284187e+00
4.738426e+00
4.315134e+00
5.370065e+00
5.338927e+00
5.326311e+00
5.309393e+00
5.304877e+00
5.320118e+00
5.339801e+00
5.364561e+00
5.404513e+00
5.458694e+00
5.515120e+00
5.560829e+00
5.565566e+00
5.429824e+00
5.144553e+00
4.923206e+00
5.369980e+00
5.338677e+00
5.325726e+00
5.308250e+00
5.302579e+00
5.315276e+00
5.330691e+00
5.350140e+00
5.384338e+00
5.432545e+00
5.484886e+00
5.534677e+00
5.570640e+00
5.551307e+00
5.466144e+00
5.394815e+00
4.572278e+00
4.516567e+00
4.529560e+00
4.562232e+00
4.583923e+00
4.657696e+00
4.755355e+00
4.873330e+00
5.028841e+00
5.205436e+00
5.366827e+00
5.493472e+00
5.584602e+00
5.635082e+00
5.646080e+00
5.642527e+00
3.229945e+00
3.145741e+00
3.216268e+00
3.338707e+00
3.431167e+00
3.611828e+00
3.853073e+00
4.143133e+00
4.500529e+00
4.881761e+00
5.210539e+00
5.447494e+00
5.599170e+00
5.687114e+00
5.730928e+00
5.747371e+00
2.269978e+00
2.188577e+00
2.320054e+00
2.517339e+00
2.665353e+00
2.925855e+00
3.267971e+00
3.677537e+00
4.171613e+00
4.686423e+00
5.120742e+00
5.424906e+00
5.610483e+00
5.712885e+00
5.763367e+00
5.783497e+00


-5.164535e-01
-2.248172e-01
-1.834704e-01
-2.375849e-01
-1.743404e-01
-1.577081e-01
-1.611610e-01
-1.451052e-01
-1.219433e-01
-8.059652e-02
1.982137e-03
1.190523e-01
2.509061e-01
4.079467e-01
5.886611e-01
-5.184780e-01
5.246006e-01
4.002268e-01
3.520554e-01
3.032334e-01
3.223988e-01
3.210470e-01
3.122037e-01
3.173318e-01
3.348607e-01
3.772868e-01
4.634259e-01
5.942251e-01
7.522296e-01
8.884165e-01
7.605013e-01
-1.272545e+00
8.308567e-01
7.223234e-01
6.265994e-01
5.807642e-01
5.698712e-01
5.577822e-01
5.486761e-01
5.482941e-01
5.577276e-01
5.835038e-01
6.303542e-01
6.846761e-01
7.013496e-01
5.993321e-01
2.850617e-01
-2.677061e-01
9.150290e-01
8.211793e-01
7.277184e-01
6.743213e-01
6.520350e-01
6.406772e-01
6.324522e-01
6.239991e-01
6.120531e-01
5.948568e-01
5.691680e-01
5.214528e-01
4.276509e-01
2.984464e-01
2.456877e-01
2.672852e-01
9.156120e-01
8.218660e-01
7.282498e-01
6.738131e-01
6.490852e-01
6.331535e-01
6.167369e-01
5.939764e-01
5.585590e-01
5.071265e-01
4.408521e-01
3.650142e-01
2.991583e-01
3.029940e-01
4.382670e-01
6.564204e-01
8.322264e-01
7.239999e-01
6.281035e-01
5.804729e-01
5.651316e-01
5.443341e-01
5.187092e-01
4.886316e-01
4.491479e-01
4.032445e-01
3.621192e-01
3.431697e-01
3.758547e-01
4.933733e-01
6.867107e-01
8.879611e-01
5.255889e-01
4.015784e-01
3.534744e-01
3.040212e-01
3.214224e-01
3.165854e-01
2.993138e-01
2.873167e-01
2.792462e-01
2.906612e-01
3.415157e-01
4.342784e-01
5.636133e-01
7.232364e-01
8.806530e-01
9.803862e-01
-5.175769e-01
-2.261479e-01
-1.848485e-01
-2.390625e-01
-1.747597e-01
-1.548516e-01
-1.539170e-01
-1.305298e-01
-7.976073e-02
3.554811e-02
2.430728e-01
5.040594e-01
7.430533e-01
9.050177e-01
9.814051e-01
9.996296e-01
1 2 19 18
2 3 20 19
3 4 21 20
4 5 22 21
5 6 23 22
6 7 24 23
7 8 25 24
8 9 26 25
9 10 27 26
10 11 28 27
11 12 29 28
12 13 30 29
13 14 31 30
14 15 32 31
15 16 33 32
16 17 34 33
18 19 36 35
19 20 37 36
20 21 38 37
21 22 39 38
22 23 40 39
23 24 41 40
24 25 42 41
25 26 43 42
26 27 44 43
27 28 45 44
28 29 46 45
29 30 47 46
30 31 48 47
31 32 49 48
32 33 50 49
33 34 51 50
35 36 53 52
36 37 54 53
37 38 55 54
38 39 56 55
39 40 57 56
40 41 58 57
41 42 59 58
42 43 60 59
43 44 61 60
44 45 62 61
45 46 63 62
46 47 64 63
47 48 65 64
48 49 66 65
49 50 67 66
50 51 68 67
52 53 70 69
53 54 71 70
54 55 72 71
55 56 73 72
56 57 74 73
57 58 75 74
58 59 76 75
59 60 77 76
60 61 78 77
61 62 79 78
62 63 80 79
63 64 81 80
64 65 82 81
65 66 83 82
66 67 84 83
67 68 85 84
69 70 87 86
70 71 88 87
71 72 89 88
72 73 90 89
73 74 91 90
74 75 92 91
75 76 93 92
76 77 94 93
77 78 95 94
78 79 96 95
79 80 97 96
80 81 98 97
81 82 99 98
82 83 100 99
83 84 101 100
84 85 102 101
86 87 104 103
87 88 105 104
88 89 106 105
89 90 107 106
90 91 108 107
91 92 109 108
92 93 110 109
93 94 111 110
94 95 112 111
95 96 113 112
96 97 114 113
97 98 115 114
98 99 116 115
99 100 117 116
100 101 118 117
101 102 119 118
103 104 121 120
104 105 122 121
105 106 123 122
106 107 124 123
107 108 125 124
108 109 126 125
109 110 127 126
110 111 128 127
111 112 129 128
112 113 130 129
113 114 131 130
114 115 132 131
115 116 133 132
116 117 134 133
117 118 135 134
118 119 136 135
120 121 138 137
121 122 139 138
122 123 140 139
123 124 141 140
124 125 142 141
125 126 143 142
126 127 144 143
127 128 145 144
128 129 146 145
129 130 147 146
130 131 148 147
131 132 149 148
132 133 150 149
133 134 151 150
134 135 152 151
135 136 153 152
