TITLE = "Solution"
VARIABLES = x, y, u, v, psiu, psiv, t, stress
ZONE T="structure" N=153 E=128 F=FEBLOCK ET=QUADRILATERAL VARLOCATION=([7,8]=cellcentered)
0.000000e+00
1.250000e+01
2.500000e+01
3.750000e+01
5.000000e+01
6.250000e+01
7.500000e+01
8.750000e+01
1.000000e+02
1.125000e+02
1.250000e+02
1.375000e+02
1.500000e+02
1.625000e+02
1.750000e+02
1.875000e+02
2.000000e+02
0.000000e+00
1.250000e+01
2.500000e+01
3.750000e+01
5.000000e+01
6.250000e+01
7.500000e+01
8.750000e+01
1.000000e+02
1.125000e+02
1.250000e+02
1.375000e+02
1.500000e+02
1.625000e+02
1.750000e+02
1.875000e+02
2.000000e+02
0.000000e+00
1.250000e+01
2.500000e+01
3.750000e+01
5.000000e+01
6.250000e+01
7.500000e+01
8.750000e+01
1.000000e+02
1.125000e+02
1.250000e+02
1.375000e+02
1.500000e+02
1.625000e+02
1.750000e+02
1.875000e+02
2.000000e+02
0.000000e+00
1.250000e+01
2.500000e+01
3.750000e+01
5.000000e+01
6.250000e+01
7.500000e+01
8.750000e+01
1.000000e+02
1.125000e+02
1.250000e+02
1.375000e+02
1.500000e+02
1.625000e+02
1.750000e+02
1.875000e+02
2.000000e+02
0.000000e+00
1.250000e+01
2.500000e+01
3.750000e+01
5.000000e+01
6.250000e+01
7.500000e+01
8.750000e+01
1.000000e+02
1.125000e+02
1.250000e+02
1.375000e+02
1.500000e+02
1.625000e+02
1.750000e+02
1.875000e+02
2.000000e+02
0.000000e+00
1.250000e+01
2.500000e+01
3.750000e+01
5.000000e+01
6.250000e+01
7.500000e+01
8.750000e+01
1.000000e+02
1.125000e+02
1.250000e+02
1.375000e+02
1.500000e+02
1.625000e+02
1.750000e+02
1.875000e+02
2.000000e+02
0.000000e+00
1.250000e+01
2.500000e+01
3.750000e+01
5.000000e+01
6.250000e+01
7.500000e+01
8.750000e+01
1.000000e+02
1.125000e+02
1.250000e+02
1.375000e+02
1.500000e+02
1.625000e+02
1.750000e+02
1.875000e+02
2.000000e+02
0.000000e+00
1.250000e+01
2.500000e+01
3.750000e+01
5.000000e+01
6.250000e+01
7.500000e+01
8.750000e+01
1.000000e+02
1.125000e+02
1.250000e+02
1.375000e+02
1.500000e+02
1.625000e+02
1.750000e+02
1.875000e+02
2.000000e+02
0.000000e+00
1.250000e+01
2.500000e+01
3.750000e+01
5.000000e+01
6.250000e+01
7.500000e+01
8.750000e+01
1.000000e+02
1.125000e+02
1.250000e+02
1.375000e+02
1.500000e+02
1.625000e+02
1.750000e+02
1.875000e+02
2.000000e+02
0.000000e+00
0.000000e+00
0.000000e+00
0.000000e+00
0.000000e+00
0.000000e+00
0.000000e+00
0.000000e+00
0.000000e+00
0.000000e+00
0.000000e+00
0.000000e+00
0.000000e+00
0.000000e+00
0.000000e+00
0.000000e+00
0.000000e+00
1.250000e+01
1.250000e+01
1.250000e+01
1.250000e+01
1.250000e+01
1.250000e+01
1.250000e+01
1.250000e+01
1.250000e+01
1.250000e+01
1.250000e+01
1.250000e+01
1.250000e+01
1.250000e+01
1.250000e+01
1.250000e+01
1.250000e+01
2.500000e+01
2.500000e+01
2.500000e+01
2.500000e+01
2.500000e+01
2.500000e+01
2.500000e+01
2.500000e+01
2.500000e+01
2.500000e+01
2.500000e+01
2.500000e+01
2.500000e+01
2.500000e+01
2.500000e+01
2.500000e+01
2.500000e+01
3.750000e+01
3.750000e+01
3.750000e+01
3.750000e+01
3.750000e+01
3.750000e+01
3.750000e+01
3.750000e+01
3.750000e+01
3.750000e+01
3.750000e+01
3.750000e+01
3.750000e+01
3.750000e+01
3.750000e+01
3.750000e+01
3.750000e+01
5.000000e+01
5.000000e+01
5.000000e+01
5.000000e+01
5.000000e+01
5.000000e+01
5.000000e+01
5.000000e+01
5.000000e+01
5.000000e+01
5.000000e+01
5.000000e+01
5.000000e+01
5.000000e+01
5.000000e+01
5.000000e+01
5.000000e+01
6.250000e+01
6.250000e+01
6.250000e+01
6.250000e+01
6.250000e+01
6.250000e+01
6.250000e+01
6.250000e+01
6.250000e+01
6.250000e+01
6.250000e+01
6.250000e+01
6.250000e+01
6.250000e+01
6.250000e+01
6.250000e+01
6.250000e+01
7.500000e+01
7.500000e+01
7.500000e+01
7.500000e+01
7.500000e+01
7.500000e+01
7.500000e+01
7.500000e+01
7.500000e+01
7.500000e+01
7.500000e+01
7.500000e+01
7.500000e+01
7.500000e+01
7.500000e+01
7.500000e+01
7.500000e+01
8.750000e+01
8.750000e+01
8.750000e+01
8.750000e+01
8.750000e+01
8.750000e+01
8.750000e+01
8.750000e+01
8.750000e+01
8.750000e+01
8.750000e+01
8.750000e+01
8.750000e+01
8.750000e+01
8.750000e+01
8.750000e+01
8.750000e+01
1.000000e+02
1.000000e+02
1.000000e+02
1.000000e+02
1.000000e+02
1.000000e+02
1.000000e+02
1.000000e+02
1.000000e+02
1.000000e+02
1.000000e+02
1.000000e+02
1.000000e+02
1.000000e+02
1.000000e+02
1.000000e+02
1.000000e+02
0.000000e+00
-9.363581e-01
-1.645069e+00
-2.347643e+00
-3.036020e+00
-3.693769e+00
-4.368721e+00
-5.040054e+00
-5.699413e+00
-6.367602e+00
-7.039054e+00
-7.706985e+00
-8.402289e+00
-9.169123e+00
-9.994975e+00
-1.071656e+01
-1.116633e+01
0.000000e+00
-4.443881e-01
-9.294567e-01
-1.432887e+00
-1.951166e+00
-2.446338e+00
-2.954594e+00
-3.461775e+00
-3.957590e+00
-4.457793e+00
-4.958243e+00
-5.448729e+00
-5.942300e+00
-6.442169e+00
-6.832665e+00
-6.935260e+00
-7.107900e+00
0.000000e+00
-1.809776e-01
-4.138631e-01
-7.222555e-01
-1.063780e+00
-1.398650e+00
-1.746579e+00
-2.093545e+00
-2.433560e+00
-2.773105e+00
-3.105464e+00
-3.418565e+00
-3.699457e+00
-3.913006e+00
-3.987522e+00
-3.973267e+00
-4.124564e+00
0.000000e+00
-7.882439e-02
-1.728798e-01
-3.122985e-01
-4.664859e-01
-6.351777e-01
-8.101094e-01
-9.836153e-01
-1.154811e+00
-1.321093e+00
-1.475318e+00
-1.602440e+00
-1.677046e+00
-1.674656e+00
-1.608371e+00
-1.598795e+00
-1.722599e+00
0.000000e+00
-2.329484e-03
-4.813384e-03
-7.270483e-03
-9.329546e-03
-1.031341e-02
-9.294701e-03
-4.889644e-03
4.955025e-03
2.331800e-02
5.629493e-02
1.144829e-01
2.070629e-01
3.299550e-01
4.411540e-01
4.653669e-01
3.666508e-01
0.000000e+00
7.476155e-02
1.646273e-01
2.996930e-01
4.503564e-01
6.171840e-01
7.935517e-01
9.749886e-01
1.165118e+00
1.367874e+00
1.584667e+00
1.810374e+00
2.031283e+00
2.227724e+00
2.362668e+00
2.393680e+00
2.330357e+00
0.000000e+00
1.791724e-01
4.099400e-01
7.161356e-01
1.056241e+00
1.390861e+00
1.740215e+00
2.093001e+00
2.446034e+00
2.807165e+00
3.171873e+00
3.526768e+00
3.849177e+00
4.108953e+00
4.275925e+00
4.332751e+00
4.314903e+00
0.000000e+00
4.449172e-01
9.296118e-01
1.432302e+00
1.950256e+00
2.444481e+00
2.949726e+00
3.452965e+00
3.943440e+00
4.432271e+00
4.913973e+00
5.373013e+00
5.784915e+00
6.108917e+00
6.314386e+00
6.404095e+00
6.420489e+00
0.000000e+00
9.384257e-01
1.648506e+00
2.352518e+00
3.042781e+00
3.700789e+00
4.371761e+00
5.034387e+00
5.677020e+00
6.312345e+00
6.931107e+00
7.514652e+00
8.027656e+00
8.401469e+00
8.594953e+00
8.645189e+00
8.645076e+00
0.000000e+00
-5.908976e-01
-1.286301e+00
-2.204865e+00
-3.291740e+00
-4.541375e+00
-5.966113e+00
-7.557605e+00
-9.318726e+00
-1.125704e+01
-1.336907e+01
-1.565528e+01
-1.813211e+01
-2.081768e+01
-2.373594e+01
-2.708931e+01
-3.205944e+01
0.000000e+00
-3.878616e-01
-1.116846e+00
-2.024540e+00
-3.117625e+00
-4.367053e+00
-5.789360e+00
-7.383769e+00
-9.145606e+00
-1.108298e+01
-1.319744e+01
-1.548438e+01
-1.795453e+01
-2.064321e+01
-2.360790e+01
-2.699401e+01
-3.105912e+01
0.000000e+00
-3.500600e-01
-1.014553e+00
-1.913719e+00
-2.998312e+00
-4.243760e+00
-5.665737e+00
-7.261202e+00
-9.024779e+00
-1.096580e+01
-1.308740e+01
-1.538453e+01
-1.786804e+01
-2.058895e+01
-2.359800e+01
-2.682457e+01
-2.984649e+01
0.000000e+00
-3.881492e-01
-1.001382e+00
-1.873619e+00
-2.937504e+00
-4.177278e+00
-5.598107e+00
-7.193878e+00
-8.962205e+00
-1.091114e+01
-1.304581e+01
-1.536412e+01
-1.786915e+01
-2.059322e+01
-2.353847e+01
-2.650265e+01
-2.909031e+01
0.000000e+00
-4.016474e-01
-1.010115e+00
-1.865365e+00
-2.923848e+00
-4.162111e+00
-5.584107e+00
-7.183318e+00
-8.958561e+00
-1.091663e+01
-1.306433e+01
-1.539835e+01
-1.790670e+01
-2.059050e+01
-2.340157e+01
-2.615264e+01
-2.850128e+01
0.000000e+00
-3.878209e-01
-1.002066e+00
-1.876623e+00
-2.944866e+00
-4.191023e+00
-5.619962e+00
-7.226371e+00
-9.008348e+00
-1.097283e+01
-1.312414e+01
-1.545620e+01
-1.794955e+01
-2.057757e+01
-2.326722e+01
-2.585242e+01
-2.808225e+01
0.000000e+00
-3.496799e-01
-1.015995e+00
-1.919015e+00
-3.010668e+00
-4.266727e+00
-5.702586e+00
-7.315996e+00
-9.101963e+00
-1.106751e+01
-1.321353e+01
-1.553196e+01
-1.800283e+01
-2.058127e+01
-2.317856e+01
-2.565481e+01
-2.786721e+01
0.000000e+00
-3.875893e-01
-1.118474e+00
-2.030515e+00
-3.131525e+00
-4.392765e+00
-5.831058e+00
-7.446086e+00
-9.232536e+00
-1.119588e+01
-1.333413e+01
-1.563716e+01
-1.808519e+01
-2.062425e+01
-2.315603e+01
-2.556881e+01
-2.781325e+01
0.000000e+00
-5.910208e-01
-1.288142e+00
-2.211220e+00
-3.306082e+00
-4.567111e+00
-6.007306e+00
-7.618823e+00
-9.402433e+00
-1.136292e+01
-1.349373e+01
-1.578270e+01
-1.820466e+01
-2.070020e+01
-2.317915e+01
-2.555326e+01
-2.781318e+01


0.000000e+00
1.530742e-05
2.667681e-05
3.990103e-05
5.598495e-05
7.075151e-05
8.501535e-05
1.005168e-04
1.156622e-04
1.303174e-04
1.453582e-04
1.614196e-04
1.779583e-04
1.915856e-04
1.997342e-04
2.052585e-04
2.122391e-04
0.000000e+00
1.077899e-05
2.043875e-05
2.964703e-05
4.236933e-05
5.336975e-05
6.346753e-05
7.493195e-05
8.628679e-05
9.653078e-05
1.068530e-04
1.179760e-04
1.290580e-04
1.366810e-04
1.391964e-04
1.435210e-04
1.495982e-04
0.000000e+00
8.458519e-06
1.466062e-05
2.020698e-05
2.864870e-05
3.555610e-05
4.197186e-05
4.920793e-05
5.619720e-05
6.233562e-05
6.824897e-05
7.398305e-05
7.877036e-05
8.099438e-05
8.200899e-05
8.503965e-05
8.965299e-05
0.000000e+00
4.377496e-06
6.196474e-06
9.604159e-06
1.288235e-05
1.610612e-05
1.933070e-05
2.251682e-05
2.516498e-05
2.761863e-05
2.941957e-05
3.011552e-05
2.982797e-05
2.957727e-05
3.047839e-05
3.361349e-05
3.872041e-05
0.000000e+00
-3.854925e-08
-9.458797e-08
-1.774464e-07
-3.275119e-07
-5.323728e-07
-7.987191e-07
-1.214058e-06
-1.913500e-06
-2.984957e-06
-4.665270e-06
-6.920600e-06
-9.366639e-06
-1.115113e-05
-1.092647e-05
-8.686587e-06
-5.059622e-06
0.000000e+00
-4.432920e-06
-6.322420e-06
-9.913417e-06
-1.341722e-05
-1.691105e-05
-2.050921e-05
-2.424244e-05
-2.755322e-05
-3.114062e-05
-3.501635e-05
-3.908335e-05
-4.286644e-05
-4.554599e-05
-4.710761e-05
-4.739037e-05
-4.602678e-05
0.000000e+00
-8.396009e-06
-1.465756e-05
-2.039941e-05
-2.893851e-05
-3.590176e-05
-4.265987e-05
-5.012595e-05
-5.682880e-05
-6.274349e-05
-6.904502e-05
-7.504253e-05
-8.000698e-05
-8.371931e-05
-8.618927e-05
-8.762745e-05
-8.789881e-05
0.000000e+00
-1.067946e-05
-2.035380e-05
-2.969730e-05
-4.237196e-05
-5.322686e-05
-6.357660e-05
-7.524008e-05
-8.611731e-05
-9.603469e-05
-1.064485e-04
-1.161978e-04
-1.236954e-04
-1.286867e-04
-1.314043e-04
-1.324325e-04
-1.326412e-04
0.000000e+00
-1.528121e-05
-2.662072e-05
-3.985891e-05
-5.576232e-05
-7.022038e-05
-8.438950e-05
-9.982946e-05
-1.144748e-04
-1.290530e-04
-1.447072e-04
-1.593116e-04
-1.705357e-04
-1.769641e-04
-1.793285e-04
-1.796393e-04
-1.795636e-04
0.000000e+00
1.302739e-05
2.208354e-05
3.563214e-05
5.339424e-05
7.337712e-05
9.813207e-05
1.278300e-04
1.609041e-04
1.981844e-04
2.407891e-04
2.888073e-04
3.416031e-04
3.981648e-04
4.618463e-04
5.327483e-04
6.057183e-04
0.000000e+00
7.696340e-06
1.751366e-05
2.935891e-05
4.664661e-05
6.730934e-05
9.190465e-05
1.211827e-04
1.545795e-04
1.920780e-04
2.344226e-04
2.820574e-04
3.354818e-04
3.939809e-04
4.567396e-04
5.249292e-04
5.950596e-04
0.000000e+00
4.241088e-06
1.336371e-05
2.458130e-05
4.119543e-05
6.251164e-05
8.737654e-05
1.163767e-04
1.499102e-04
1.878039e-04
2.301232e-04
2.776990e-04
3.316519e-04
3.920622e-04
4.527557e-04
5.175189e-04
5.847639e-04
0.000000e+00
3.192931e-06
1.134593e-05
2.268481e-05
3.883172e-05
6.026783e-05
8.556759e-05
1.146327e-04
1.479880e-04
1.859779e-04
2.286500e-04
2.763036e-04
3.305973e-04
3.906642e-04
4.499608e-04
5.099343e-04
5.711008e-04
0.000000e+00
2.897862e-06
1.088231e-05
2.215043e-05
3.826689e-05
5.951634e-05
8.507242e-05
1.142701e-04
1.475269e-04
1.854728e-04
2.284154e-04
2.765402e-04
3.308621e-04
3.906619e-04
4.479932e-04
5.028705e-04
5.568280e-04
0.000000e+00
3.252907e-06
1.140252e-05
2.280426e-05
3.900994e-05
6.036702e-05
8.561067e-05
1.148083e-04
1.481656e-04
1.860917e-04
2.293625e-04
2.782976e-04
3.329050e-04
3.912388e-04
4.476864e-04
4.993705e-04
5.473031e-04
0.000000e+00
4.313159e-06
1.346130e-05
2.479367e-05
4.147507e-05
6.263000e-05
8.742160e-05
1.165397e-04
1.499658e-04
1.879395e-04
2.316928e-04
2.815413e-04
3.361639e-04
3.927418e-04
4.472247e-04
4.974201e-04
5.438604e-04
0.000000e+00
7.757963e-06
1.766944e-05
2.963422e-05
4.693536e-05
6.747955e-05
9.203500e-05
1.212514e-04
1.543525e-04
1.920762e-04
2.360934e-04
2.859508e-04
3.396731e-04
3.943651e-04
4.469954e-04
4.964697e-04
5.435552e-04
0.000000e+00
1.307638e-05
2.228186e-05
3.594302e-05
5.363987e-05
7.358126e-05
9.841929e-05
1.279063e-04
1.605351e-04
1.982474e-04
2.423082e-04
2.910985e-04
3.430334e-04
3.957675e-04
4.471444e-04
4.962513e-04
5.436509e-04


3.527799e+00
3.316287e+00
3.175520e+00
3.057538e+00
2.966530e+00
3.212525e+00
3.412556e+00
3.678495e+00
4.156603e+00
4.693440e+00
5.335684e+00
6.384238e+00
7.708663e+00
8.235991e+00
7.203778e+00
5.892870e+00
6.111701e+00
5.776646e+00
5.640993e+00
5.349643e+00
5.139652e+00
5.222598e+00
5.296522e+00
5.436180e+00
5.757006e+00
6.149848e+00
6.616496e+00
7.334499e+00
8.130466e+00
8.047160e+00
6.481524e+00
4.863289e+00
8.530447e+00
8.453754e+00
8.314823e+00
8.055656e+00
7.757727e+00
7.681145e+00
7.635074e+00
7.629652e+00
7.739540e+00
7.919258e+00
8.103075e+00
8.258619e+00
8.348852e+00
7.707252e+00
6.130118e+00
4.829316e+00
9.373387e+00
9.366071e+00
9.350290e+00
9.093884e+00
8.812902e+00
8.641909e+00
8.551465e+00
8.501059e+00
8.487166e+00
8.480119e+00
8.327368e+00
7.949725e+00
7.581460e+00
7.153603e+00
6.599211e+00
6.290190e+00
9.375485e+00
9.369687e+00
9.355970e+00
9.100144e+00
8.813517e+00
8.628393e+00
8.518422e+00
8.429894e+00
8.312143e+00
8.088585e+00
7.640017e+00
7.054922e+00
6.830976e+00
7.103377e+00
7.617989e+00
8.024925e+00
8.533683e+00
8.455981e+00
8.316148e+00
8.051490e+00
7.728189e+00
7.603437e+00
7.491825e+00
7.371829e+00
7.251027e+00
7.057330e+00
6.829829e+00
6.795314e+00
7.204843e+00
8.004205e+00
8.729355e+00
9.127573e+00
6.113103e+00
5.770523e+00
5.626737e+00
5.324363e+00
5.081567e+00
5.108255e+00
5.120473e+00
5.177610e+00
5.383725e+00
5.734166e+00
6.352606e+00
7.251262e+00
8.215261e+00
8.931355e+00
9.296418e+00
9.414266e+00
3.528780e+00
3.308323e+00
3.159496e+00
3.036815e+00
2.928489e+00
3.151015e+00
3.349997e+00
3.650899e+00
4.250473e+00
5.148992e+00
6.418539e+00
7.848407e+00
8.868020e+00
9.310179e+00
9.394589e+00
9.392760e+00


-6.777559e-01
-2.663334e-01
-2.763893e-01
-2.774830e-01
-1.697916e-01
-2.310932e-01
-2.230234e-01
-1.785219e-01
-2.071106e-01
-2.152451e-01
-1.879559e-01
-2.478048e-01
-3.983859e-01
-2.630037e-01
3.992339e-01
-7.930978e-01
5.895016e-01
4.209991e-01
3.042461e-01
2.346375e-01
2.806854e-01
2.306810e-01
2.221042e-01
2.387632e-01
2.166559e-01
2.139434e-01
2.562265e-01
3.102961e-01
4.150327e-01
6.814275e-01
7.177572e-01
-1.126678e+00
7.851563e-01
5.720439e-01
3.484145e-01
2.896252e-01
2.944217e-01
2.610389e-01
2.611919e-01
2.712265e-01
2.633380e-01
2.680415e-01
3.104664e-01
3.841917e-01
4.206413e-01
3.066218e-01
7.912936e-02
-2.628178e-01
7.975531e-01
6.224814e-01
3.749677e-01
2.644845e-01
2.225436e-01
1.983587e-01
2.016982e-01
2.152435e-01
2.210035e-01
2.223822e-01
2.314861e-01
2.244618e-01
9.428317e-02
-1.653588e-01
-1.914895e-01
1.328065e-02
7.991792e-01
6.246444e-01
3.780910e-01
2.662243e-01
2.213054e-01
1.915290e-01
1.851239e-01
1.853310e-01
1.756069e-01
1.541180e-01
1.217325e-01
6.495380e-02
-6.149560e-02
-1.655421e-01
-1.644004e-02
3.795985e-01
7.891379e-01
5.782175e-01
3.571048e-01
2.959892e-01
2.953702e-01
2.527699e-01
2.329737e-01
2.101280e-01
1.527480e-01
7.886511e-02
6.982592e-03
-4.149897e-02
-5.101051e-02
5.419563e-02
3.573880e-01
7.529161e-01
5.919144e-01
4.251586e-01
3.085367e-01
2.351801e-01
2.766606e-01
2.200719e-01
1.932211e-01
1.800334e-01
1.180042e-01
5.238082e-02
1.572912e-02
3.890968e-02
1.722708e-01
4.254084e-01
7.357931e-01
9.534524e-01
-6.830959e-01
-2.683589e-01
-2.780393e-01
-2.813151e-01
-1.695880e-01
-2.196370e-01
-2.029439e-01
-1.447749e-01
-1.379073e-01
-1.069227e-01
-1.643466e-02
1.679324e-01
4.829956e-01
7.901110e-01
9.566046e-01
9.989692e-01
1 2 19 18
2 3 20 19
3 4 21 20
4 5 22 21
5 6 23 22
6 7 24 23
7 8 25 24
8 9 26 25
9 10 27 26
10 11 28 27
11 12 29 28
12 13 30 29
13 14 31 30
14 15 32 31
15 16 33 32
16 17 34 33
18 19 36 35
19 20 37 36
20 21 38 37
21 22 39 38
22 23 40 39
23 24 41 40
24 25 42 41
25 26 43 42
26 27 44 43
27 28 45 44
28 29 46 45
29 30 47 46
30 31 48 47
31 32 49 48
32 33 50 49
33 34 51 50
35 36 53 52
36 37 54 53
37 38 55 54
38 39 56 55
39 40 57 56
40 41 58 57
41 42 59 58
42 43 60 59
43 44 61 60
44 45 62 61
45 46 63 62
46 47 64 63
47 48 65 64
48 49 66 65
49 50 67 66
50 51 68 67
52 53 70 69
53 54 71 70
54 55 72 71
55 56 73 72
56 57 74 73
57 58 75 74
58 59 76 75
59 60 77 76
60 61 78 77
61 62 79 78
62 63 80 79
63 64 81 80
64 65 82 81
65 66 83 82
66 67 84 83
67 68 85 84
69 70 87 86
70 71 88 87
71 72 89 88
72 73 90 89
73 74 91 90
74 75 92 91
75 76 93 92
76 77 94 93
77 78 95 94
78 79 96 95
79 80 97 96
80 81 98 97
81 82 99 98
82 83 100 99
83 84 101 100
84 85 102 101
86 87 104 103
87 88 105 104
88 89 106 105
89 90 107 106
90 91 108 107
91 92 109 108
92 93 110 109
93 94 111 110
94 95 112 111
95 96 113 112
96 97 114 113
97 98 115 114
98 99 116 115
99 100 117 116
100 101 118 117
101 102 119 118
103 104 121 120
104 105 122 121
105 106 123 122
106 107 124 123
107 108 125 124
108 109 126 125
109 110 127 126
110 111 128 127
111 112 129 128
112 113 130 129
113 114 131 130
114 115 132 131
115 116 133 132
116 117 134 133
117 118 135 134
118 119 136 135
120 121 138 137
121 122 139 138
122 123 140 139
123 124 141 140
124 125 142 141
125 126 143 142
126 127 144 143
127 128 145 144
128 129 146 145
129 130 147 146
130 131 148 147
131 132 149 148
132 133 150 149
133 134 151 150
134 135 152 151
135 136 153 152
