TITLE = "Solution"
VARIABLES = x, y, u, v, psiu, psiv, t, stress
ZONE T="structure" N=153 E=128 F=FEBLOCK ET=QUADRILATERAL VARLOCATION=([7,8]=cellcentered)
0.000000e+00
1.250000e+01
2.500000e+01
3.750000e+01
5.000000e+01
6.250000e+01
7.500000e+01
8.750000e+01
1.000000e+02
1.125000e+02
1.250000e+02
1.375000e+02
1.500000e+02
1.625000e+02
1.750000e+02
1.875000e+02
2.000000e+02
0.000000e+00
1.250000e+01
2.500000e+01
3.750000e+01
5.000000e+01
6.250000e+01
7.500000e+01
8.750000e+01
1.000000e+02
1.125000e+02
1.250000e+02
1.375000e+02
1.500000e+02
1.625000e+02
1.750000e+02
1.875000e+02
2.000000e+02
0.000000e+00
1.250000e+01
2.500000e+01
3.750000e+01
5.000000e+01
6.250000e+01
7.500000e+01
8.750000e+01
1.000000e+02
1.125000e+02
1.250000e+02
1.375000e+02
1.500000e+02
1.625000e+02
1.750000e+02
1.875000e+02
2.000000e+02
0.000000e+00
1.250000e+01
2.500000e+01
3.750000e+01
5.000000e+01
6.250000e+01
7.500000e+01
8.750000e+01
1.000000e+02
1.125000e+02
1.250000e+02
1.375000e+02
1.500000e+02
1.625000e+02
1.750000e+02
1.875000e+02
2.000000e+02
0.000000e+00
1.250000e+01
2.500000e+01
3.750000e+01
5.000000e+01
6.250000e+01
7.500000e+01
8.750000e+01
1.000000e+02
1.125000e+02
1.250000e+02
1.375000e+02
1.500000e+02
1.625000e+02
1.750000e+02
1.875000e+02
2.000000e+02
0.000000e+00
1.250000e+01
2.500000e+01
3.750000e+01
5.000000e+01
6.250000e+01
7.500000e+01
8.750000e+01
1.000000e+02
1.125000e+02
1.250000e+02
1.375000e+02
1.500000e+02
1.625000e+02
1.750000e+02
1.875000e+02
2.000000e+02
0.000000e+00
1.250000e+01
2.500000e+01
3.750000e+01
5.000000e+01
6.250000e+01
7.500000e+01
8.750000e+01
1.000000e+02
1.125000e+02
1.250000e+02
1.375000e+02
1.500000e+02
1.625000e+02
1.750000e+02
1.875000e+02
2.000000e+02
0.000000e+00
1.250000e+01
2.500000e+01
3.750000e+01
5.000000e+01
6.250000e+01
7.500000e+01
8.750000e+01
1.000000e+02
1.125000e+02
1.250000e+02
1.375000e+02
1.500000e+02
1.625000e+02
1.750000e+02
1.875000e+02
2.000000e+02
0.000000e+00
1.250000e+01
2.500000e+01
3.750000e+01
5.000000e+01
6.250000e+01
7.500000e+01
8.750000e+01
1.000000e+02
1.125000e+02
1.250000e+02
1.375000e+02
1.500000e+02
1.625000e+02
1.750000e+02
1.875000e+02
2.000000e+02
0.000000e+00
0.000000e+00
0.000000e+00
0.000000e+00
0.000000e+00
0.000000e+00
0.000000e+00
0.000000e+00
0.000000e+00
0.000000e+00
0.000000e+00
0.000000e+00
0.000000e+00
0.000000e+00
0.000000e+00
0.000000e+00
0.000000e+00
1.250000e+01
1.250000e+01
1.250000e+01
1.250000e+01
1.250000e+01
1.250000e+01
1.250000e+01
1.250000e+01
1.250000e+01
1.250000e+01
1.250000e+01
1.250000e+01
1.250000e+01
1.250000e+01
1.250000e+01
1.250000e+01
1.250000e+01
2.500000e+01
2.500000e+01
2.500000e+01
2.500000e+01
2.500000e+01
2.500000e+01
2.500000e+01
2.500000e+01
2.500000e+01
2.500000e+01
2.500000e+01
2.500000e+01
2.500000e+01
2.500000e+01
2.500000e+01
2.500000e+01
2.500000e+01
3.750000e+01
3.750000e+01
3.750000e+01
3.750000e+01
3.750000e+01
3.750000e+01
3.750000e+01
3.750000e+01
3.750000e+01
3.750000e+01
3.750000e+01
3.750000e+01
3.750000e+01
3.750000e+01
3.750000e+01
3.750000e+01
3.750000e+01
5.000000e+01
5.000000e+01
5.000000e+01
5.000000e+01
5.000000e+01
5.000000e+01
5.000000e+01
5.000000e+01
5.000000e+01
5.000000e+01
5.000000e+01
5.000000e+01
5.000000e+01
5.000000e+01
5.000000e+01
5.000000e+01
5.000000e+01
6.250000e+01
6.250000e+01
6.250000e+01
6.250000e+01
6.250000e+01
6.250000e+01
6.250000e+01
6.250000e+01
6.250000e+01
6.250000e+01
6.250000e+01
6.250000e+01
6.250000e+01
6.250000e+01
6.250000e+01
6.250000e+01
6.250000e+01
7.500000e+01
7.500000e+01
7.500000e+01
7.500000e+01
7.500000e+01
7.500000e+01
7.500000e+01
7.500000e+01
7.500000e+01
7.500000e+01
7.500000e+01
7.500000e+01
7.500000e+01
7.500000e+01
7.500000e+01
7.500000e+01
7.500000e+01
8.750000e+01
8.750000e+01
8.750000e+01
8.750000e+01
8.750000e+01
8.750000e+01
8.750000e+01
8.750000e+01
8.750000e+01
8.750000e+01
8.750000e+01
8.750000e+01
8.750000e+01
8.750000e+01
8.750000e+01
8.750000e+01
8.750000e+01
1.000000e+02
1.000000e+02
1.000000e+02
1.000000e+02
1.000000e+02
1.000000e+02
1.000000e+02
1.000000e+02
1.000000e+02
1.000000e+02
1.000000e+02
1.000000e+02
1.000000e+02
1.000000e+02
1.000000e+02
1.000000e+02
1.000000e+02
0.000000e+00
-7.687151e-02
-1.415448e-01
-2.010526e-01
-2.564710e-01
-3.076831e-01
-3.545790e-01
-3.971222e-01
-4.353748e-01
-4.695130e-01
-4.998751e-01
-5.270545e-01
-5.520722e-01
-5.766917e-01
-6.039546e-01
-6.374370e-01
-6.625618e-01
0.000000e+00
-4.590631e-02
-9.536143e-02
-1.410301e-01
-1.831049e-01
-2.217459e-01
-2.570332e-01
-2.890142e-01
-3.177463e-01
-3.433182e-01
-3.658597e-01
-3.855332e-01
-4.024643e-01
-4.164787e-01
-4.263638e-01
-4.285304e-01
-4.362984e-01
0.000000e+00
-2.870850e-02
-5.903185e-02
-8.928388e-02
-1.175232e-01
-1.434508e-01
-1.670458e-01
-1.883346e-01
-2.073228e-01
-2.239785e-01
-2.382121e-01
-2.498248e-01
-2.584026e-01
-2.631910e-01
-2.633239e-01
-2.614110e-01
-2.693338e-01
0.000000e+00
-1.385650e-02
-2.852546e-02
-4.328705e-02
-5.740180e-02
-7.040235e-02
-8.218607e-02
-9.271863e-02
-1.019398e-01
-1.097295e-01
-1.158886e-01
-1.201266e-01
-1.220964e-01
-1.216362e-01
-1.197455e-01
-1.202625e-01
-1.261618e-01
0.000000e+00
-1.276441e-05
-2.901751e-05
-4.521724e-05
-5.381472e-05
-3.797629e-05
3.571070e-05
2.272012e-04
6.348592e-04
1.405204e-03
2.729389e-03
4.799446e-03
7.667262e-03
1.090804e-02
1.314667e-02
1.253268e-02
8.626835e-03
0.000000e+00
1.383686e-02
2.847986e-02
4.321412e-02
5.731108e-02
7.032857e-02
8.221469e-02
9.302760e-02
1.028610e-01
1.118291e-01
1.200489e-01
1.275813e-01
1.342955e-01
1.396795e-01
1.428467e-01
1.430979e-01
1.411154e-01
0.000000e+00
2.870528e-02
5.902203e-02
8.926434e-02
1.174927e-01
1.434128e-01
1.670142e-01
1.883449e-01
2.074490e-01
2.243604e-01
2.390940e-01
2.516137e-01
2.617756e-01
2.692886e-01
2.737981e-01
2.752624e-01
2.748000e-01
0.000000e+00
4.592514e-02
9.540237e-02
1.410954e-01
1.831925e-01
2.218396e-01
2.570858e-01
2.889180e-01
3.172877e-01
3.421129e-01
3.632760e-01
3.806306e-01
3.940378e-01
4.034534e-01
4.090699e-01
4.114651e-01
4.119050e-01
0.000000e+00
7.690300e-02
1.416279e-01
2.012083e-01
2.567196e-01
3.080328e-01
3.549961e-01
3.974730e-01
4.353215e-01
4.683449e-01
4.962568e-01
5.186851e-01
5.352615e-01
5.458556e-01
5.509791e-01
5.522437e-01
5.522193e-01
0.000000e+00
-4.653244e-02
-9.134858e-02
-1.494199e-01
-2.206903e-01
-3.050267e-01
-4.015052e-01
-5.090463e-01
-6.265063e-01
-7.527570e-01
-8.867560e-01
-1.027674e+00
-1.175170e+00
-1.330033e+00
-1.496280e+00
-1.686497e+00
-1.959805e+00
0.000000e+00
-2.864622e-02
-7.539681e-02
-1.341882e-01
-2.066235e-01
-2.921107e-01
-3.897581e-01
-4.984595e-01
-6.170579e-01
-7.444049e-01
-8.794291e-01
-1.021263e+00
-1.169514e+00
-1.324949e+00
-1.491131e+00
-1.680194e+00
-1.911816e+00
0.000000e+00
-2.161611e-02
-6.433825e-02
-1.233466e-01
-1.964668e-01
-2.828340e-01
-3.813789e-01
-4.909847e-01
-6.105025e-01
-7.387998e-01
-8.748263e-01
-1.017744e+00
-1.167198e+00
-1.323828e+00
-1.490154e+00
-1.669297e+00
-1.842670e+00
0.000000e+00
-1.862722e-02
-5.883998e-02
-1.169829e-01
-1.903674e-01
-2.772662e-01
-3.764255e-01
-4.866860e-01
-6.069204e-01
-7.360271e-01
-8.729781e-01
-1.016920e+00
-1.167328e+00
-1.324131e+00
-1.487129e+00
-1.651736e+00
-1.803378e+00
0.000000e+00
-1.776618e-02
-5.717595e-02
-1.149529e-01
-1.883573e-01
-2.754724e-01
-3.749168e-01
-4.855323e-01
-6.062129e-01
-7.358751e-01
-8.734681e-01
-1.018003e+00
-1.168545e+00
-1.323984e+00
-1.481993e+00
-1.637169e+00
-1.780125e+00
0.000000e+00
-1.861616e-02
-5.883212e-02
-1.169969e-01
-1.904362e-01
-2.774474e-01
-3.768131e-01
-4.874201e-01
-6.081861e-01
-7.380220e-01
-8.758090e-01
-1.020350e+00
-1.170248e+00
-1.323594e+00
-1.477443e+00
-1.627298e+00
-1.767202e+00
0.000000e+00
-2.159808e-02
-6.432521e-02
-1.233700e-01
-1.965827e-01
-2.831405e-01
-3.820360e-01
-4.922312e-01
-6.126544e-01
-7.421980e-01
-8.796679e-01
-1.023683e+00
-1.172509e+00
-1.323845e+00
-1.474711e+00
-1.621691e+00
-1.761502e+00
0.000000e+00
-2.862931e-02
-7.538546e-02
-1.342192e-01
-2.067627e-01
-2.924712e-01
-3.905231e-01
-4.999002e-01
-6.195300e-01
-7.482844e-01
-8.849205e-01
-1.027959e+00
-1.175516e+00
-1.325168e+00
-1.474027e+00
-1.619372e+00
-1.760164e+00
0.000000e+00
-4.652545e-02
-9.134956e-02
-1.494679e-01
-2.208516e-01
-3.054119e-01
-4.022880e-01
-5.104745e-01
-6.288874e-01
-7.563789e-01
-8.916761e-01
-1.033267e+00
-1.179255e+00
-1.327270e+00
-1.474609e+00
-1.618948e+00
-1.760185e+00


0.000000e+00
5.646051e-10
1.167561e-09
1.701532e-09
2.152360e-09
2.518518e-09
2.806724e-09
3.027718e-09
3.192922e-09
3.313324e-09
3.399017e-09
3.459090e-09
3.501861e-09
3.535053e-09
3.565936e-09
3.604082e-09
3.649895e-09
0.000000e+00
3.840689e-10
9.049466e-10
1.329190e-09
1.669317e-09
1.937993e-09
2.145321e-09
2.301577e-09
2.416278e-09
2.497911e-09
2.553845e-09
2.590185e-09
2.611544e-09
2.622052e-09
2.632707e-09
2.663900e-09
2.711072e-09
0.000000e+00
2.859193e-10
6.284868e-10
9.146780e-10
1.144562e-09
1.322002e-09
1.455530e-09
1.553644e-09
1.623593e-09
1.671373e-09
1.701906e-09
1.719223e-09
1.726929e-09
1.729914e-09
1.737426e-09
1.761900e-09
1.800100e-09
0.000000e+00
1.530315e-10
3.134596e-10
4.566108e-10
5.736817e-10
6.631536e-10
7.292123e-10
7.766261e-10
8.093478e-10
8.305298e-10
8.428121e-10
8.486962e-10
8.510865e-10
8.537129e-10
8.603291e-10
8.752027e-10
8.987091e-10
0.000000e+00
-1.667542e-13
-3.918082e-13
-7.047671e-13
-1.155588e-12
-1.811568e-12
-2.760303e-12
-4.102397e-12
-5.924545e-12
-8.231793e-12
-1.082123e-11
-1.309692e-11
-1.398314e-11
-1.242318e-11
-8.354889e-12
-1.184963e-12
1.106425e-11
0.000000e+00
-1.533177e-10
-3.141220e-10
-4.577986e-10
-5.756050e-10
-6.661152e-10
-7.336353e-10
-7.830779e-10
-8.185411e-10
-8.432570e-10
-8.597320e-10
-8.698557e-10
-8.750725e-10
-8.768016e-10
-8.767129e-10
-8.749407e-10
-8.697065e-10
0.000000e+00
-2.860660e-10
-6.288906e-10
-9.154264e-10
-1.145755e-09
-1.323748e-09
-1.457937e-09
-1.556825e-09
-1.627684e-09
-1.676608e-09
-1.708756e-09
-1.728567e-09
-1.739869e-09
-1.745924e-09
-1.749177e-09
-1.750289e-09
-1.748815e-09
0.000000e+00
-3.841201e-10
-9.052009e-10
-1.329641e-09
-1.669946e-09
-1.938734e-09
-2.146008e-09
-2.301914e-09
-2.415836e-09
-2.496210e-09
-2.550562e-09
-2.585547e-09
-2.606903e-09
-2.619305e-09
-2.626136e-09
-2.629246e-09
-2.629680e-09
0.000000e+00
-5.648517e-10
-1.167964e-09
-1.701980e-09
-2.152719e-09
-2.518549e-09
-2.806047e-09
-3.025775e-09
-3.188971e-09
-3.306449e-09
-3.388106e-09
-3.442659e-09
-3.477436e-09
-3.498217e-09
-3.509188e-09
-3.513386e-09
-3.514112e-09
0.000000e+00
5.130783e-10
9.220638e-10
1.351158e-09
1.866165e-09
2.472306e-09
3.157288e-09
3.905103e-09
4.700391e-09
5.530477e-09
6.385636e-09
7.259203e-09
8.148473e-09
9.059260e-09
1.001605e-08
1.103146e-08
1.205989e-08
0.000000e+00
2.759169e-10
6.755926e-10
1.133647e-09
1.687773e-09
2.331597e-09
3.049695e-09
3.824939e-09
4.642339e-09
5.489759e-09
6.358092e-09
7.241266e-09
8.136776e-09
9.047364e-09
9.984752e-09
1.097191e-08
1.198369e-08
0.000000e+00
1.361474e-10
4.821536e-10
9.637491e-10
1.549904e-09
2.224769e-09
2.969211e-09
3.765903e-09
4.600401e-09
5.461231e-09
6.339858e-09
7.230627e-09
8.130554e-09
9.038030e-09
9.954147e-09
1.090866e-08
1.189331e-08
0.000000e+00
7.757109e-11
3.908873e-10
8.747033e-10
1.477544e-09
2.169487e-09
2.928258e-09
3.736387e-09
4.579934e-09
5.447898e-09
6.332013e-09
7.226498e-09
8.127353e-09
9.030572e-09
9.935156e-09
1.086371e-08
1.181422e-08
0.000000e+00
6.270546e-11
3.660104e-10
8.477454e-10
1.455297e-09
2.152654e-09
2.916026e-09
3.727855e-09
4.574403e-09
5.444809e-09
6.330736e-09
7.226029e-09
8.126006e-09
9.026544e-09
9.926232e-09
1.083803e-08
1.175794e-08
0.000000e+00
7.767600e-11
3.910329e-10
8.749003e-10
1.477823e-09
2.169931e-09
2.929013e-09
3.737659e-09
4.581942e-09
5.450749e-09
6.335429e-09
7.229409e-09
8.127690e-09
9.026460e-09
9.924201e-09
1.082563e-08
1.172554e-08
0.000000e+00
1.363131e-10
4.824162e-10
9.641378e-10
1.550479e-09
2.225691e-09
2.970750e-09
3.768439e-09
4.604342e-09
5.466810e-09
6.346699e-09
7.236983e-09
8.132358e-09
9.028996e-09
9.924848e-09
1.082015e-08
1.171041e-08
0.000000e+00
2.761490e-10
6.760270e-10
1.134290e-09
1.688704e-09
2.333002e-09
3.051874e-09
3.828307e-09
4.647338e-09
5.496657e-09
6.366535e-09
7.249423e-09
8.139578e-09
9.032789e-09
9.926247e-09
1.081806e-08
1.170536e-08
0.000000e+00
5.134483e-10
9.227007e-10
1.352052e-09
1.867385e-09
2.473993e-09
3.159680e-09
3.908509e-09
4.705140e-09
5.536734e-09
6.392997e-09
7.265838e-09
8.148973e-09
9.037617e-09
9.928223e-09
1.081792e-08
1.170459e-08


2.246120e-01
2.246120e-01
2.246120e-01
2.246120e-01
2.246120e-01
2.246120e-01
2.246121e-01
2.246121e-01
2.246121e-01
2.246121e-01
2.246121e-01
2.246121e-01
2.246121e-01
2.246121e-01
2.246121e-01
2.246121e-01
2.246120e-01
2.246120e-01
2.246120e-01
2.246120e-01
2.246120e-01
2.246121e-01
2.246121e-01
2.246121e-01
2.246121e-01
2.246121e-01
2.246121e-01
2.246121e-01
2.246121e-01
2.246121e-01
2.246121e-01
2.246121e-01
2.246120e-01
2.246120e-01
2.246120e-01
2.246121e-01
2.246121e-01
2.246121e-01
2.246121e-01
2.246121e-01
2.246121e-01
2.246121e-01
2.246121e-01
2.246121e-01
2.246121e-01
2.246121e-01
2.246121e-01
2.246121e-01
2.246121e-01
2.246121e-01
2.246121e-01
2.246121e-01
2.246121e-01
2.246121e-01
2.246121e-01
2.246121e-01
2.246121e-01
2.246121e-01
2.246121e-01
2.246121e-01
2.246121e-01
2.246121e-01
2.246121e-01
2.246121e-01
2.246121e-01
2.246121e-01
2.246121e-01
2.246121e-01
2.246121e-01
2.246121e-01
2.246121e-01
2.246121e-01
2.246121e-01
2.246121e-01
2.246121e-01
2.246121e-01
2.246121e-01
2.246121e-01
2.246121e-01
2.246121e-01
2.246120e-01
2.246120e-01
2.246120e-01
2.246121e-01
2.246121e-01
2.246121e-01
2.246121e-01
2.246121e-01
2.246121e-01
2.246121e-01
2.246121e-01
2.246121e-01
2.246121e-01
2.246121e-01
2.246121e-01
2.246121e-01
2.246120e-01
2.246120e-01
2.246120e-01
2.246120e-01
2.246120e-01
2.246121e-01
2.246121e-01
2.246121e-01
2.246121e-01
2.246121e-01
2.246121e-01
2.246121e-01
2.246121e-01
2.246121e-01
2.246121e-01
2.246121e-01
2.246120e-01
2.246120e-01
2.246120e-01
2.246120e-01
2.246120e-01
2.246120e-01
2.246121e-01
2.246121e-01
2.246121e-01
2.246121e-01
2.246121e-01
2.246121e-01
2.246121e-01
2.246121e-01
2.246121e-01
2.246121e-01


9.867052e-01
9.885905e-01
9.903346e-01
9.916771e-01
9.929233e-01
9.940724e-01
9.951193e-01
9.960517e-01
9.968599e-01
9.975358e-01
9.980732e-01
9.984670e-01
9.987117e-01
9.987990e-01
9.988620e-01
9.949767e-01
9.949703e-01
9.941064e-01
9.946622e-01
9.953877e-01
9.960641e-01
9.966788e-01
9.972353e-01
9.977393e-01
9.981957e-01
9.986091e-01
9.989842e-01
9.993238e-01
9.996201e-01
9.998142e-01
9.993235e-01
9.926726e-01
9.982524e-01
9.977562e-01
9.976222e-01
9.978107e-01
9.980586e-01
9.982987e-01
9.985216e-01
9.987322e-01
9.989363e-01
9.991352e-01
9.993210e-01
9.994648e-01
9.994949e-01
9.992358e-01
9.982961e-01
9.966059e-01
9.996443e-01
9.992824e-01
9.990589e-01
9.990022e-01
9.990248e-01
9.990628e-01
9.991007e-01
9.991378e-01
9.991742e-01
9.992047e-01
9.992132e-01
9.991679e-01
9.990242e-01
9.987663e-01
9.985476e-01
9.984922e-01
9.996457e-01
9.992843e-01
9.990606e-01
9.990018e-01
9.990192e-01
9.990466e-01
9.990656e-01
9.990720e-01
9.990633e-01
9.990353e-01
9.989831e-01
9.989079e-01
9.988363e-01
9.988505e-01
9.990529e-01
9.994033e-01
9.982549e-01
9.977600e-01
9.976259e-01
9.978107e-01
9.980489e-01
9.982690e-01
9.984551e-01
9.986047e-01
9.987168e-01
9.987922e-01
9.988400e-01
9.988866e-01
9.989846e-01
9.991900e-01
9.994986e-01
9.998177e-01
9.949698e-01
9.941060e-01
9.946615e-01
9.953856e-01
9.960588e-01
9.966667e-01
9.972102e-01
9.976915e-01
9.981108e-01
9.984693e-01
9.987727e-01
9.990378e-01
9.992930e-01
9.995605e-01
9.998107e-01
9.999683e-01
9.866962e-01
9.885763e-01
9.903172e-01
9.916576e-01
9.929058e-01
9.940660e-01
9.951409e-01
9.961279e-01
9.970272e-01
9.978371e-01
9.985479e-01
9.991376e-01
9.995762e-01
9.998469e-01
9.999700e-01
9.999994e-01
1 2 19 18
2 3 20 19
3 4 21 20
4 5 22 21
5 6 23 22
6 7 24 23
7 8 25 24
8 9 26 25
9 10 27 26
10 11 28 27
11 12 29 28
12 13 30 29
13 14 31 30
14 15 32 31
15 16 33 32
16 17 34 33
18 19 36 35
19 20 37 36
20 21 38 37
21 22 39 38
22 23 40 39
23 24 41 40
24 25 42 41
25 26 43 42
26 27 44 43
27 28 45 44
28 29 46 45
29 30 47 46
30 31 48 47
31 32 49 48
32 33 50 49
33 34 51 50
35 36 53 52
36 37 54 53
37 38 55 54
38 39 56 55
39 40 57 56
40 41 58 57
41 42 59 58
42 43 60 59
43 44 61 60
44 45 62 61
45 46 63 62
46 47 64 63
47 48 65 64
48 49 66 65
49 50 67 66
50 51 68 67
52 53 70 69
53 54 71 70
54 55 72 71
55 56 73 72
56 57 74 73
57 58 75 74
58 59 76 75
59 60 77 76
60 61 78 77
61 62 79 78
62 63 80 79
63 64 81 80
64 65 82 81
65 66 83 82
66 67 84 83
67 68 85 84
69 70 87 86
70 71 88 87
71 72 89 88
72 73 90 89
73 74 91 90
74 75 92 91
75 76 93 92
76 77 94 93
77 78 95 94
78 79 96 95
79 80 97 96
80 81 98 97
81 82 99 98
82 83 100 99
83 84 101 100
84 85 102 101
86 87 104 103
87 88 105 104
88 89 106 105
89 90 107 106
90 91 108 107
91 92 109 108
92 93 110 109
93 94 111 110
94 95 112 111
95 96 113 112
96 97 114 113
97 98 115 114
98 99 116 115
99 100 117 116
100 101 118 117
101 102 119 118
103 104 121 120
104 105 122 121
105 106 123 122
106 107 124 123
107 108 125 124
108 109 126 125
109 110 127 126
110 111 128 127
111 112 129 128
112 113 130 129
113 114 131 130
114 115 132 131
115 116 133 132
116 117 134 133
117 118 135 134
118 119 136 135
120 121 138 137
121 122 139 138
122 123 140 139
123 124 141 140
124 125 142 141
125 126 143 142
126 127 144 143
127 128 145 144
128 129 146 145
129 130 147 146
130 131 148 147
131 132 149 148
132 133 150 149
133 134 151 150
134 135 152 151
135 136 153 152
