TITLE = "Solution"
VARIABLES = x, y, u, v, psiu, psiv, t, stress
ZONE T="structure" N=153 E=128 F=FEBLOCK ET=QUADRILATERAL VARLOCATION=([7,8]=cellcentered)
0.000000e+00
1.250000e+01
2.500000e+01
3.750000e+01
5.000000e+01
6.250000e+01
7.500000e+01
8.750000e+01
1.000000e+02
1.125000e+02
1.250000e+02
1.375000e+02
1.500000e+02
1.625000e+02
1.750000e+02
1.875000e+02
2.000000e+02
0.000000e+00
1.250000e+01
2.500000e+01
3.750000e+01
5.000000e+01
6.250000e+01
7.500000e+01
8.750000e+01
1.000000e+02
1.125000e+02
1.250000e+02
1.375000e+02
1.500000e+02
1.625000e+02
1.750000e+02
1.875000e+02
2.000000e+02
0.000000e+00
1.250000e+01
2.500000e+01
3.750000e+01
5.000000e+01
6.250000e+01
7.500000e+01
8.750000e+01
1.000000e+02
1.125000e+02
1.250000e+02
1.375000e+02
1.500000e+02
1.625000e+02
1.750000e+02
1.875000e+02
2.000000e+02
0.000000e+00
1.250000e+01
2.500000e+01
3.750000e+01
5.000000e+01
6.250000e+01
7.500000e+01
8.750000e+01
1.000000e+02
1.125000e+02
1.250000e+02
1.375000e+02
1.500000e+02
1.625000e+02
1.750000e+02
1.875000e+02
2.000000e+02
0.000000e+00
1.250000e+01
2.500000e+01
3.750000e+01
5.000000e+01
6.250000e+01
7.500000e+01
8.750000e+01
1.000000e+02
1.125000e+02
1.250000e+02
1.375000e+02
1.500000e+02
1.625000e+02
1.750000e+02
1.875000e+02
2.000000e+02
0.000000e+00
1.250000e+01
2.500000e+01
3.750000e+01
5.000000e+01
6.250000e+01
7.500000e+01
8.750000e+01
1.000000e+02
1.125000e+02
1.250000e+02
1.375000e+02
1.500000e+02
1.625000e+02
1.750000e+02
1.875000e+02
2.000000e+02
0.000000e+00
1.250000e+01
2.500000e+01
3.750000e+01
5.000000e+01
6.250000e+01
7.500000e+01
8.750000e+01
1.000000e+02
1.125000e+02
1.250000e+02
1.375000e+02
1.500000e+02
1.625000e+02
1.750000e+02
1.875000e+02
2.000000e+02
0.000000e+00
1.250000e+01
2.500000e+01
3.750000e+01
5.000000e+01
6.250000e+01
7.500000e+01
8.750000e+01
1.000000e+02
1.125000e+02
1.250000e+02
1.375000e+02
1.500000e+02
1.625000e+02
1.750000e+02
1.875000e+02
2.000000e+02
0.000000e+00
1.250000e+01
2.500000e+01
3.750000e+01
5.000000e+01
6.250000e+01
7.500000e+01
8.750000e+01
1.000000e+02
1.125000e+02
1.250000e+02
1.375000e+02
1.500000e+02
1.625000e+02
1.750000e+02
1.875000e+02
2.000000e+02
0.000000e+00
0.000000e+00
0.000000e+00
0.000000e+00
0.000000e+00
0.000000e+00
0.000000e+00
0.000000e+00
0.000000e+00
0.000000e+00
0.000000e+00
0.000000e+00
0.000000e+00
0.000000e+00
0.000000e+00
0.000000e+00
0.000000e+00
1.250000e+01
1.250000e+01
1.250000e+01
1.250000e+01
1.250000e+01
1.250000e+01
1.250000e+01
1.250000e+01
1.250000e+01
1.250000e+01
1.250000e+01
1.250000e+01
1.250000e+01
1.250000e+01
1.250000e+01
1.250000e+01
1.250000e+01
2.500000e+01
2.500000e+01
2.500000e+01
2.500000e+01
2.500000e+01
2.500000e+01
2.500000e+01
2.500000e+01
2.500000e+01
2.500000e+01
2.500000e+01
2.500000e+01
2.500000e+01
2.500000e+01
2.500000e+01
2.500000e+01
2.500000e+01
3.750000e+01
3.750000e+01
3.750000e+01
3.750000e+01
3.750000e+01
3.750000e+01
3.750000e+01
3.750000e+01
3.750000e+01
3.750000e+01
3.750000e+01
3.750000e+01
3.750000e+01
3.750000e+01
3.750000e+01
3.750000e+01
3.750000e+01
5.000000e+01
5.000000e+01
5.000000e+01
5.000000e+01
5.000000e+01
5.000000e+01
5.000000e+01
5.000000e+01
5.000000e+01
5.000000e+01
5.000000e+01
5.000000e+01
5.000000e+01
5.000000e+01
5.000000e+01
5.000000e+01
5.000000e+01
6.250000e+01
6.250000e+01
6.250000e+01
6.250000e+01
6.250000e+01
6.250000e+01
6.250000e+01
6.250000e+01
6.250000e+01
6.250000e+01
6.250000e+01
6.250000e+01
6.250000e+01
6.250000e+01
6.250000e+01
6.250000e+01
6.250000e+01
7.500000e+01
7.500000e+01
7.500000e+01
7.500000e+01
7.500000e+01
7.500000e+01
7.500000e+01
7.500000e+01
7.500000e+01
7.500000e+01
7.500000e+01
7.500000e+01
7.500000e+01
7.500000e+01
7.500000e+01
7.500000e+01
7.500000e+01
8.750000e+01
8.750000e+01
8.750000e+01
8.750000e+01
8.750000e+01
8.750000e+01
8.750000e+01
8.750000e+01
8.750000e+01
8.750000e+01
8.750000e+01
8.750000e+01
8.750000e+01
8.750000e+01
8.750000e+01
8.750000e+01
8.750000e+01
1.000000e+02
1.000000e+02
1.000000e+02
1.000000e+02
1.000000e+02
1.000000e+02
1.000000e+02
1.000000e+02
1.000000e+02
1.000000e+02
1.000000e+02
1.000000e+02
1.000000e+02
1.000000e+02
1.000000e+02
1.000000e+02
1.000000e+02
0.000000e+00
-9.076466e-01
-1.604834e+00
-2.298306e+00
-2.988562e+00
-3.648846e+00
-4.318953e+00
-4.989647e+00
-5.650831e+00
-6.312971e+00
-6.979208e+00
-7.657561e+00
-8.360119e+00
-9.084655e+00
-9.818916e+00
-1.050613e+01
-1.095109e+01
0.000000e+00
-4.518098e-01
-9.403065e-01
-1.441648e+00
-1.958835e+00
-2.453821e+00
-2.955873e+00
-3.460161e+00
-3.956653e+00
-4.451910e+00
-4.946218e+00
-5.439164e+00
-5.928000e+00
-6.383598e+00
-6.711703e+00
-6.794322e+00
-6.958490e+00
0.000000e+00
-2.085845e-01
-4.588632e-01
-7.702854e-01
-1.108993e+00
-1.442391e+00
-1.784580e+00
-2.127799e+00
-2.465924e+00
-2.800003e+00
-3.123644e+00
-3.425147e+00
-3.684619e+00
-3.864374e+00
-3.913233e+00
-3.889934e+00
-4.042888e+00
0.000000e+00
-8.788540e-02
-1.921463e-01
-3.344660e-01
-4.917274e-01
-6.600864e-01
-8.333942e-01
-1.005340e+00
-1.173540e+00
-1.333532e+00
-1.475785e+00
-1.585406e+00
-1.643318e+00
-1.632957e+00
-1.571887e+00
-1.569983e+00
-1.699008e+00
0.000000e+00
-1.543595e-03
-3.124365e-03
-4.525788e-03
-5.381951e-03
-5.115530e-03
-2.751012e-03
3.379023e-03
1.573741e-02
3.806505e-02
7.647305e-02
1.389119e-01
2.307579e-01
3.443356e-01
4.375421e-01
4.451320e-01
3.439124e-01
0.000000e+00
8.522944e-02
1.868542e-01
3.266931e-01
4.823346e-01
6.508799e-01
8.279781e-01
1.010074e+00
1.198729e+00
1.395963e+00
1.601700e+00
1.812094e+00
2.017346e+00
2.196692e+00
2.314004e+00
2.336037e+00
2.277649e+00
0.000000e+00
2.072551e-01
4.561600e-01
7.662915e-01
1.103821e+00
1.436712e+00
1.780421e+00
2.128140e+00
2.474423e+00
2.824046e+00
3.174870e+00
3.513178e+00
3.815865e+00
4.055790e+00
4.207350e+00
4.259214e+00
4.244974e+00
0.000000e+00
4.517438e-01
9.400229e-01
1.441204e+00
1.957765e+00
2.451277e+00
2.951627e+00
3.452826e+00
3.941642e+00
4.425823e+00
4.905592e+00
5.360224e+00
5.752779e+00
6.048433e+00
6.231740e+00
6.311344e+00
6.326081e+00
0.000000e+00
9.084710e-01
1.606734e+00
2.301706e+00
2.993096e+00
3.653229e+00
4.322124e+00
4.988118e+00
5.636111e+00
6.276411e+00
6.906020e+00
7.491581e+00
7.975798e+00
8.307444e+00
8.473868e+00
8.515533e+00
8.514615e+00
0.000000e+00
-5.662457e-01
-1.212470e+00
-2.069716e+00
-3.097274e+00
-4.291199e+00
-5.662661e+00
-7.205902e+00
-8.920250e+00
-1.080929e+01
-1.287332e+01
-1.511656e+01
-1.754740e+01
-2.017358e+01
-2.303609e+01
-2.634207e+01
-3.122072e+01
0.000000e+00
-3.668857e-01
-1.043721e+00
-1.889832e+00
-2.921990e+00
-4.117475e+00
-5.486974e+00
-7.031835e+00
-8.747854e+00
-1.063747e+01
-1.270190e+01
-1.494438e+01
-1.737611e+01
-2.001812e+01
-2.291851e+01
-2.624227e+01
-3.026303e+01
0.000000e+00
-3.211701e-01
-9.387590e-01
-1.775831e+00
-2.800789e+00
-3.994158e+00
-5.363602e+00
-6.909472e+00
-8.628050e+00
-1.052239e+01
-1.259449e+01
-1.484841e+01
-1.729776e+01
-1.997270e+01
-2.290898e+01
-2.606605e+01
-2.903148e+01
0.000000e+00
-3.429770e-01
-9.146762e-01
-1.726414e+00
-2.735064e+00
-3.924189e+00
-5.294133e+00
-6.841604e+00
-8.565140e+00
-1.046878e+01
-1.255593e+01
-1.483006e+01
-1.729934e+01
-1.997925e+01
-2.285398e+01
-2.573602e+01
-2.825405e+01
0.000000e+00
-3.537697e-01
-9.172341e-01
-1.715105e+00
-2.717621e+00
-3.905534e+00
-5.277650e+00
-6.829174e+00
-8.559192e+00
-1.047259e+01
-1.257414e+01
-1.486402e+01
-1.733730e+01
-1.998062e+01
-2.272529e+01
-2.538692e+01
-2.766701e+01
0.000000e+00
-3.427450e-01
-9.151814e-01
-1.728813e+00
-2.740680e+00
-3.934332e+00
-5.311153e+00
-6.868547e+00
-8.604062e+00
-1.052276e+01
-1.263063e+01
-1.492443e+01
-1.738535e+01
-1.997206e+01
-2.259533e+01
-2.510011e+01
-2.727754e+01
0.000000e+00
-3.208938e-01
-9.396908e-01
-1.779754e+00
-2.809887e+00
-4.010798e+00
-5.391608e+00
-6.953667e+00
-8.691911e+00
-1.061103e+01
-1.271743e+01
-1.500539e+01
-1.744570e+01
-1.997895e+01
-2.251089e+01
-2.492128e+01
-2.709303e+01
0.000000e+00
-3.666546e-01
-1.044789e+00
-1.894142e+00
-2.932018e+00
-4.136107e+00
-5.518440e+00
-7.081110e+00
-8.819030e+00
-1.073660e+01
-1.283823e+01
-1.511455e+01
-1.753044e+01
-2.001923e+01
-2.248861e+01
-2.484463e+01
-2.704891e+01
0.000000e+00
-5.662168e-01
-1.213776e+00
-2.074300e+00
-3.107436e+00
-4.309939e+00
-5.694086e+00
-7.254018e+00
-8.988783e+00
-1.090456e+01
-1.300022e+01
-1.525920e+01
-1.764241e+01
-2.008605e+01
-2.250761e+01
-2.483040e+01
-2.704971e+01


0.000000e+00
1.391965e-05
2.480427e-05
3.685024e-05
5.138087e-05
6.501103e-05
7.808148e-05
9.177046e-05
1.049759e-04
1.175883e-04
1.304770e-04
1.430919e-04
1.533871e-04
1.603079e-04
1.646345e-04
1.683238e-04
1.726642e-04
0.000000e+00
1.021114e-05
1.985665e-05
2.863695e-05
4.021106e-05
5.066005e-05
6.015981e-05
7.036930e-05
8.028047e-05
8.935304e-05
9.857014e-05
1.072731e-04
1.132258e-04
1.152812e-04
1.155409e-04
1.185734e-04
1.234148e-04
0.000000e+00
8.158328e-06
1.482248e-05
2.065740e-05
2.849979e-05
3.528406e-05
4.145063e-05
4.801368e-05
5.424443e-05
5.974468e-05
6.490078e-05
6.911532e-05
7.129035e-05
7.133971e-05
7.140610e-05
7.424486e-05
7.896769e-05
0.000000e+00
4.255870e-06
6.872802e-06
1.049245e-05
1.391500e-05
1.708292e-05
2.018680e-05
2.322597e-05
2.587765e-05
2.814642e-05
2.978651e-05
3.059375e-05
3.070415e-05
3.081067e-05
3.168527e-05
3.441523e-05
3.867158e-05
0.000000e+00
-4.571278e-08
-1.020989e-07
-1.707490e-07
-2.615854e-07
-3.718801e-07
-5.160049e-07
-7.283100e-07
-1.064651e-06
-1.612725e-06
-2.506959e-06
-3.656243e-06
-4.665636e-06
-4.951554e-06
-4.110573e-06
-2.415768e-06
7.769995e-08
0.000000e+00
-4.326694e-06
-7.030949e-06
-1.077786e-05
-1.432722e-05
-1.765894e-05
-2.098217e-05
-2.425793e-05
-2.721159e-05
-3.010866e-05
-3.283714e-05
-3.523389e-05
-3.706762e-05
-3.804290e-05
-3.843277e-05
-3.841952e-05
-3.761877e-05
0.000000e+00
-8.166364e-06
-1.489419e-05
-2.080963e-05
-2.870314e-05
-3.560469e-05
-4.193485e-05
-4.845690e-05
-5.458236e-05
-6.010411e-05
-6.505370e-05
-6.879879e-05
-7.128463e-05
-7.291773e-05
-7.399534e-05
-7.462533e-05
-7.465259e-05
0.000000e+00
-1.018380e-05
-1.985639e-05
-2.866149e-05
-4.020176e-05
-5.070658e-05
-6.033285e-05
-7.040992e-05
-8.018923e-05
-8.938404e-05
-9.787205e-05
-1.043019e-04
-1.082348e-04
-1.105178e-04
-1.117978e-04
-1.123768e-04
-1.125055e-04
0.000000e+00
-1.390989e-05
-2.477639e-05
-3.678671e-05
-5.120409e-05
-6.476237e-05
-7.780424e-05
-9.129786e-05
-1.043710e-04
-1.172510e-04
-1.296488e-04
-1.396845e-04
-1.462737e-04
-1.496961e-04
-1.510028e-04
-1.512457e-04
-1.512354e-04
0.000000e+00
1.181249e-05
1.966747e-05
3.091946e-05
4.580443e-05
6.268528e-05
8.347146e-05
1.084499e-04
1.364616e-04
1.679542e-04
2.033813e-04
2.417481e-04
2.821550e-04
3.255726e-04
3.758926e-04
4.333533e-04
4.913943e-04
0.000000e+00
6.666407e-06
1.517609e-05
2.512005e-05
3.948936e-05
5.690056e-05
7.769245e-05
1.025127e-04
1.308599e-04
1.625229e-04
1.979548e-04
2.370339e-04
2.791272e-04
3.239867e-04
3.726234e-04
4.274781e-04
4.837769e-04
0.000000e+00
3.262298e-06
1.108047e-05
2.070344e-05
3.454724e-05
5.243418e-05
7.349884e-05
9.828158e-05
1.268710e-04
1.588748e-04
1.945264e-04
2.342139e-04
2.775002e-04
3.230816e-04
3.687223e-04
4.197904e-04
4.737953e-04
0.000000e+00
2.091803e-06
8.984761e-06
1.877785e-05
3.252913e-05
5.048976e-05
7.178764e-05
9.668646e-05
1.253522e-04
1.576255e-04
1.935759e-04
2.333885e-04
2.768640e-04
3.220917e-04
3.656183e-04
4.122188e-04
4.621292e-04
0.000000e+00
1.795010e-06
8.398913e-06
1.816837e-05
3.201785e-05
4.986499e-05
7.127950e-05
9.627156e-05
1.249619e-04
1.574122e-04
1.936247e-04
2.335013e-04
2.767486e-04
3.216901e-04
3.642733e-04
4.071915e-04
4.520336e-04
0.000000e+00
2.119271e-06
9.020025e-06
1.882462e-05
3.254607e-05
5.046063e-05
7.176907e-05
9.667527e-05
1.253410e-04
1.578980e-04
1.944244e-04
2.345860e-04
2.776767e-04
3.218126e-04
3.643675e-04
4.054797e-04
4.460671e-04
0.000000e+00
3.300975e-06
1.114156e-05
2.078373e-05
3.458022e-05
5.238914e-05
7.345603e-05
9.819972e-05
1.267929e-04
1.593750e-04
1.961786e-04
2.366040e-04
2.793132e-04
3.225043e-04
3.643914e-04
4.047432e-04
4.437451e-04
0.000000e+00
6.711330e-06
1.526007e-05
2.521883e-05
3.955010e-05
5.689878e-05
7.763839e-05
1.023552e-04
1.307332e-04
1.630204e-04
1.995413e-04
2.393399e-04
2.810387e-04
3.231905e-04
3.644232e-04
4.043797e-04
4.433026e-04
0.000000e+00
1.185999e-05
1.976576e-05
3.102110e-05
4.587455e-05
6.274229e-05
8.343907e-05
1.082490e-04
1.363883e-04
1.684276e-04
2.042439e-04
2.425900e-04
2.827842e-04
3.238491e-04
3.645610e-04
4.042933e-04
4.433028e-04


2.852508e+00
2.710091e+00
2.738118e+00
2.774858e+00
2.808422e+00
3.070269e+00
3.335636e+00
3.649665e+00
4.110928e+00
4.697117e+00
5.461834e+00
6.353950e+00
7.055806e+00
7.037806e+00
6.035116e+00
5.015429e+00
4.699298e+00
4.518326e+00
4.500713e+00
4.447318e+00
4.416764e+00
4.569799e+00
4.728964e+00
4.928843e+00
5.243461e+00
5.644043e+00
6.158012e+00
6.750851e+00
7.179169e+00
6.886771e+00
5.642177e+00
4.417716e+00
6.791693e+00
6.723055e+00
6.675807e+00
6.592625e+00
6.512209e+00
6.540493e+00
6.561844e+00
6.603340e+00
6.705710e+00
6.830791e+00
6.973018e+00
7.138594e+00
7.225941e+00
6.798147e+00
5.652361e+00
4.650580e+00
7.776002e+00
7.757945e+00
7.747312e+00
7.658521e+00
7.586507e+00
7.543064e+00
7.487288e+00
7.435606e+00
7.393515e+00
7.323368e+00
7.205985e+00
7.090297e+00
7.022718e+00
6.791460e+00
6.259348e+00
5.813801e+00
7.774048e+00
7.756387e+00
7.745984e+00
7.655138e+00
7.577725e+00
7.526230e+00
7.456073e+00
7.375116e+00
7.286292e+00
7.158816e+00
6.985731e+00
6.845947e+00
6.848443e+00
6.918849e+00
6.931989e+00
6.913513e+00
6.786082e+00
6.717325e+00
6.668610e+00
6.577685e+00
6.481911e+00
6.489773e+00
6.473712e+00
6.444376e+00
6.460050e+00
6.513781e+00
6.594223e+00
6.724160e+00
6.947070e+00
7.221302e+00
7.444332e+00
7.566148e+00
4.693046e+00
4.510510e+00
4.489748e+00
4.426846e+00
4.380681e+00
4.518031e+00
4.648944e+00
4.803424e+00
5.116407e+00
5.599971e+00
6.178573e+00
6.736196e+00
7.194966e+00
7.536562e+00
7.755980e+00
7.860484e+00
2.848402e+00
2.704745e+00
2.731076e+00
2.762427e+00
2.789629e+00
3.053667e+00
3.322711e+00
3.652598e+00
4.227869e+00
5.054649e+00
5.991378e+00
6.813573e+00
7.382828e+00
7.716170e+00
7.889858e+00
7.966255e+00


-6.255853e-01
-2.462918e-01
-2.519999e-01
-2.783989e-01
-1.741866e-01
-2.087950e-01
-2.161947e-01
-1.836207e-01
-1.848900e-01
-1.923446e-01
-2.128984e-01
-2.476573e-01
-2.085434e-01
3.289400e-02
4.737448e-01
-7.151957e-01
5.628307e-01
4.149503e-01
3.230349e-01
2.575142e-01
2.958761e-01
2.616131e-01
2.437708e-01
2.512054e-01
2.461097e-01
2.544848e-01
2.915137e-01
3.741148e-01
5.421071e-01
7.776763e-01
7.356935e-01
-1.204631e+00
8.116405e-01
6.470541e-01
4.821121e-01
4.194926e-01
4.098595e-01
3.801641e-01
3.699925e-01
3.724413e-01
3.750842e-01
3.954383e-01
4.410510e-01
5.004724e-01
5.232477e-01
4.051218e-01
1.412530e-01
-3.088856e-01
8.491050e-01
7.045915e-01
5.230665e-01
4.271157e-01
3.858152e-01
3.650964e-01
3.636216e-01
3.704419e-01
3.742620e-01
3.718949e-01
3.548412e-01
2.965448e-01
1.490250e-01
-6.602767e-02
-8.246630e-02
4.087216e-02
8.502448e-01
7.060340e-01
5.245852e-01
4.271544e-01
3.827350e-01
3.553994e-01
3.427360e-01
3.331992e-01
3.103249e-01
2.639923e-01
1.886296e-01
8.017426e-02
-4.992913e-02
-9.479866e-02
9.680613e-02
4.564018e-01
8.143677e-01
6.506366e-01
4.858564e-01
4.207655e-01
4.050757e-01
3.618848e-01
3.287381e-01
2.971214e-01
2.396740e-01
1.595560e-01
7.615932e-02
1.782290e-02
2.671694e-02
1.718157e-01
4.689779e-01
8.076274e-01
5.649610e-01
4.173622e-01
3.247067e-01
2.582977e-01
2.939660e-01
2.508635e-01
2.194818e-01
2.101888e-01
1.657216e-01
1.035877e-01
7.840668e-02
1.382036e-01
2.949810e-01
5.327103e-01
7.920007e-01
9.650843e-01
-6.268933e-01
-2.480861e-01
-2.549052e-01
-2.798295e-01
-1.718425e-01
-2.049013e-01
-2.042076e-01
-1.492879e-01
-1.337716e-01
-1.172416e-01
-3.360749e-03
2.560123e-01
5.809730e-01
8.369681e-01
9.669304e-01
9.993017e-01
1 2 19 18
2 3 20 19
3 4 21 20
4 5 22 21
5 6 23 22
6 7 24 23
7 8 25 24
8 9 26 25
9 10 27 26
10 11 28 27
11 12 29 28
12 13 30 29
13 14 31 30
14 15 32 31
15 16 33 32
16 17 34 33
18 19 36 35
19 20 37 36
20 21 38 37
21 22 39 38
22 23 40 39
23 24 41 40
24 25 42 41
25 26 43 42
26 27 44 43
27 28 45 44
28 29 46 45
29 30 47 46
30 31 48 47
31 32 49 48
32 33 50 49
33 34 51 50
35 36 53 52
36 37 54 53
37 38 55 54
38 39 56 55
39 40 57 56
40 41 58 57
41 42 59 58
42 43 60 59
43 44 61 60
44 45 62 61
45 46 63 62
46 47 64 63
47 48 65 64
48 49 66 65
49 50 67 66
50 51 68 67
52 53 70 69
53 54 71 70
54 55 72 71
55 56 73 72
56 57 74 73
57 58 75 74
58 59 76 75
59 60 77 76
60 61 78 77
61 62 79 78
62 63 80 79
63 64 81 80
64 65 82 81
65 66 83 82
66 67 84 83
67 68 85 84
69 70 87 86
70 71 88 87
71 72 89 88
72 73 90 89
73 74 91 90
74 75 92 91
75 76 93 92
76 77 94 93
77 78 95 94
78 79 96 95
79 80 97 96
80 81 98 97
81 82 99 98
82 83 100 99
83 84 101 100
84 85 102 101
86 87 104 103
87 88 105 104
88 89 106 105
89 90 107 106
90 91 108 107
91 92 109 108
92 93 110 109
93 94 111 110
94 95 112 111
95 96 113 112
96 97 114 113
97 98 115 114
98 99 116 115
99 100 117 116
100 101 118 117
101 102 119 118
103 104 121 120
104 105 122 121
105 106 123 122
106 107 124 123
107 108 125 124
108 109 126 125
109 110 127 126
110 111 128 127
111 112 129 128
112 113 130 129
113 114 131 130
114 115 132 131
115 116 133 132
116 117 134 133
117 118 135 134
118 119 136 135
120 121 138 137
121 122 139 138
122 123 140 139
123 124 141 140
124 125 142 141
125 126 143 142
126 127 144 143
127 128 145 144
128 129 146 145
129 130 147 146
130 131 148 147
131 132 149 148
132 133 150 149
133 134 151 150
134 135 152 151
135 136 153 152
