TITLE = "Solution"
VARIABLES = x, y, u, v, psiu, psiv, t, stress
ZONE T="structure" N=153 E=128 F=FEBLOCK ET=QUADRILATERAL VARLOCATION=([7,8]=cellcentered)
0.000000e+00
1.250000e+01
2.500000e+01
3.750000e+01
5.000000e+01
6.250000e+01
7.500000e+01
8.750000e+01
1.000000e+02
1.125000e+02
1.250000e+02
1.375000e+02
1.500000e+02
1.625000e+02
1.750000e+02
1.875000e+02
2.000000e+02
0.000000e+00
1.250000e+01
2.500000e+01
3.750000e+01
5.000000e+01
6.250000e+01
7.500000e+01
8.750000e+01
1.000000e+02
1.125000e+02
1.250000e+02
1.375000e+02
1.500000e+02
1.625000e+02
1.750000e+02
1.875000e+02
2.000000e+02
0.000000e+00
1.250000e+01
2.500000e+01
3.750000e+01
5.000000e+01
6.250000e+01
7.500000e+01
8.750000e+01
1.000000e+02
1.125000e+02
1.250000e+02
1.375000e+02
1.500000e+02
1.625000e+02
1.750000e+02
1.875000e+02
2.000000e+02
0.000000e+00
1.250000e+01
2.500000e+01
3.750000e+01
5.000000e+01
6.250000e+01
7.500000e+01
8.750000e+01
1.000000e+02
1.125000e+02
1.250000e+02
1.375000e+02
1.500000e+02
1.625000e+02
1.750000e+02
1.875000e+02
2.000000e+02
0.000000e+00
1.250000e+01
2.500000e+01
3.750000e+01
5.000000e+01
6.250000e+01
7.500000e+01
8.750000e+01
1.000000e+02
1.125000e+02
1.250000e+02
1.375000e+02
1.500000e+02
1.625000e+02
1.750000e+02
1.875000e+02
2.000000e+02
0.000000e+00
1.250000e+01
2.500000e+01
3.750000e+01
5.000000e+01
6.250000e+01
7.500000e+01
8.750000e+01
1.000000e+02
1.125000e+02
1.250000e+02
1.375000e+02
1.500000e+02
1.625000e+02
1.750000e+02
1.875000e+02
2.000000e+02
0.000000e+00
1.250000e+01
2.500000e+01
3.750000e+01
5.000000e+01
6.250000e+01
7.500000e+01
8.750000e+01
1.000000e+02
1.125000e+02
1.250000e+02
1.375000e+02
1.500000e+02
1.625000e+02
1.750000e+02
1.875000e+02
2.000000e+02
0.000000e+00
1.250000e+01
2.500000e+01
3.750000e+01
5.000000e+01
6.250000e+01
7.500000e+01
8.750000e+01
1.000000e+02
1.125000e+02
1.250000e+02
1.375000e+02
1.500000e+02
1.625000e+02
1.750000e+02
1.875000e+02
2.000000e+02
0.000000e+00
1.250000e+01
2.500000e+01
3.750000e+01
5.000000e+01
6.250000e+01
7.500000e+01
8.750000e+01
1.000000e+02
1.125000e+02
1.250000e+02
1.375000e+02
1.500000e+02
1.625000e+02
1.750000e+02
1.875000e+02
2.000000e+02
0.000000e+00
0.000000e+00
0.000000e+00
0.000000e+00
0.000000e+00
0.000000e+00
0.000000e+00
0.000000e+00
0.000000e+00
0.000000e+00
0.000000e+00
0.000000e+00
0.000000e+00
0.000000e+00
0.000000e+00
0.000000e+00
0.000000e+00
1.250000e+01
1.250000e+01
1.250000e+01
1.250000e+01
1.250000e+01
1.250000e+01
1.250000e+01
1.250000e+01
1.250000e+01
1.250000e+01
1.250000e+01
1.250000e+01
1.250000e+01
1.250000e+01
1.250000e+01
1.250000e+01
1.250000e+01
2.500000e+01
2.500000e+01
2.500000e+01
2.500000e+01
2.500000e+01
2.500000e+01
2.500000e+01
2.500000e+01
2.500000e+01
2.500000e+01
2.500000e+01
2.500000e+01
2.500000e+01
2.500000e+01
2.500000e+01
2.500000e+01
2.500000e+01
3.750000e+01
3.750000e+01
3.750000e+01
3.750000e+01
3.750000e+01
3.750000e+01
3.750000e+01
3.750000e+01
3.750000e+01
3.750000e+01
3.750000e+01
3.750000e+01
3.750000e+01
3.750000e+01
3.750000e+01
3.750000e+01
3.750000e+01
5.000000e+01
5.000000e+01
5.000000e+01
5.000000e+01
5.000000e+01
5.000000e+01
5.000000e+01
5.000000e+01
5.000000e+01
5.000000e+01
5.000000e+01
5.000000e+01
5.000000e+01
5.000000e+01
5.000000e+01
5.000000e+01
5.000000e+01
6.250000e+01
6.250000e+01
6.250000e+01
6.250000e+01
6.250000e+01
6.250000e+01
6.250000e+01
6.250000e+01
6.250000e+01
6.250000e+01
6.250000e+01
6.250000e+01
6.250000e+01
6.250000e+01
6.250000e+01
6.250000e+01
6.250000e+01
7.500000e+01
7.500000e+01
7.500000e+01
7.500000e+01
7.500000e+01
7.500000e+01
7.500000e+01
7.500000e+01
7.500000e+01
7.500000e+01
7.500000e+01
7.500000e+01
7.500000e+01
7.500000e+01
7.500000e+01
7.500000e+01
7.500000e+01
8.750000e+01
8.750000e+01
8.750000e+01
8.750000e+01
8.750000e+01
8.750000e+01
8.750000e+01
8.750000e+01
8.750000e+01
8.750000e+01
8.750000e+01
8.750000e+01
8.750000e+01
8.750000e+01
8.750000e+01
8.750000e+01
8.750000e+01
1.000000e+02
1.000000e+02
1.000000e+02
1.000000e+02
1.000000e+02
1.000000e+02
1.000000e+02
1.000000e+02
1.000000e+02
1.000000e+02
1.000000e+02
1.000000e+02
1.000000e+02
1.000000e+02
1.000000e+02
1.000000e+02
1.000000e+02
0.000000e+00
-8.840425e-01
-1.573319e+00
-2.255932e+00
-2.943960e+00
-3.605637e+00
-4.271700e+00
-4.940555e+00
-5.600874e+00
-6.259664e+00
-6.925291e+00
-7.598919e+00
-8.273912e+00
-8.945781e+00
-9.615848e+00
-1.027449e+01
-1.071171e+01
0.000000e+00
-4.562319e-01
-9.478880e-01
-1.446862e+00
-1.961791e+00
-2.457223e+00
-2.955206e+00
-3.456219e+00
-3.950239e+00
-4.440555e+00
-4.930981e+00
-5.417144e+00
-5.883079e+00
-6.296190e+00
-6.582149e+00
-6.651020e+00
-6.806706e+00
0.000000e+00
-2.280842e-01
-4.919674e-01
-8.072405e-01
-1.144783e+00
-1.477585e+00
-1.815396e+00
-2.154244e+00
-2.487609e+00
-2.814119e+00
-3.128706e+00
-3.418283e+00
-3.659460e+00
-3.816536e+00
-3.849926e+00
-3.822180e+00
-3.975190e+00
0.000000e+00
-9.678850e-02
-2.105583e-01
-3.567092e-01
-5.168744e-01
-6.845614e-01
-8.554943e-01
-1.024816e+00
-1.189055e+00
-1.343170e+00
-1.478155e+00
-1.580170e+00
-1.631847e+00
-1.619692e+00
-1.563971e+00
-1.566032e+00
-1.694599e+00
0.000000e+00
-1.039441e-03
-2.100771e-03
-2.986471e-03
-3.364102e-03
-2.683061e-03
3.509378e-05
6.360469e-03
1.865028e-02
4.071052e-02
7.843808e-02
1.387589e-01
2.254161e-01
3.290329e-01
4.096128e-01
4.097923e-01
3.118706e-01
0.000000e+00
9.502934e-02
2.070356e-01
3.515942e-01
5.108833e-01
6.793736e-01
8.544329e-01
1.033729e+00
1.217737e+00
1.407739e+00
1.603630e+00
1.801988e+00
1.993395e+00
2.157593e+00
2.262005e+00
2.278992e+00
2.224724e+00
0.000000e+00
2.271843e-01
4.901570e-01
8.044565e-01
1.140972e+00
1.473398e+00
1.812259e+00
2.154109e+00
2.494312e+00
2.835254e+00
3.173607e+00
3.494899e+00
3.777708e+00
3.998768e+00
4.136675e+00
4.183427e+00
4.170763e+00
0.000000e+00
4.562234e-01
9.479170e-01
1.446764e+00
1.960972e+00
2.455392e+00
2.951830e+00
3.448871e+00
3.936073e+00
4.417889e+00
4.890715e+00
5.328948e+00
5.697365e+00
5.969608e+00
6.136502e+00
6.208482e+00
6.221862e+00
0.000000e+00
8.847148e-01
1.575082e+00
2.258918e+00
2.947745e+00
3.609932e+00
4.275630e+00
4.940315e+00
5.591240e+00
6.234262e+00
6.860258e+00
7.427508e+00
7.881754e+00
8.185519e+00
8.335221e+00
8.371683e+00
8.370526e+00
0.000000e+00
-5.485178e-01
-1.158431e+00
-1.967735e+00
-2.946339e+00
-4.091932e+00
-5.414896e+00
-6.911903e+00
-8.580944e+00
-1.042503e+01
-1.244593e+01
-1.464351e+01
-1.701780e+01
-1.957545e+01
-2.236812e+01
-2.560649e+01
-3.036809e+01
0.000000e+00
-3.521011e-01
-9.903695e-01
-1.789248e+00
-2.770713e+00
-3.918618e+00
-5.240194e+00
-6.738378e+00
-8.409584e+00
-1.025429e+01
-1.227548e+01
-1.447571e+01
-1.685775e+01
-1.943531e+01
-2.225764e+01
-2.550341e+01
-2.945673e+01
0.000000e+00
-3.003747e-01
-8.831800e-01
-1.673484e+00
-2.648955e+00
-3.795538e+00
-5.117303e+00
-6.617009e+00
-8.291457e+00
-1.014127e+01
-1.217056e+01
-1.438367e+01
-1.678626e+01
-1.939675e+01
-2.224600e+01
-2.532056e+01
-2.822018e+01
0.000000e+00
-3.104794e-01
-8.512229e-01
-1.618570e+00
-2.581535e+00
-3.724488e+00
-5.047186e+00
-6.549412e+00
-8.229443e+00
-1.008928e+01
-1.213361e+01
-1.436583e+01
-1.678772e+01
-1.940331e+01
-2.218965e+01
-2.498460e+01
-2.743816e+01
0.000000e+00
-3.184573e-01
-8.491728e-01
-1.605150e+00
-2.562417e+00
-3.704470e+00
-5.029472e+00
-6.535707e+00
-8.222315e+00
-1.009265e+01
-1.215143e+01
-1.439805e+01
-1.682288e+01
-1.940299e+01
-2.206616e+01
-2.464445e+01
-2.687118e+01
0.000000e+00
-3.103161e-01
-8.516783e-01
-1.620511e+00
-2.585922e+00
-3.732732e+00
-5.061557e+00
-6.572392e+00
-8.263828e+00
-1.014018e+01
-1.220664e+01
-1.445749e+01
-1.686908e+01
-1.939387e+01
-2.194328e+01
-2.437639e+01
-2.651071e+01
0.000000e+00
-3.001303e-01
-8.839113e-01
-1.676547e+00
-2.655970e+00
-3.808868e+00
-5.140663e+00
-6.654572e+00
-8.347993e+00
-1.022537e+01
-1.229208e+01
-1.453795e+01
-1.692794e+01
-1.940015e+01
-2.186442e+01
-2.421297e+01
-2.634443e+01
0.000000e+00
-3.518870e-01
-9.911864e-01
-1.792567e+00
-2.778456e+00
-3.933504e+00
-5.266222e+00
-6.780274e+00
-8.473179e+00
-1.034908e+01
-1.241107e+01
-1.464458e+01
-1.700882e+01
-1.943729e+01
-2.184363e+01
-2.414363e+01
-2.630577e+01
0.000000e+00
-5.485085e-01
-1.159468e+00
-1.971232e+00
-2.954233e+00
-4.107027e+00
-5.440780e+00
-6.952862e+00
-8.643110e+00
-1.051672e+01
-1.257049e+01
-1.478324e+01
-1.711318e+01
-1.949814e+01
-2.186045e+01
-2.413070e+01
-2.630683e+01


0.000000e+00
1.298432e-05
2.373826e-05
3.504559e-05
4.831082e-05
6.113445e-05
7.322711e-05
8.530695e-05
9.702702e-05
1.081443e-04
1.184632e-04
1.270498e-04
1.331814e-04
1.373982e-04
1.405453e-04
1.437989e-04
1.475361e-04
0.000000e+00
9.573031e-06
1.916135e-05
2.751435e-05
3.795692e-05
4.787435e-05
5.683041e-05
6.580825e-05
7.461939e-05
8.281072e-05
9.016758e-05
9.579711e-05
9.886538e-05
9.958226e-05
9.971467e-05
1.023755e-04
1.067536e-04
0.000000e+00
7.527108e-06
1.417212e-05
1.986903e-05
2.694030e-05
3.344229e-05
3.933877e-05
4.518156e-05
5.075342e-05
5.569037e-05
5.979462e-05
6.256010e-05
6.364910e-05
6.349060e-05
6.361320e-05
6.620518e-05
7.058695e-05
0.000000e+00
3.872962e-06
6.661386e-06
1.013764e-05
1.340269e-05
1.647960e-05
1.944846e-05
2.228539e-05
2.478154e-05
2.686264e-05
2.838141e-05
2.922928e-05
2.955559e-05
2.982731e-05
3.061560e-05
3.276032e-05
3.608830e-05
0.000000e+00
-2.040426e-08
-4.711322e-08
-7.889428e-08
-1.147003e-07
-1.564681e-07
-2.123536e-07
-2.941404e-07
-4.301436e-07
-6.880668e-07
-1.115978e-06
-1.611867e-06
-1.926409e-06
-1.748241e-06
-1.043375e-06
2.134169e-08
1.685479e-06
0.000000e+00
-3.903924e-06
-6.733559e-06
-1.026413e-05
-1.358640e-05
-1.673006e-05
-1.977429e-05
-2.268264e-05
-2.530344e-05
-2.767250e-05
-2.969316e-05
-3.124395e-05
-3.219101e-05
-3.252041e-05
-3.258138e-05
-3.255186e-05
-3.205094e-05
0.000000e+00
-7.535272e-06
-1.419859e-05
-1.992319e-05
-2.704190e-05
-3.361027e-05
-3.952980e-05
-4.534277e-05
-5.091293e-05
-5.574905e-05
-5.948438e-05
-6.192873e-05
-6.333372e-05
-6.411782e-05
-6.461729e-05
-6.492666e-05
-6.488750e-05
0.000000e+00
-9.562895e-06
-1.914522e-05
-2.748855e-05
-3.794659e-05
-4.791454e-05
-5.685490e-05
-6.576169e-05
-7.462870e-05
-8.267319e-05
-8.901664e-05
-9.311583e-05
-9.540866e-05
-9.668340e-05
-9.741770e-05
-9.778097e-05
-9.785222e-05
0.000000e+00
-1.297236e-05
-2.369868e-05
-3.496087e-05
-4.818047e-05
-6.097786e-05
-7.298938e-05
-8.494436e-05
-9.668952e-05
-1.077169e-04
-1.170226e-04
-1.236841e-04
-1.277679e-04
-1.299495e-04
-1.309335e-04
-1.312343e-04
-1.312678e-04
0.000000e+00
1.110172e-05
1.859034e-05
2.879691e-05
4.241607e-05
5.813103e-05
7.702815e-05
9.949753e-05
1.248912e-04
1.529896e-04
1.834980e-04
2.156855e-04
2.493813e-04
2.855593e-04
3.273878e-04
3.758378e-04
4.247875e-04
0.000000e+00
6.096359e-06
1.413608e-05
2.341904e-05
3.651366e-05
5.260111e-05
7.172436e-05
9.421244e-05
1.198361e-04
1.483040e-04
1.794627e-04
2.128024e-04
2.477947e-04
2.846531e-04
3.245865e-04
3.704568e-04
4.180752e-04
0.000000e+00
2.837423e-06
1.018961e-05
1.937869e-05
3.204192e-05
4.844231e-05
6.789128e-05
9.049790e-05
1.163444e-04
1.452152e-04
1.769302e-04
2.111042e-04
2.470590e-04
2.839706e-04
3.210365e-04
3.632388e-04
4.087025e-04
0.000000e+00
1.703455e-06
8.193772e-06
1.755071e-05
3.024282e-05
4.667102e-05
6.626784e-05
8.904973e-05
1.150783e-04
1.441775e-04
1.761233e-04
2.105099e-04
2.466379e-04
2.831881e-04
3.183823e-04
3.568655e-04
3.990587e-04
0.000000e+00
1.437245e-06
7.608321e-06
1.693833e-05
2.976955e-05
4.612409e-05
6.576229e-05
8.864208e-05
1.147817e-04
1.440274e-04
1.760902e-04
2.104727e-04
2.464161e-04
2.826595e-04
3.174908e-04
3.534969e-04
3.917864e-04
0.000000e+00
1.714351e-06
8.203132e-06
1.754661e-05
3.021357e-05
4.662474e-05
6.621418e-05
8.899226e-05
1.151126e-04
1.444847e-04
1.767072e-04
2.110960e-04
2.467755e-04
2.825834e-04
3.176300e-04
3.525967e-04
3.877851e-04
0.000000e+00
2.852581e-06
1.020524e-05
1.937529e-05
3.200097e-05
4.837291e-05
6.779667e-05
9.038050e-05
1.163970e-04
1.457761e-04
1.780411e-04
2.123060e-04
2.475680e-04
2.829178e-04
3.177806e-04
3.522627e-04
3.861323e-04
0.000000e+00
6.111723e-06
1.415482e-05
2.342539e-05
3.649299e-05
5.254003e-05
7.160744e-05
9.407736e-05
1.198912e-04
1.488245e-04
1.804578e-04
2.139537e-04
2.484789e-04
2.833026e-04
3.178980e-04
3.520799e-04
3.856980e-04
0.000000e+00
1.111507e-05
1.860652e-05
2.880639e-05
4.241708e-05
5.808900e-05
7.689655e-05
9.937255e-05
1.249771e-04
1.532806e-04
1.837874e-04
2.159822e-04
2.495046e-04
2.837375e-04
3.180464e-04
3.520500e-04
3.856571e-04


2.532067e+00
2.413836e+00
2.503446e+00
2.620179e+00
2.711123e+00
2.982440e+00
3.288253e+00
3.625529e+00
4.096224e+00
4.719228e+00
5.425128e+00
6.059179e+00
6.429137e+00
6.209112e+00
5.290104e+00
4.468680e+00
3.961368e+00
3.825955e+00
3.843753e+00
3.878469e+00
3.912856e+00
4.096281e+00
4.308380e+00
4.539801e+00
4.869180e+00
5.313814e+00
5.820657e+00
6.272483e+00
6.496159e+00
6.128115e+00
5.095231e+00
4.163307e+00
5.757104e+00
5.675730e+00
5.641331e+00
5.602837e+00
5.577533e+00
5.648368e+00
5.730149e+00
5.814062e+00
5.941241e+00
6.121439e+00
6.329558e+00
6.509693e+00
6.557634e+00
6.173400e+00
5.270408e+00
4.523676e+00
6.698706e+00
6.661770e+00
6.629085e+00
6.563760e+00
6.526790e+00
6.529845e+00
6.533063e+00
6.527052e+00
6.522801e+00
6.526228e+00
6.533306e+00
6.540086e+00
6.524475e+00
6.320450e+00
5.866524e+00
5.492231e+00
6.698313e+00
6.661090e+00
6.627352e+00
6.559764e+00
6.519809e+00
6.518584e+00
6.512978e+00
6.491787e+00
6.468780e+00
6.452175e+00
6.440021e+00
6.445629e+00
6.484554e+00
6.488876e+00
6.401568e+00
6.312837e+00
5.755657e+00
5.673629e+00
5.636315e+00
5.591902e+00
5.559754e+00
5.620968e+00
5.682054e+00
5.737927e+00
5.846933e+00
6.012603e+00
6.191588e+00
6.359213e+00
6.522888e+00
6.660006e+00
6.735012e+00
6.760553e+00
3.959019e+00
3.823073e+00
3.837960e+00
3.866827e+00
3.896365e+00
4.074302e+00
4.273246e+00
4.503518e+00
4.877996e+00
5.379599e+00
5.884342e+00
6.296176e+00
6.596989e+00
6.797435e+00
6.908100e+00
6.952280e+00
2.529498e+00
2.411480e+00
2.499581e+00
2.613129e+00
2.704485e+00
2.979515e+00
3.288794e+00
3.660418e+00
4.238735e+00
4.983837e+00
5.711120e+00
6.277266e+00
6.652909e+00
6.870536e+00
6.976529e+00
7.016829e+00


-5.808325e-01
-2.342422e-01
-2.243267e-01
-2.685258e-01
-1.773963e-01
-1.922979e-01
-2.055824e-01
-1.764214e-01
-1.676490e-01
-1.819521e-01
-1.865267e-01
-1.408596e-01
-1.894653e-02
2.141767e-01
5.286568e-01
-6.219218e-01
5.431027e-01
4.070379e-01
3.345202e-01
2.758622e-01
3.077685e-01
2.868890e-01
2.684194e-01
2.758471e-01
2.812644e-01
2.928300e-01
3.404580e-01
4.534670e-01
6.361680e-01
8.333106e-01
7.452188e-01
-1.252570e+00
8.229203e-01
6.866923e-01
5.578551e-01
5.028333e-01
4.922508e-01
4.693863e-01
4.557677e-01
4.558865e-01
4.618699e-01
4.796356e-01
5.187469e-01
5.737035e-01
5.945239e-01
4.836463e-01
1.892039e-01
-3.258550e-01
8.820009e-01
7.613588e-01
6.249684e-01
5.496553e-01
5.173224e-01
4.994695e-01
4.912367e-01
4.891421e-01
4.843902e-01
4.689670e-01
4.364638e-01
3.714354e-01
2.417121e-01
6.820723e-02
3.772729e-02
1.089555e-01
8.828113e-01
7.623225e-01
6.257869e-01
5.491296e-01
5.135384e-01
4.892874e-01
4.706344e-01
4.519979e-01
4.194218e-01
3.609057e-01
2.744336e-01
1.665059e-01
6.086243e-02
4.736037e-02
2.288352e-01
5.339227e-01
8.248180e-01
6.888960e-01
5.598073e-01
5.025617e-01
4.858103e-01
4.504489e-01
4.160483e-01
3.814398e-01
3.263752e-01
2.505596e-01
1.741705e-01
1.265897e-01
1.488433e-01
2.936371e-01
5.574906e-01
8.418169e-01
5.445718e-01
4.083976e-01
3.357677e-01
2.769499e-01
3.057762e-01
2.783664e-01
2.508650e-01
2.395548e-01
2.042756e-01
1.613550e-01
1.650354e-01
2.454875e-01
3.984247e-01
6.100594e-01
8.299267e-01
9.720175e-01
-5.820014e-01
-2.365591e-01
-2.266290e-01
-2.689743e-01
-1.770732e-01
-1.899223e-01
-1.922425e-01
-1.504809e-01
-1.321031e-01
-9.276305e-02
6.539219e-02
3.462575e-01
6.466234e-01
8.660838e-01
9.734859e-01
9.994725e-01
1 2 19 18
2 3 20 19
3 4 21 20
4 5 22 21
5 6 23 22
6 7 24 23
7 8 25 24
8 9 26 25
9 10 27 26
10 11 28 27
11 12 29 28
12 13 30 29
13 14 31 30
14 15 32 31
15 16 33 32
16 17 34 33
18 19 36 35
19 20 37 36
20 21 38 37
21 22 39 38
22 23 40 39
23 24 41 40
24 25 42 41
25 26 43 42
26 27 44 43
27 28 45 44
28 29 46 45
29 30 47 46
30 31 48 47
31 32 49 48
32 33 50 49
33 34 51 50
35 36 53 52
36 37 54 53
37 38 55 54
38 39 56 55
39 40 57 56
40 41 58 57
41 42 59 58
42 43 60 59
43 44 61 60
44 45 62 61
45 46 63 62
46 47 64 63
47 48 65 64
48 49 66 65
49 50 67 66
50 51 68 67
52 53 70 69
53 54 71 70
54 55 72 71
55 56 73 72
56 57 74 73
57 58 75 74
58 59 76 75
59 60 77 76
60 61 78 77
61 62 79 78
62 63 80 79
63 64 81 80
64 65 82 81
65 66 83 82
66 67 84 83
67 68 85 84
69 70 87 86
70 71 88 87
71 72 89 88
72 73 90 89
73 74 91 90
74 75 92 91
75 76 93 92
76 77 94 93
77 78 95 94
78 79 96 95
79 80 97 96
80 81 98 97
81 82 99 98
82 83 100 99
83 84 101 100
84 85 102 101
86 87 104 103
87 88 105 104
88 89 106 105
89 90 107 106
90 91 108 107
91 92 109 108
92 93 110 109
93 94 111 110
94 95 112 111
95 96 113 112
96 97 114 113
97 98 115 114
98 99 116 115
99 100 117 116
100 101 118 117
101 102 119 118
103 104 121 120
104 105 122 121
105 106 123 122
106 107 124 123
107 108 125 124
108 109 126 125
109 110 127 126
110 111 128 127
111 112 129 128
112 113 130 129
113 114 131 130
114 115 132 131
115 116 133 132
116 117 134 133
117 118 135 134
118 119 136 135
120 121 138 137
121 122 139 138
122 123 140 139
123 124 141 140
124 125 142 141
125 126 143 142
126 127 144 143
127 128 145 144
128 129 146 145
129 130 147 146
130 131 148 147
131 132 149 148
132 133 150 149
133 134 151 150
134 135 152 151
135 136 153 152
