TITLE = "Solution"
VARIABLES = x, y, u, v, psiu, psiv, t, stress
ZONE T="structure" N=153 E=128 F=FEBLOCK ET=QUADRILATERAL VARLOCATION=([7,8]=cellcentered)
0.000000e+00
1.250000e+01
2.500000e+01
3.750000e+01
5.000000e+01
6.250000e+01
7.500000e+01
8.750000e+01
1.000000e+02
1.125000e+02
1.250000e+02
1.375000e+02
1.500000e+02
1.625000e+02
1.750000e+02
1.875000e+02
2.000000e+02
0.000000e+00
1.250000e+01
2.500000e+01
3.750000e+01
5.000000e+01
6.250000e+01
7.500000e+01
8.750000e+01
1.000000e+02
1.125000e+02
1.250000e+02
1.375000e+02
1.500000e+02
1.625000e+02
1.750000e+02
1.875000e+02
2.000000e+02
0.000000e+00
1.250000e+01
2.500000e+01
3.750000e+01
5.000000e+01
6.250000e+01
7.500000e+01
8.750000e+01
1.000000e+02
1.125000e+02
1.250000e+02
1.375000e+02
1.500000e+02
1.625000e+02
1.750000e+02
1.875000e+02
2.000000e+02
0.000000e+00
1.250000e+01
2.500000e+01
3.750000e+01
5.000000e+01
6.250000e+01
7.500000e+01
8.750000e+01
1.000000e+02
1.125000e+02
1.250000e+02
1.375000e+02
1.500000e+02
1.625000e+02
1.750000e+02
1.875000e+02
2.000000e+02
0.000000e+00
1.250000e+01
2.500000e+01
3.750000e+01
5.000000e+01
6.250000e+01
7.500000e+01
8.750000e+01
1.000000e+02
1.125000e+02
1.250000e+02
1.375000e+02
1.500000e+02
1.625000e+02
1.750000e+02
1.875000e+02
2.000000e+02
0.000000e+00
1.250000e+01
2.500000e+01
3.750000e+01
5.000000e+01
6.250000e+01
7.500000e+01
8.750000e+01
1.000000e+02
1.125000e+02
1.250000e+02
1.375000e+02
1.500000e+02
1.625000e+02
1.750000e+02
1.875000e+02
2.000000e+02
0.000000e+00
1.250000e+01
2.500000e+01
3.750000e+01
5.000000e+01
6.250000e+01
7.500000e+01
8.750000e+01
1.000000e+02
1.125000e+02
1.250000e+02
1.375000e+02
1.500000e+02
1.625000e+02
1.750000e+02
1.875000e+02
2.000000e+02
0.000000e+00
1.250000e+01
2.500000e+01
3.750000e+01
5.000000e+01
6.250000e+01
7.500000e+01
8.750000e+01
1.000000e+02
1.125000e+02
1.250000e+02
1.375000e+02
1.500000e+02
1.625000e+02
1.750000e+02
1.875000e+02
2.000000e+02
0.000000e+00
1.250000e+01
2.500000e+01
3.750000e+01
5.000000e+01
6.250000e+01
7.500000e+01
8.750000e+01
1.000000e+02
1.125000e+02
1.250000e+02
1.375000e+02
1.500000e+02
1.625000e+02
1.750000e+02
1.875000e+02
2.000000e+02
0.000000e+00
0.000000e+00
0.000000e+00
0.000000e+00
0.000000e+00
0.000000e+00
0.000000e+00
0.000000e+00
0.000000e+00
0.000000e+00
0.000000e+00
0.000000e+00
0.000000e+00
0.000000e+00
0.000000e+00
0.000000e+00
0.000000e+00
1.250000e+01
1.250000e+01
1.250000e+01
1.250000e+01
1.250000e+01
1.250000e+01
1.250000e+01
1.250000e+01
1.250000e+01
1.250000e+01
1.250000e+01
1.250000e+01
1.250000e+01
1.250000e+01
1.250000e+01
1.250000e+01
1.250000e+01
2.500000e+01
2.500000e+01
2.500000e+01
2.500000e+01
2.500000e+01
2.500000e+01
2.500000e+01
2.500000e+01
2.500000e+01
2.500000e+01
2.500000e+01
2.500000e+01
2.500000e+01
2.500000e+01
2.500000e+01
2.500000e+01
2.500000e+01
3.750000e+01
3.750000e+01
3.750000e+01
3.750000e+01
3.750000e+01
3.750000e+01
3.750000e+01
3.750000e+01
3.750000e+01
3.750000e+01
3.750000e+01
3.750000e+01
3.750000e+01
3.750000e+01
3.750000e+01
3.750000e+01
3.750000e+01
5.000000e+01
5.000000e+01
5.000000e+01
5.000000e+01
5.000000e+01
5.000000e+01
5.000000e+01
5.000000e+01
5.000000e+01
5.000000e+01
5.000000e+01
5.000000e+01
5.000000e+01
5.000000e+01
5.000000e+01
5.000000e+01
5.000000e+01
6.250000e+01
6.250000e+01
6.250000e+01
6.250000e+01
6.250000e+01
6.250000e+01
6.250000e+01
6.250000e+01
6.250000e+01
6.250000e+01
6.250000e+01
6.250000e+01
6.250000e+01
6.250000e+01
6.250000e+01
6.250000e+01
6.250000e+01
7.500000e+01
7.500000e+01
7.500000e+01
7.500000e+01
7.500000e+01
7.500000e+01
7.500000e+01
7.500000e+01
7.500000e+01
7.500000e+01
7.500000e+01
7.500000e+01
7.500000e+01
7.500000e+01
7.500000e+01
7.500000e+01
7.500000e+01
8.750000e+01
8.750000e+01
8.750000e+01
8.750000e+01
8.750000e+01
8.750000e+01
8.750000e+01
8.750000e+01
8.750000e+01
8.750000e+01
8.750000e+01
8.750000e+01
8.750000e+01
8.750000e+01
8.750000e+01
8.750000e+01
8.750000e+01
1.000000e+02
1.000000e+02
1.000000e+02
1.000000e+02
1.000000e+02
1.000000e+02
1.000000e+02
1.000000e+02
1.000000e+02
1.000000e+02
1.000000e+02
1.000000e+02
1.000000e+02
1.000000e+02
1.000000e+02
1.000000e+02
1.000000e+02
0.000000e+00
-8.341672e-01
-1.510901e+00
-2.168318e+00
-2.838468e+00
-3.494867e+00
-4.143131e+00
-4.788554e+00
-5.426405e+00
-6.048890e+00
-6.646590e+00
-7.212120e+00
-7.747745e+00
-8.271156e+00
-8.813781e+00
-9.414157e+00
-9.836726e+00
0.000000e+00
-4.593489e-01
-9.554612e-01
-1.445771e+00
-1.947673e+00
-2.439473e+00
-2.924231e+00
-3.406286e+00
-3.882207e+00
-4.345434e+00
-4.786787e+00
-5.195478e+00
-5.561211e+00
-5.868718e+00
-6.078916e+00
-6.125660e+00
-6.264338e+00
0.000000e+00
-2.575807e-01
-5.424577e-01
-8.614757e-01
-1.194310e+00
-1.524346e+00
-1.851485e+00
-2.175182e+00
-2.491193e+00
-2.792846e+00
-3.070306e+00
-3.310420e+00
-3.496489e+00
-3.606108e+00
-3.617228e+00
-3.585250e+00
-3.729794e+00
0.000000e+00
-1.144370e-01
-2.452411e-01
-3.980882e-01
-5.622286e-01
-7.285447e-01
-8.940470e-01
-1.055735e+00
-1.209546e+00
-1.349627e+00
-1.467634e+00
-1.552880e+00
-1.593806e+00
-1.583640e+00
-1.542373e+00
-1.549712e+00
-1.664206e+00
0.000000e+00
-5.579949e-04
-1.165815e-03
-1.721185e-03
-2.023787e-03
-1.697322e-03
-5.345683e-05
4.134693e-03
1.296009e-02
2.968357e-02
5.870931e-02
1.046342e-01
1.691367e-01
2.433766e-01
2.969423e-01
2.887191e-01
2.083149e-01
0.000000e+00
1.135000e-01
2.432564e-01
3.950861e-01
5.585383e-01
7.250992e-01
8.928800e-01
1.060853e+00
1.228261e+00
1.394342e+00
1.557791e+00
1.715913e+00
1.862362e+00
1.983134e+00
2.056319e+00
2.064745e+00
2.022614e+00
0.000000e+00
2.571208e-01
5.414128e-01
8.597394e-01
1.191846e+00
1.521308e+00
1.848448e+00
2.173541e+00
2.493425e+00
2.802546e+00
3.092533e+00
3.352893e+00
3.572132e+00
3.737978e+00
3.838969e+00
3.872387e+00
3.862654e+00
0.000000e+00
4.594727e-01
9.556058e-01
1.445843e+00
1.947473e+00
2.438548e+00
2.921887e+00
3.401481e+00
3.872389e+00
4.323782e+00
4.739122e+00
5.098967e+00
5.386689e+00
5.592659e+00
5.716680e+00
5.769754e+00
5.779575e+00
0.000000e+00
8.346434e-01
1.512050e+00
2.170336e+00
2.841461e+00
3.498653e+00
4.147264e+00
4.791874e+00
5.424567e+00
6.028779e+00
6.578918e+00
7.044582e+00
7.399540e+00
7.629857e+00
7.741630e+00
7.768838e+00
7.768078e+00
0.000000e+00
-5.129824e-01
-1.055803e+00
-1.775608e+00
-2.661040e+00
-3.712020e+00
-4.933293e+00
-6.324715e+00
-7.882774e+00
-9.601766e+00
-1.147300e+01
-1.348707e+01
-1.563988e+01
-1.794276e+01
-2.046067e+01
-2.340657e+01
-2.778231e+01
0.000000e+00
-3.230790e-01
-8.892041e-01
-1.602051e+00
-2.487529e+00
-3.541423e+00
-4.764223e+00
-6.157267e+00
-7.718848e+00
-9.444088e+00
-1.132478e+01
-1.335092e+01
-1.551697e+01
-1.783558e+01
-2.036439e+01
-2.330067e+01
-2.695147e+01
0.000000e+00
-2.615171e-01
-7.782748e-01
-1.484103e+00
-2.366024e+00
-3.420327e+00
-4.644951e+00
-6.040928e+00
-7.607458e+00
-9.340751e+00
-1.123352e+01
-1.327640e+01
-1.546465e+01
-1.780984e+01
-2.034898e+01
-2.311296e+01
-2.574602e+01
0.000000e+00
-2.521308e-01
-7.330709e-01
-1.420315e+00
-2.296122e+00
-3.349063e+00
-4.575785e+00
-5.976114e+00
-7.549486e+00
-9.292923e+00
-1.119973e+01
-1.326026e+01
-1.546643e+01
-1.781559e+01
-2.029321e+01
-2.279040e+01
-2.501629e+01
0.000000e+00
-2.534993e-01
-7.228892e-01
-1.402128e+00
-2.274325e+00
-3.327286e+00
-4.556276e+00
-5.960883e+00
-7.540903e+00
-9.293797e+00
-1.121244e+01
-1.328438e+01
-1.549274e+01
-1.781293e+01
-2.018925e+01
-2.249980e+01
-2.454488e+01
0.000000e+00
-2.519309e-01
-7.330975e-01
-1.421059e+00
-2.298303e+00
-3.353755e+00
-4.584630e+00
-5.991747e+00
-7.575802e+00
-9.334459e+00
-1.125926e+01
-1.333316e+01
-1.552894e+01
-1.780453e+01
-2.009225e+01
-2.229054e+01
-2.426838e+01
0.000000e+00
-2.611776e-01
-7.782862e-01
-1.485244e+00
-2.369490e+00
-3.427912e+00
-4.659428e+00
-6.066773e+00
-7.651320e+00
-9.410485e+00
-1.133419e+01
-1.340117e+01
-1.557650e+01
-1.780940e+01
-2.003227e+01
-2.216806e+01
-2.414428e+01
0.000000e+00
-3.227400e-01
-8.892158e-01
-1.603298e+00
-2.491369e+00
-3.549914e+00
-4.780579e+00
-6.186633e+00
-7.768689e+00
-9.522957e+00
-1.143776e+01
-1.348957e+01
-1.564056e+01
-1.783781e+01
-2.001682e+01
-2.211683e+01
-2.411545e+01
0.000000e+00
-5.127816e-01
-1.055947e+00
-1.777021e+00
-2.665055e+00
-3.720678e+00
-4.949818e+00
-6.354061e+00
-7.931440e+00
-9.675972e+00
-1.157397e+01
-1.360128e+01
-1.572120e+01
-1.788361e+01
-2.002938e+01
-2.210735e+01
-2.411614e+01


0.000000e+00
1.045133e-05
2.025683e-05
2.965489e-05
3.967519e-05
4.948479e-05
5.847715e-05
6.660029e-05
7.366258e-05
7.932207e-05
8.345191e-05
8.625729e-05
8.815444e-05
8.963403e-05
9.107112e-05
9.309201e-05
9.571646e-05
0.000000e+00
7.690023e-06
1.633791e-05
2.342890e-05
3.106773e-05
3.856643e-05
4.529168e-05
5.127657e-05
5.642609e-05
6.041835e-05
6.314428e-05
6.478759e-05
6.560693e-05
6.579428e-05
6.597737e-05
6.761396e-05
7.041114e-05
0.000000e+00
5.811081e-06
1.161215e-05
1.649501e-05
2.165257e-05
2.654266e-05
3.090540e-05
3.473868e-05
3.795714e-05
4.038454e-05
4.197255e-05
4.282136e-05
4.310111e-05
4.307773e-05
4.329504e-05
4.469827e-05
4.708840e-05
0.000000e+00
2.906643e-06
5.440339e-06
8.205978e-06
1.077469e-05
1.312300e-05
1.525300e-05
1.711666e-05
1.863896e-05
1.977403e-05
2.050807e-05
2.088541e-05
2.104103e-05
2.120080e-05
2.157682e-05
2.243642e-05
2.383005e-05
0.000000e+00
-7.712190e-09
-1.596334e-08
-2.446869e-08
-3.344143e-08
-4.373858e-08
-5.883416e-08
-8.768076e-08
-1.426916e-07
-2.293929e-07
-3.358965e-07
-4.250440e-07
-4.298747e-07
-2.845919e-07
-3.909547e-08
2.811313e-07
8.766663e-07
0.000000e+00
-2.920307e-06
-5.467668e-06
-8.248518e-06
-1.083326e-05
-1.319759e-05
-1.534688e-05
-1.724474e-05
-1.883096e-05
-2.007000e-05
-2.094503e-05
-2.147026e-05
-2.170304e-05
-2.174315e-05
-2.173706e-05
-2.171780e-05
-2.152047e-05
0.000000e+00
-5.817629e-06
-1.162839e-05
-1.652430e-05
-2.169681e-05
-2.660215e-05
-3.098196e-05
-3.482094e-05
-3.800466e-05
-4.035500e-05
-4.187627e-05
-4.274527e-05
-4.318942e-05
-4.341382e-05
-4.355757e-05
-4.363905e-05
-4.359560e-05
0.000000e+00
-7.689909e-06
-1.634160e-05
-2.343951e-05
-3.108693e-05
-3.859682e-05
-4.534288e-05
-5.132826e-05
-5.637627e-05
-6.012662e-05
-6.255360e-05
-6.398122e-05
-6.478967e-05
-6.525405e-05
-6.552721e-05
-6.566330e-05
-6.568545e-05
0.000000e+00
-1.045256e-05
-2.025370e-05
-2.964647e-05
-3.965955e-05
-4.946196e-05
-5.845325e-05
-6.655387e-05
-7.348843e-05
-7.886123e-05
-8.260188e-05
-8.499977e-05
-8.645524e-05
-8.729653e-05
-8.773421e-05
-8.789850e-05
-8.792510e-05
0.000000e+00
9.115206e-06
1.558299e-05
2.357719e-05
3.419161e-05
4.680755e-05
6.148864e-05
7.825631e-05
9.671290e-05
1.164163e-04
1.371054e-04
1.586198e-04
1.808783e-04
2.041741e-04
2.301882e-04
2.600868e-04
2.907963e-04
0.000000e+00
4.762060e-06
1.150291e-05
1.929248e-05
2.969208e-05
4.254631e-05
5.765761e-05
7.487723e-05
9.391750e-05
1.143378e-04
1.357264e-04
1.577955e-04
1.804239e-04
2.037786e-04
2.285212e-04
2.565510e-04
2.862708e-04
0.000000e+00
2.097143e-06
8.156384e-06
1.614463e-05
2.646193e-05
3.950955e-05
5.496196e-05
7.254180e-05
9.200146e-05
1.129238e-04
1.348159e-04
1.573091e-04
1.802300e-04
2.034408e-04
2.267549e-04
2.525890e-04
2.807006e-04
0.000000e+00
1.202503e-06
6.584550e-06
1.463551e-05
2.510645e-05
3.824134e-05
5.381560e-05
7.155877e-05
9.119083e-05
1.123005e-04
1.343991e-04
1.570808e-04
1.800708e-04
2.030734e-04
2.257215e-04
2.498955e-04
2.760210e-04
0.000000e+00
1.023901e-06
6.135900e-06
1.412751e-05
2.471828e-05
3.787616e-05
5.348052e-05
7.128392e-05
9.098096e-05
1.121507e-04
1.343065e-04
1.570158e-04
1.799499e-04
2.028166e-04
2.254325e-04
2.487543e-04
2.729962e-04
0.000000e+00
1.203583e-06
6.582690e-06
1.462806e-05
2.509162e-05
3.822033e-05
5.380078e-05
7.157860e-05
9.127129e-05
1.124388e-04
1.345576e-04
1.571830e-04
1.799991e-04
2.027813e-04
2.254742e-04
2.483949e-04
2.714132e-04
0.000000e+00
2.098637e-06
8.153663e-06
1.613387e-05
2.643989e-05
3.947771e-05
5.494149e-05
7.258277e-05
9.215109e-05
1.131818e-04
1.351259e-04
1.575575e-04
1.802031e-04
2.028921e-04
2.255587e-04
2.482407e-04
2.707283e-04
0.000000e+00
4.764824e-06
1.150362e-05
1.928638e-05
2.967575e-05
4.252298e-05
5.764881e-05
7.492562e-05
9.406158e-05
1.145832e-04
1.360421e-04
1.580959e-04
1.804903e-04
2.030413e-04
2.256292e-04
2.481669e-04
2.705154e-04
0.000000e+00
9.119915e-06
1.558736e-05
2.357728e-05
3.418394e-05
4.679800e-05
6.149517e-05
7.829253e-05
9.677732e-05
1.165138e-04
1.372539e-04
1.587862e-04
1.808567e-04
2.032248e-04
2.257070e-04
2.481605e-04
2.704859e-04


2.192564e+00
2.134329e+00
2.275817e+00
2.498171e+00
2.672398e+00
2.920469e+00
3.241703e+00
3.601185e+00
3.976972e+00
4.329479e+00
4.613476e+00
4.802059e+00
4.861450e+00
4.668996e+00
4.230151e+00
3.880680e+00
2.922347e+00
2.862837e+00
2.949413e+00
3.102128e+00
3.223881e+00
3.406229e+00
3.647502e+00
3.920261e+00
4.209241e+00
4.483627e+00
4.705641e+00
4.850632e+00
4.881122e+00
4.669085e+00
4.231241e+00
3.886039e+00
3.992010e+00
3.948690e+00
3.977019e+00
4.035713e+00
4.082237e+00
4.168160e+00
4.284921e+00
4.420134e+00
4.568876e+00
4.714581e+00
4.834239e+00
4.910809e+00
4.913191e+00
4.736427e+00
4.388461e+00
4.125597e+00
4.659344e+00
4.632810e+00
4.628066e+00
4.628145e+00
4.636009e+00
4.660450e+00
4.695398e+00
4.738828e+00
4.791375e+00
4.847125e+00
4.895804e+00
4.929228e+00
4.930213e+00
4.839429e+00
4.656443e+00
4.517901e+00
4.659401e+00
4.632741e+00
4.627748e+00
4.627369e+00
4.634313e+00
4.657139e+00
4.689864e+00
4.730603e+00
4.779828e+00
4.831889e+00
4.878322e+00
4.914984e+00
4.936398e+00
4.919682e+00
4.861643e+00
4.814870e+00
3.991911e+00
3.948216e+00
3.975845e+00
4.033385e+00
4.077831e+00
4.160847e+00
4.275055e+00
4.408505e+00
4.554170e+00
4.693643e+00
4.807247e+00
4.889074e+00
4.943489e+00
4.970670e+00
4.973914e+00
4.969917e+00
2.921645e+00
2.861568e+00
2.947235e+00
3.098704e+00
3.218817e+00
3.400692e+00
3.645964e+00
3.927639e+00
4.224395e+00
4.498224e+00
4.712910e+00
4.858931e+00
4.949153e+00
5.000427e+00
5.025863e+00
5.035532e+00
2.191295e+00
2.132453e+00
2.273057e+00
2.494469e+00
2.668127e+00
2.918784e+00
3.250558e+00
3.628871e+00
4.022680e+00
4.381159e+00
4.658495e+00
4.843546e+00
4.954040e+00
5.015011e+00
5.045656e+00
5.058292e+00


-4.742601e-01
-2.127210e-01
-1.549289e-01
-2.042227e-01
-1.580195e-01
-1.293182e-01
-1.196096e-01
-9.385900e-02
-4.008411e-02
4.804843e-02
1.657476e-01
2.909021e-01
4.039515e-01
5.091714e-01
6.254582e-01
-4.554220e-01
5.181597e-01
3.992667e-01
3.649233e-01
3.250359e-01
3.381248e-01
3.451279e-01
3.452982e-01
3.576061e-01
3.919948e-01
4.569785e-01
5.552986e-01
6.784312e-01
8.103444e-01
9.132844e-01
7.774469e-01
-1.198911e+00
8.322501e-01
7.364707e-01
6.564027e-01
6.180312e-01
6.083872e-01
6.015245e-01
5.967332e-01
5.996954e-01
6.154111e-01
6.486358e-01
6.983042e-01
7.489953e-01
7.629125e-01
6.701805e-01
3.675167e-01
-1.664589e-01
9.296616e-01
8.500612e-01
7.764948e-01
7.348145e-01
7.171491e-01
7.075980e-01
6.990005e-01
6.891662e-01
6.780848e-01
6.660654e-01
6.495425e-01
6.155484e-01
5.434302e-01
4.366610e-01
3.775045e-01
3.818298e-01
9.301624e-01
8.506860e-01
7.770428e-01
7.346230e-01
7.151030e-01
7.018583e-01
6.863346e-01
6.643041e-01
6.335773e-01
5.937458e-01
5.455597e-01
4.916246e-01
4.456792e-01
4.512729e-01
5.557163e-01
7.259769e-01
8.333977e-01
7.379543e-01
6.578460e-01
6.182465e-01
6.052639e-01
5.913178e-01
5.725965e-01
5.505956e-01
5.259098e-01
5.010982e-01
4.813025e-01
4.770030e-01
5.099315e-01
6.050936e-01
7.561262e-01
9.124242e-01
5.189307e-01
4.003749e-01
3.661061e-01
3.259660e-01
3.379635e-01
3.418420e-01
3.347096e-01
3.341478e-01
3.502921e-01
3.915215e-01
4.596652e-01
5.493939e-01
6.581510e-01
7.848507e-01
9.073653e-01
9.847066e-01
-4.752422e-01
-2.140782e-01
-1.564900e-01
-2.057233e-01
-1.584680e-01
-1.280943e-01
-1.153135e-01
-7.875646e-02
7.116725e-03
1.603804e-01
3.729360e-01
6.025707e-01
7.978533e-01
9.258937e-01
9.855027e-01
9.997065e-01
1 2 19 18
2 3 20 19
3 4 21 20
4 5 22 21
5 6 23 22
6 7 24 23
7 8 25 24
8 9 26 25
9 10 27 26
10 11 28 27
11 12 29 28
12 13 30 29
13 14 31 30
14 15 32 31
15 16 33 32
16 17 34 33
18 19 36 35
19 20 37 36
20 21 38 37
21 22 39 38
22 23 40 39
23 24 41 40
24 25 42 41
25 26 43 42
26 27 44 43
27 28 45 44
28 29 46 45
29 30 47 46
30 31 48 47
31 32 49 48
32 33 50 49
33 34 51 50
35 36 53 52
36 37 54 53
37 38 55 54
38 39 56 55
39 40 57 56
40 41 58 57
41 42 59 58
42 43 60 59
43 44 61 60
44 45 62 61
45 46 63 62
46 47 64 63
47 48 65 64
48 49 66 65
49 50 67 66
50 51 68 67
52 53 70 69
53 54 71 70
54 55 72 71
55 56 73 72
56 57 74 73
57 58 75 74
58 59 76 75
59 60 77 76
60 61 78 77
61 62 79 78
62 63 80 79
63 64 81 80
64 65 82 81
65 66 83 82
66 67 84 83
67 68 85 84
69 70 87 86
70 71 88 87
71 72 89 88
72 73 90 89
73 74 91 90
74 75 92 91
75 76 93 92
76 77 94 93
77 78 95 94
78 79 96 95
79 80 97 96
80 81 98 97
81 82 99 98
82 83 100 99
83 84 101 100
84 85 102 101
86 87 104 103
87 88 105 104
88 89 106 105
89 90 107 106
90 91 108 107
91 92 109 108
92 93 110 109
93 94 111 110
94 95 112 111
95 96 113 112
96 97 114 113
97 98 115 114
98 99 116 115
99 100 117 116
100 101 118 117
101 102 119 118
103 104 121 120
104 105 122 121
105 106 123 122
106 107 124 123
107 108 125 124
108 109 126 125
109 110 127 126
110 111 128 127
111 112 129 128
112 113 130 129
113 114 131 130
114 115 132 131
115 116 133 132
116 117 134 133
117 118 135 134
118 119 136 135
120 121 138 137
121 122 139 138
122 123 140 139
123 124 141 140
124 125 142 141
125 126 143 142
126 127 144 143
127 128 145 144
128 129 146 145
129 130 147 146
130 131 148 147
131 132 149 148
132 133 150 149
133 134 151 150
134 135 152 151
135 136 153 152
