TITLE = "Solution"
VARIABLES = x, y, u, v, psiu, psiv, t, stress
ZONE T="structure" N=153 E=128 F=FEBLOCK ET=QUADRILATERAL VARLOCATION=([7,8]=cellcentered)
0.000000e+00
1.250000e+01
2.500000e+01
3.750000e+01
5.000000e+01
6.250000e+01
7.500000e+01
8.750000e+01
1.000000e+02
1.125000e+02
1.250000e+02
1.375000e+02
1.500000e+02
1.625000e+02
1.750000e+02
1.875000e+02
2.000000e+02
0.000000e+00
1.250000e+01
2.500000e+01
3.750000e+01
5.000000e+01
6.250000e+01
7.500000e+01
8.750000e+01
1.000000e+02
1.125000e+02
1.250000e+02
1.375000e+02
1.500000e+02
1.625000e+02
1.750000e+02
1.875000e+02
2.000000e+02
0.000000e+00
1.250000e+01
2.500000e+01
3.750000e+01
5.000000e+01
6.250000e+01
7.500000e+01
8.750000e+01
1.000000e+02
1.125000e+02
1.250000e+02
1.375000e+02
1.500000e+02
1.625000e+02
1.750000e+02
1.875000e+02
2.000000e+02
0.000000e+00
1.250000e+01
2.500000e+01
3.750000e+01
5.000000e+01
6.250000e+01
7.500000e+01
8.750000e+01
1.000000e+02
1.125000e+02
1.250000e+02
1.375000e+02
1.500000e+02
1.625000e+02
1.750000e+02
1.875000e+02
2.000000e+02
0.000000e+00
1.250000e+01
2.500000e+01
3.750000e+01
5.000000e+01
6.250000e+01
7.500000e+01
8.750000e+01
1.000000e+02
1.125000e+02
1.250000e+02
1.375000e+02
1.500000e+02
1.625000e+02
1.750000e+02
1.875000e+02
2.000000e+02
0.000000e+00
1.250000e+01
2.500000e+01
3.750000e+01
5.000000e+01
6.250000e+01
7.500000e+01
8.750000e+01
1.000000e+02
1.125000e+02
1.250000e+02
1.375000e+02
1.500000e+02
1.625000e+02
1.750000e+02
1.875000e+02
2.000000e+02
0.000000e+00
1.250000e+01
2.500000e+01
3.750000e+01
5.000000e+01
6.250000e+01
7.500000e+01
8.750000e+01
1.000000e+02
1.125000e+02
1.250000e+02
1.375000e+02
1.500000e+02
1.625000e+02
1.750000e+02
1.875000e+02
2.000000e+02
0.000000e+00
1.250000e+01
2.500000e+01
3.750000e+01
5.000000e+01
6.250000e+01
7.500000e+01
8.750000e+01
1.000000e+02
1.125000e+02
1.250000e+02
1.375000e+02
1.500000e+02
1.625000e+02
1.750000e+02
1.875000e+02
2.000000e+02
0.000000e+00
1.250000e+01
2.500000e+01
3.750000e+01
5.000000e+01
6.250000e+01
7.500000e+01
8.750000e+01
1.000000e+02
1.125000e+02
1.250000e+02
1.375000e+02
1.500000e+02
1.625000e+02
1.750000e+02
1.875000e+02
2.000000e+02
0.000000e+00
0.000000e+00
0.000000e+00
0.000000e+00
0.000000e+00
0.000000e+00
0.000000e+00
0.000000e+00
0.000000e+00
0.000000e+00
0.000000e+00
0.000000e+00
0.000000e+00
0.000000e+00
0.000000e+00
0.000000e+00
0.000000e+00
1.250000e+01
1.250000e+01
1.250000e+01
1.250000e+01
1.250000e+01
1.250000e+01
1.250000e+01
1.250000e+01
1.250000e+01
1.250000e+01
1.250000e+01
1.250000e+01
1.250000e+01
1.250000e+01
1.250000e+01
1.250000e+01
1.250000e+01
2.500000e+01
2.500000e+01
2.500000e+01
2.500000e+01
2.500000e+01
2.500000e+01
2.500000e+01
2.500000e+01
2.500000e+01
2.500000e+01
2.500000e+01
2.500000e+01
2.500000e+01
2.500000e+01
2.500000e+01
2.500000e+01
2.500000e+01
3.750000e+01
3.750000e+01
3.750000e+01
3.750000e+01
3.750000e+01
3.750000e+01
3.750000e+01
3.750000e+01
3.750000e+01
3.750000e+01
3.750000e+01
3.750000e+01
3.750000e+01
3.750000e+01
3.750000e+01
3.750000e+01
3.750000e+01
5.000000e+01
5.000000e+01
5.000000e+01
5.000000e+01
5.000000e+01
5.000000e+01
5.000000e+01
5.000000e+01
5.000000e+01
5.000000e+01
5.000000e+01
5.000000e+01
5.000000e+01
5.000000e+01
5.000000e+01
5.000000e+01
5.000000e+01
6.250000e+01
6.250000e+01
6.250000e+01
6.250000e+01
6.250000e+01
6.250000e+01
6.250000e+01
6.250000e+01
6.250000e+01
6.250000e+01
6.250000e+01
6.250000e+01
6.250000e+01
6.250000e+01
6.250000e+01
6.250000e+01
6.250000e+01
7.500000e+01
7.500000e+01
7.500000e+01
7.500000e+01
7.500000e+01
7.500000e+01
7.500000e+01
7.500000e+01
7.500000e+01
7.500000e+01
7.500000e+01
7.500000e+01
7.500000e+01
7.500000e+01
7.500000e+01
7.500000e+01
7.500000e+01
8.750000e+01
8.750000e+01
8.750000e+01
8.750000e+01
8.750000e+01
8.750000e+01
8.750000e+01
8.750000e+01
8.750000e+01
8.750000e+01
8.750000e+01
8.750000e+01
8.750000e+01
8.750000e+01
8.750000e+01
8.750000e+01
8.750000e+01
1.000000e+02
1.000000e+02
1.000000e+02
1.000000e+02
1.000000e+02
1.000000e+02
1.000000e+02
1.000000e+02
1.000000e+02
1.000000e+02
1.000000e+02
1.000000e+02
1.000000e+02
1.000000e+02
1.000000e+02
1.000000e+02
1.000000e+02
0.000000e+00
-7.110801e-02
-1.309324e-01
-1.859786e-01
-2.372419e-01
-2.846143e-01
-3.279941e-01
-3.673477e-01
-4.027322e-01
-4.343108e-01
-4.623965e-01
-4.875381e-01
-5.106801e-01
-5.334537e-01
-5.586726e-01
-5.896445e-01
-6.128856e-01
0.000000e+00
-4.246445e-02
-8.821163e-02
-1.304562e-01
-1.693765e-01
-2.051203e-01
-2.377619e-01
-2.673451e-01
-2.939230e-01
-3.175777e-01
-3.384291e-01
-3.566275e-01
-3.722892e-01
-3.852528e-01
-3.943968e-01
-3.964010e-01
-4.035866e-01
0.000000e+00
-2.655606e-02
-5.460590e-02
-8.258976e-02
-1.087118e-01
-1.326955e-01
-1.545214e-01
-1.742141e-01
-1.917786e-01
-2.071855e-01
-2.203519e-01
-2.310940e-01
-2.390287e-01
-2.434580e-01
-2.435809e-01
-2.418115e-01
-2.491402e-01
0.000000e+00
-1.281760e-02
-2.638674e-02
-4.004157e-02
-5.309805e-02
-6.512388e-02
-7.602410e-02
-8.576697e-02
-9.429673e-02
-1.015024e-01
-1.071998e-01
-1.111200e-01
-1.129421e-01
-1.125164e-01
-1.107675e-01
-1.112457e-01
-1.167027e-01
0.000000e+00
-1.180738e-05
-2.684188e-05
-4.182702e-05
-4.977988e-05
-3.512895e-05
3.303329e-05
2.101666e-04
5.872600e-04
1.299847e-03
2.524750e-03
4.439602e-03
7.092401e-03
1.009020e-02
1.216098e-02
1.159303e-02
7.980029e-03
0.000000e+00
1.279943e-02
2.634456e-02
3.997411e-02
5.301414e-02
6.505563e-02
7.605058e-02
8.605277e-02
9.514894e-02
1.034446e-01
1.110481e-01
1.180158e-01
1.242266e-01
1.292069e-01
1.321366e-01
1.323690e-01
1.305352e-01
0.000000e+00
2.655308e-02
5.459681e-02
8.257168e-02
1.086836e-01
1.326603e-01
1.544922e-01
1.742236e-01
1.918953e-01
2.075388e-01
2.211677e-01
2.327488e-01
2.421488e-01
2.490985e-01
2.532699e-01
2.546243e-01
2.541967e-01
0.000000e+00
4.248187e-02
8.824951e-02
1.305166e-01
1.694575e-01
2.052070e-01
2.378106e-01
2.672561e-01
2.934988e-01
3.164627e-01
3.360391e-01
3.520925e-01
3.644945e-01
3.732041e-01
3.783995e-01
3.806151e-01
3.810220e-01
0.000000e+00
7.113714e-02
1.310092e-01
1.861225e-01
2.374719e-01
2.849378e-01
3.283799e-01
3.676721e-01
4.026829e-01
4.332303e-01
4.590495e-01
4.797962e-01
4.951298e-01
5.049296e-01
5.096689e-01
5.108387e-01
5.108162e-01
0.000000e+00
-4.304364e-02
-8.449965e-02
-1.382170e-01
-2.041439e-01
-2.821570e-01
-3.714020e-01
-4.708801e-01
-5.795335e-01
-6.963184e-01
-8.202707e-01
-9.506229e-01
-1.087061e+00
-1.230313e+00
-1.384095e+00
-1.560051e+00
-1.812867e+00
0.000000e+00
-2.649845e-02
-6.974388e-02
-1.241273e-01
-1.911317e-01
-2.702095e-01
-3.605357e-01
-4.610870e-01
-5.707935e-01
-6.885925e-01
-8.134931e-01
-9.446928e-01
-1.081829e+00
-1.225610e+00
-1.379332e+00
-1.554220e+00
-1.768476e+00
0.000000e+00
-1.999543e-02
-5.951444e-02
-1.140986e-01
-1.817365e-01
-2.616282e-01
-3.527847e-01
-4.541727e-01
-5.647295e-01
-6.834077e-01
-8.092355e-01
-9.414379e-01
-1.079686e+00
-1.224573e+00
-1.378428e+00
-1.544140e+00
-1.704514e+00
0.000000e+00
-1.723063e-02
-5.442841e-02
-1.082120e-01
-1.760945e-01
-2.564779e-01
-3.482027e-01
-4.501963e-01
-5.614161e-01
-6.808428e-01
-8.075258e-01
-9.406751e-01
-1.079806e+00
-1.224853e+00
-1.375630e+00
-1.527896e+00
-1.668168e+00
0.000000e+00
-1.643415e-02
-5.288914e-02
-1.063342e-01
-1.742351e-01
-2.548186e-01
-3.468071e-01
-4.491291e-01
-5.607616e-01
-6.807023e-01
-8.079791e-01
-9.416771e-01
-1.080932e+00
-1.224717e+00
-1.370879e+00
-1.514421e+00
-1.646658e+00
0.000000e+00
-1.722040e-02
-5.442113e-02
-1.082250e-01
-1.761581e-01
-2.566456e-01
-3.485613e-01
-4.508754e-01
-5.625868e-01
-6.826881e-01
-8.101445e-01
-9.438488e-01
-1.082508e+00
-1.224356e+00
-1.366670e+00
-1.505290e+00
-1.634705e+00
0.000000e+00
-1.997874e-02
-5.950237e-02
-1.141202e-01
-1.818437e-01
-2.619118e-01
-3.533926e-01
-4.553257e-01
-5.667201e-01
-6.865511e-01
-8.137140e-01
-9.469316e-01
-1.084599e+00
-1.224589e+00
-1.364144e+00
-1.500103e+00
-1.629432e+00
0.000000e+00
-2.648281e-02
-6.973337e-02
-1.241560e-01
-1.912605e-01
-2.705430e-01
-3.612433e-01
-4.624198e-01
-5.730802e-01
-6.921811e-01
-8.185728e-01
-9.508866e-01
-1.087381e+00
-1.225812e+00
-1.363511e+00
-1.497958e+00
-1.628194e+00
0.000000e+00
-4.303717e-02
-8.450055e-02
-1.382614e-01
-2.042931e-01
-2.825134e-01
-3.721261e-01
-4.722012e-01
-5.817360e-01
-6.996687e-01
-8.248219e-01
-9.557968e-01
-1.090839e+00
-1.227757e+00
-1.364049e+00
-1.497566e+00
-1.628214e+00


0.000000e+00
3.948802e-11
8.166697e-11
1.190356e-10
1.506091e-10
1.762594e-10
1.964648e-10
2.119532e-10
2.235413e-10
2.319833e-10
2.379981e-10
2.422190e-10
2.452285e-10
2.475669e-10
2.497412e-10
2.524209e-10
2.556357e-10
0.000000e+00
2.685547e-11
6.328887e-11
9.297753e-11
1.167963e-10
1.356233e-10
1.501549e-10
1.611144e-10
1.691595e-10
1.748858e-10
1.788155e-10
1.813666e-10
1.828744e-10
1.836169e-10
1.843695e-10
1.865614e-10
1.898713e-10
0.000000e+00
1.999522e-11
4.396071e-11
6.398768e-11
8.008512e-11
9.251338e-11
1.018787e-10
1.087572e-10
1.136686e-10
1.170200e-10
1.191654e-10
1.203793e-10
1.209209e-10
1.211296e-10
1.216581e-10
1.233746e-10
1.260538e-10
0.000000e+00
1.070205e-11
2.192827e-11
3.194611e-11
4.014354e-11
4.641060e-11
5.104020e-11
5.436287e-11
5.665748e-11
5.814165e-11
5.900342e-11
5.941538e-11
5.958265e-11
5.976777e-11
6.023066e-11
6.127473e-11
6.292560e-11
0.000000e+00
-9.883008e-15
-2.717040e-14
-5.075861e-14
-8.413660e-14
-1.336240e-13
-1.992080e-13
-2.957929e-13
-4.237429e-13
-5.856525e-13
-7.708305e-13
-9.306188e-13
-9.974061e-13
-8.898197e-13
-6.060590e-13
-1.033199e-13
7.563635e-13
0.000000e+00
-1.072732e-11
-2.197875e-11
-3.203484e-11
-4.028066e-11
-4.662001e-11
-5.135523e-11
-5.482437e-11
-5.731760e-11
-5.905741e-11
-6.021675e-11
-6.093147e-11
-6.129901e-11
-6.142148e-11
-6.141546e-11
-6.129120e-11
-6.092192e-11
0.000000e+00
-2.000501e-11
-4.399085e-11
-6.404532e-11
-8.017934e-11
-9.265116e-11
-1.020634e-10
-1.089969e-10
-1.139725e-10
-1.174044e-10
-1.196656e-10
-1.210575e-10
-1.218557e-10
-1.222844e-10
-1.225149e-10
-1.225943e-10
-1.224903e-10
0.000000e+00
-2.686553e-11
-6.331263e-11
-9.301958e-11
-1.168489e-10
-1.356848e-10
-1.502160e-10
-1.611535e-10
-1.691477e-10
-1.747909e-10
-1.786098e-10
-1.810688e-10
-1.825732e-10
-1.834462e-10
-1.839290e-10
-1.841488e-10
-1.841787e-10
0.000000e+00
-3.950744e-11
-8.170163e-11
-1.190750e-10
-1.506454e-10
-1.762791e-10
-1.964326e-10
-2.118360e-10
-2.232820e-10
-2.315175e-10
-2.372527e-10
-2.410828e-10
-2.435339e-10
-2.450004e-10
-2.457728e-10
-2.460712e-10
-2.461174e-10
0.000000e+00
3.586976e-11
6.447490e-11
9.449994e-11
1.305452e-10
1.729835e-10
2.209449e-10
2.733064e-10
3.289942e-10
3.871135e-10
4.469879e-10
5.081610e-10
5.704326e-10
6.342332e-10
7.012606e-10
7.723990e-10
8.444626e-10
0.000000e+00
1.928452e-11
4.723781e-11
7.927476e-11
1.180608e-10
1.631239e-10
2.134031e-10
2.676875e-10
3.249190e-10
3.842578e-10
4.450552e-10
5.068985e-10
5.696151e-10
6.333946e-10
6.990651e-10
7.682230e-10
8.391114e-10
0.000000e+00
9.510514e-12
3.370414e-11
6.738736e-11
1.084029e-10
1.556405e-10
2.077631e-10
2.635481e-10
3.219799e-10
3.822558e-10
4.437759e-10
5.061513e-10
5.691758e-10
6.327375e-10
6.969165e-10
7.637838e-10
8.327710e-10
0.000000e+00
5.409404e-12
2.731639e-11
6.115454e-11
1.033376e-10
1.517682e-10
2.048926e-10
2.614773e-10
3.205428e-10
3.813199e-10
4.432273e-10
5.058628e-10
5.689557e-10
6.322161e-10
6.955828e-10
7.606292e-10
8.272122e-10
0.000000e+00
4.368868e-12
2.557310e-11
5.926947e-11
1.017795e-10
1.505917e-10
2.040372e-10
2.608794e-10
3.201592e-10
3.811043e-10
4.431402e-10
5.058332e-10
5.688609e-10
6.319356e-10
6.949556e-10
7.588224e-10
8.232572e-10
0.000000e+00
5.418687e-12
2.732907e-11
6.117295e-11
1.033609e-10
1.518029e-10
2.049479e-10
2.615672e-10
3.206864e-10
3.815211e-10
4.434697e-10
5.060700e-10
5.689810e-10
6.319291e-10
6.948107e-10
7.579505e-10
8.209790e-10
0.000000e+00
9.523336e-12
3.372379e-11
6.742076e-11
1.084435e-10
1.557104e-10
2.078764e-10
2.637275e-10
3.222643e-10
3.826500e-10
4.442631e-10
5.066036e-10
5.693064e-10
6.321079e-10
6.948543e-10
7.575628e-10
8.199143e-10
0.000000e+00
1.930680e-11
4.727087e-11
7.933187e-11
1.181277e-10
1.632297e-10
2.135626e-10
2.679288e-10
3.252783e-10
3.847465e-10
4.456553e-10
5.074754e-10
5.698152e-10
6.323716e-10
6.949525e-10
7.574153e-10
8.195586e-10
0.000000e+00
3.589739e-11
6.452265e-11
9.457182e-11
1.306379e-10
1.731073e-10
2.211184e-10
2.735507e-10
3.293335e-10
3.875581e-10
4.475134e-10
5.086312e-10
5.704758e-10
6.327146e-10
6.950927e-10
7.574056e-10
8.195016e-10


2.077716e-01
2.077716e-01
2.077716e-01
2.077716e-01
2.077716e-01
2.077716e-01
2.077716e-01
2.077716e-01
2.077716e-01
2.077716e-01
2.077716e-01
2.077716e-01
2.077716e-01
2.077716e-01
2.077716e-01
2.077716e-01
2.077716e-01
2.077716e-01
2.077716e-01
2.077716e-01
2.077716e-01
2.077716e-01
2.077716e-01
2.077716e-01
2.077716e-01
2.077716e-01
2.077716e-01
2.077716e-01
2.077716e-01
2.077716e-01
2.077716e-01
2.077716e-01
2.077716e-01
2.077716e-01
2.077716e-01
2.077716e-01
2.077716e-01
2.077716e-01
2.077716e-01
2.077716e-01
2.077716e-01
2.077716e-01
2.077716e-01
2.077716e-01
2.077716e-01
2.077716e-01
2.077716e-01
2.077716e-01
2.077716e-01
2.077716e-01
2.077716e-01
2.077716e-01
2.077716e-01
2.077716e-01
2.077716e-01
2.077716e-01
2.077716e-01
2.077716e-01
2.077716e-01
2.077716e-01
2.077716e-01
2.077716e-01
2.077716e-01
2.077716e-01
2.077716e-01
2.077716e-01
2.077716e-01
2.077716e-01
2.077716e-01
2.077716e-01
2.077716e-01
2.077716e-01
2.077716e-01
2.077716e-01
2.077716e-01
2.077716e-01
2.077716e-01
2.077716e-01
2.077716e-01
2.077716e-01
2.077716e-01
2.077716e-01
2.077716e-01
2.077716e-01
2.077716e-01
2.077716e-01
2.077716e-01
2.077716e-01
2.077716e-01
2.077716e-01
2.077716e-01
2.077716e-01
2.077716e-01
2.077716e-01
2.077716e-01
2.077716e-01
2.077716e-01
2.077716e-01
2.077716e-01
2.077716e-01
2.077716e-01
2.077716e-01
2.077716e-01
2.077716e-01
2.077716e-01
2.077716e-01
2.077716e-01
2.077716e-01
2.077716e-01
2.077716e-01
2.077716e-01
2.077716e-01
2.077716e-01
2.077716e-01
2.077716e-01
2.077716e-01
2.077716e-01
2.077716e-01
2.077716e-01
2.077716e-01
2.077716e-01
2.077716e-01
2.077716e-01
2.077716e-01
2.077716e-01
2.077716e-01
2.077716e-01
2.077716e-01


9.886241e-01
9.902373e-01
9.917296e-01
9.928784e-01
9.939447e-01
9.949279e-01
9.958237e-01
9.966216e-01
9.973131e-01
9.978914e-01
9.983513e-01
9.986882e-01
9.988976e-01
9.989723e-01
9.990263e-01
9.957017e-01
9.956963e-01
9.949570e-01
9.954326e-01
9.960534e-01
9.966322e-01
9.971582e-01
9.976343e-01
9.980656e-01
9.984561e-01
9.988098e-01
9.991308e-01
9.994214e-01
9.996750e-01
9.998410e-01
9.994211e-01
9.937302e-01
9.985046e-01
9.980800e-01
9.979654e-01
9.981267e-01
9.983388e-01
9.985442e-01
9.987350e-01
9.989152e-01
9.990898e-01
9.992600e-01
9.994190e-01
9.995421e-01
9.995678e-01
9.993461e-01
9.985420e-01
9.970957e-01
9.996957e-01
9.993860e-01
9.991947e-01
9.991462e-01
9.991655e-01
9.991981e-01
9.992305e-01
9.992623e-01
9.992934e-01
9.993195e-01
9.993267e-01
9.992880e-01
9.991650e-01
9.989443e-01
9.987572e-01
9.987098e-01
9.996968e-01
9.993876e-01
9.991961e-01
9.991459e-01
9.991607e-01
9.991842e-01
9.992005e-01
9.992059e-01
9.991985e-01
9.991745e-01
9.991298e-01
9.990655e-01
9.990042e-01
9.990164e-01
9.991896e-01
9.994894e-01
9.985068e-01
9.980833e-01
9.979685e-01
9.981267e-01
9.983305e-01
9.985188e-01
9.986781e-01
9.988061e-01
9.989020e-01
9.989666e-01
9.990074e-01
9.990473e-01
9.991312e-01
9.993069e-01
9.995710e-01
9.998440e-01
9.956959e-01
9.949567e-01
9.954320e-01
9.960516e-01
9.966276e-01
9.971478e-01
9.976129e-01
9.980247e-01
9.983835e-01
9.986902e-01
9.989499e-01
9.991766e-01
9.993950e-01
9.996240e-01
9.998381e-01
9.999729e-01
9.886163e-01
9.902251e-01
9.917147e-01
9.928617e-01
9.939297e-01
9.949225e-01
9.958422e-01
9.966868e-01
9.974563e-01
9.981493e-01
9.987575e-01
9.992620e-01
9.996374e-01
9.998690e-01
9.999743e-01
9.999995e-01
1 2 19 18
2 3 20 19
3 4 21 20
4 5 22 21
5 6 23 22
6 7 24 23
7 8 25 24
8 9 26 25
9 10 27 26
10 11 28 27
11 12 29 28
12 13 30 29
13 14 31 30
14 15 32 31
15 16 33 32
16 17 34 33
18 19 36 35
19 20 37 36
20 21 38 37
21 22 39 38
22 23 40 39
23 24 41 40
24 25 42 41
25 26 43 42
26 27 44 43
27 28 45 44
28 29 46 45
29 30 47 46
30 31 48 47
31 32 49 48
32 33 50 49
33 34 51 50
35 36 53 52
36 37 54 53
37 38 55 54
38 39 56 55
39 40 57 56
40 41 58 57
41 42 59 58
42 43 60 59
43 44 61 60
44 45 62 61
45 46 63 62
46 47 64 63
47 48 65 64
48 49 66 65
49 50 67 66
50 51 68 67
52 53 70 69
53 54 71 70
54 55 72 71
55 56 73 72
56 57 74 73
57 58 75 74
58 59 76 75
59 60 77 76
60 61 78 77
61 62 79 78
62 63 80 79
63 64 81 80
64 65 82 81
65 66 83 82
66 67 84 83
67 68 85 84
69 70 87 86
70 71 88 87
71 72 89 88
72 73 90 89
73 74 91 90
74 75 92 91
75 76 93 92
76 77 94 93
77 78 95 94
78 79 96 95
79 80 97 96
80 81 98 97
81 82 99 98
82 83 100 99
83 84 101 100
84 85 102 101
86 87 104 103
87 88 105 104
88 89 106 105
89 90 107 106
90 91 108 107
91 92 109 108
92 93 110 109
93 94 111 110
94 95 112 111
95 96 113 112
96 97 114 113
97 98 115 114
98 99 116 115
99 100 117 116
100 101 118 117
101 102 119 118
103 104 121 120
104 105 122 121
105 106 123 122
106 107 124 123
107 108 125 124
108 109 126 125
109 110 127 126
110 111 128 127
111 112 129 128
112 113 130 129
113 114 131 130
114 115 132 131
115 116 133 132
116 117 134 133
117 118 135 134
118 119 136 135
120 121 138 137
121 122 139 138
122 123 140 139
123 124 141 140
124 125 142 141
125 126 143 142
126 127 144 143
127 128 145 144
128 129 146 145
129 130 147 146
130 131 148 147
131 132 149 148
132 133 150 149
133 134 151 150
134 135 152 151
135 136 153 152
