TITLE = "Solution"
VARIABLES = x, y, u, v, psiu, psiv, t, stress
ZONE T="structure" N=153 E=128 F=FEBLOCK ET=QUADRILATERAL VARLOCATION=([7,8]=cellcentered)
0.000000e+00
1.250000e+01
2.500000e+01
3.750000e+01
5.000000e+01
6.250000e+01
7.500000e+01
8.750000e+01
1.000000e+02
1.125000e+02
1.250000e+02
1.375000e+02
1.500000e+02
1.625000e+02
1.750000e+02
1.875000e+02
2.000000e+02
0.000000e+00
1.250000e+01
2.500000e+01
3.750000e+01
5.000000e+01
6.250000e+01
7.500000e+01
8.750000e+01
1.000000e+02
1.125000e+02
1.250000e+02
1.375000e+02
1.500000e+02
1.625000e+02
1.750000e+02
1.875000e+02
2.000000e+02
0.000000e+00
1.250000e+01
2.500000e+01
3.750000e+01
5.000000e+01
6.250000e+01
7.500000e+01
8.750000e+01
1.000000e+02
1.125000e+02
1.250000e+02
1.375000e+02
1.500000e+02
1.625000e+02
1.750000e+02
1.875000e+02
2.000000e+02
0.000000e+00
1.250000e+01
2.500000e+01
3.750000e+01
5.000000e+01
6.250000e+01
7.500000e+01
8.750000e+01
1.000000e+02
1.125000e+02
1.250000e+02
1.375000e+02
1.500000e+02
1.625000e+02
1.750000e+02
1.875000e+02
2.000000e+02
0.000000e+00
1.250000e+01
2.500000e+01
3.750000e+01
5.000000e+01
6.250000e+01
7.500000e+01
8.750000e+01
1.000000e+02
1.125000e+02
1.250000e+02
1.375000e+02
1.500000e+02
1.625000e+02
1.750000e+02
1.875000e+02
2.000000e+02
0.000000e+00
1.250000e+01
2.500000e+01
3.750000e+01
5.000000e+01
6.250000e+01
7.500000e+01
8.750000e+01
1.000000e+02
1.125000e+02
1.250000e+02
1.375000e+02
1.500000e+02
1.625000e+02
1.750000e+02
1.875000e+02
2.000000e+02
0.000000e+00
1.250000e+01
2.500000e+01
3.750000e+01
5.000000e+01
6.250000e+01
7.500000e+01
8.750000e+01
1.000000e+02
1.125000e+02
1.250000e+02
1.375000e+02
1.500000e+02
1.625000e+02
1.750000e+02
1.875000e+02
2.000000e+02
0.000000e+00
1.250000e+01
2.500000e+01
3.750000e+01
5.000000e+01
6.250000e+01
7.500000e+01
8.750000e+01
1.000000e+02
1.125000e+02
1.250000e+02
1.375000e+02
1.500000e+02
1.625000e+02
1.750000e+02
1.875000e+02
2.000000e+02
0.000000e+00
1.250000e+01
2.500000e+01
3.750000e+01
5.000000e+01
6.250000e+01
7.500000e+01
8.750000e+01
1.000000e+02
1.125000e+02
1.250000e+02
1.375000e+02
1.500000e+02
1.625000e+02
1.750000e+02
1.875000e+02
2.000000e+02
0.000000e+00
0.000000e+00
0.000000e+00
0.000000e+00
0.000000e+00
0.000000e+00
0.000000e+00
0.000000e+00
0.000000e+00
0.000000e+00
0.000000e+00
0.000000e+00
0.000000e+00
0.000000e+00
0.000000e+00
0.000000e+00
0.000000e+00
1.250000e+01
1.250000e+01
1.250000e+01
1.250000e+01
1.250000e+01
1.250000e+01
1.250000e+01
1.250000e+01
1.250000e+01
1.250000e+01
1.250000e+01
1.250000e+01
1.250000e+01
1.250000e+01
1.250000e+01
1.250000e+01
1.250000e+01
2.500000e+01
2.500000e+01
2.500000e+01
2.500000e+01
2.500000e+01
2.500000e+01
2.500000e+01
2.500000e+01
2.500000e+01
2.500000e+01
2.500000e+01
2.500000e+01
2.500000e+01
2.500000e+01
2.500000e+01
2.500000e+01
2.500000e+01
3.750000e+01
3.750000e+01
3.750000e+01
3.750000e+01
3.750000e+01
3.750000e+01
3.750000e+01
3.750000e+01
3.750000e+01
3.750000e+01
3.750000e+01
3.750000e+01
3.750000e+01
3.750000e+01
3.750000e+01
3.750000e+01
3.750000e+01
5.000000e+01
5.000000e+01
5.000000e+01
5.000000e+01
5.000000e+01
5.000000e+01
5.000000e+01
5.000000e+01
5.000000e+01
5.000000e+01
5.000000e+01
5.000000e+01
5.000000e+01
5.000000e+01
5.000000e+01
5.000000e+01
5.000000e+01
6.250000e+01
6.250000e+01
6.250000e+01
6.250000e+01
6.250000e+01
6.250000e+01
6.250000e+01
6.250000e+01
6.250000e+01
6.250000e+01
6.250000e+01
6.250000e+01
6.250000e+01
6.250000e+01
6.250000e+01
6.250000e+01
6.250000e+01
7.500000e+01
7.500000e+01
7.500000e+01
7.500000e+01
7.500000e+01
7.500000e+01
7.500000e+01
7.500000e+01
7.500000e+01
7.500000e+01
7.500000e+01
7.500000e+01
7.500000e+01
7.500000e+01
7.500000e+01
7.500000e+01
7.500000e+01
8.750000e+01
8.750000e+01
8.750000e+01
8.750000e+01
8.750000e+01
8.750000e+01
8.750000e+01
8.750000e+01
8.750000e+01
8.750000e+01
8.750000e+01
8.750000e+01
8.750000e+01
8.750000e+01
8.750000e+01
8.750000e+01
8.750000e+01
1.000000e+02
1.000000e+02
1.000000e+02
1.000000e+02
1.000000e+02
1.000000e+02
1.000000e+02
1.000000e+02
1.000000e+02
1.000000e+02
1.000000e+02
1.000000e+02
1.000000e+02
1.000000e+02
1.000000e+02
1.000000e+02
1.000000e+02
0.000000e+00
-8.273363e-01
-1.501549e+00
-2.155086e+00
-2.820781e+00
-3.474301e+00
-4.118727e+00
-4.758246e+00
-5.387447e+00
-5.996833e+00
-6.576416e+00
-7.120263e+00
-7.632892e+00
-8.134049e+00
-8.658361e+00
-9.247714e+00
-9.666457e+00
0.000000e+00
-4.588906e-01
-9.548196e-01
-1.443329e+00
-1.942106e+00
-2.431783e+00
-2.913725e+00
-3.391452e+00
-3.861120e+00
-4.314968e+00
-4.743341e+00
-5.136538e+00
-5.486133e+00
-5.779110e+00
-5.980066e+00
-6.024568e+00
-6.160676e+00
0.000000e+00
-2.603593e-01
-5.472431e-01
-8.660772e-01
-1.197406e+00
-1.525951e+00
-1.850758e+00
-2.171016e+00
-2.482285e+00
-2.777409e+00
-3.046609e+00
-3.277674e+00
-3.455386e+00
-3.559132e+00
-3.568460e+00
-3.536615e+00
-3.678351e+00
0.000000e+00
-1.166919e-01
-2.493688e-01
-4.027202e-01
-5.666467e-01
-7.321570e-01
-8.962319e-01
-1.055932e+00
-1.207174e+00
-1.344123e+00
-1.458758e+00
-1.541070e+00
-1.580399e+00
-1.570710e+00
-1.531390e+00
-1.538988e+00
-1.650215e+00
0.000000e+00
-5.200379e-04
-1.093598e-03
-1.626735e-03
-1.935784e-03
-1.668404e-03
-1.668963e-04
3.754744e-03
1.211673e-02
2.803997e-02
5.570234e-02
9.942431e-02
1.607062e-01
2.310177e-01
2.813955e-01
2.727648e-01
1.953864e-01
0.000000e+00
1.158179e-01
2.475064e-01
3.998856e-01
5.631265e-01
7.287997e-01
8.949344e-01
1.060482e+00
1.224532e+00
1.386137e+00
1.543993e+00
1.695683e+00
1.835429e+00
1.950187e+00
2.019406e+00
2.027010e+00
1.986670e+00
0.000000e+00
2.599276e-01
5.462624e-01
8.644453e-01
1.195075e+00
1.523050e+00
1.847824e+00
2.169313e+00
2.484008e+00
2.785822e+00
3.066537e+00
3.316711e+00
3.526250e+00
3.684213e+00
3.780189e+00
3.811860e+00
3.802530e+00
0.000000e+00
4.590007e-01
9.549578e-01
1.443416e+00
1.941952e+00
2.430978e+00
2.911666e+00
3.387057e+00
3.851567e+00
4.293265e+00
4.695831e+00
5.041832e+00
5.317032e+00
5.513457e+00
5.631557e+00
5.682068e+00
5.691406e+00
0.000000e+00
8.277580e-01
1.502614e+00
2.156999e+00
2.823661e+00
3.478047e+00
4.123034e+00
4.761918e+00
5.385801e+00
5.976649e+00
6.509499e+00
6.957080e+00
7.296638e+00
7.516443e+00
7.623043e+00
7.649036e+00
7.648340e+00
0.000000e+00
-5.082679e-01
-1.042693e+00
-1.751066e+00
-2.623967e+00
-3.661820e+00
-4.868547e+00
-6.243592e+00
-7.782527e+00
-9.478212e+00
-1.132087e+01
-1.330064e+01
-1.541331e+01
-1.767058e+01
-2.013763e+01
-2.302557e+01
-2.732526e+01
0.000000e+00
-3.194255e-01
-8.765175e-01
-1.578485e+00
-2.451329e+00
-3.492039e+00
-4.700708e+00
-6.077971e+00
-7.621331e+00
-9.324491e+00
-1.117772e+01
-1.317013e+01
-1.529597e+01
-1.756790e+01
-2.004370e+01
-2.292045e+01
-2.650619e+01
0.000000e+00
-2.569269e-01
-7.653445e-01
-1.460620e+00
-2.330236e+00
-3.371577e+00
-4.582356e+00
-5.962957e+00
-7.511797e+00
-9.223607e+00
-1.108939e+01
-1.309868e+01
-1.524633e+01
-1.754359e+01
-2.002819e+01
-2.273465e+01
-2.531667e+01
0.000000e+00
-2.454421e-01
-7.188203e-01
-1.396136e+00
-2.260302e+00
-3.300666e+00
-4.513748e+00
-5.898892e+00
-7.454697e+00
-9.176657e+00
-1.105636e+01
-1.308303e+01
-1.524816e+01
-1.754920e+01
-1.997350e+01
-2.241849e+01
-2.460304e+01
0.000000e+00
-2.458735e-01
-7.078006e-01
-1.377446e+00
-2.238333e+00
-3.278863e+00
-4.494237e+00
-5.883639e+00
-7.445964e+00
-9.177114e+00
-1.106828e+01
-1.310597e+01
-1.527327e+01
-1.754652e+01
-1.987314e+01
-2.213745e+01
-2.414841e+01
0.000000e+00
-2.452350e-01
-7.188032e-01
-1.396768e+00
-2.262256e+00
-3.304971e+00
-4.522029e+00
-5.913762e+00
-7.479935e+00
-9.216563e+00
-1.111349e+01
-1.315285e+01
-1.530792e+01
-1.753843e+01
-1.978026e+01
-2.193702e+01
-2.388400e+01
0.000000e+00
-2.565770e-01
-7.652875e-01
-1.461587e+00
-2.333346e+00
-3.378557e+00
-4.595947e+00
-5.987601e+00
-7.553958e+00
-9.290733e+00
-1.118614e+01
-1.321837e+01
-1.535352e+01
-1.754314e+01
-1.972308e+01
-2.182022e+01
-2.376562e+01
0.000000e+00
-3.190734e-01
-8.764543e-01
-1.579542e+00
-2.454784e+00
-3.499880e+00
-4.716113e+00
-6.106021e+00
-7.669272e+00
-9.400453e+00
-1.128642e+01
-1.330340e+01
-1.541485e+01
-1.757030e+01
-1.970841e+01
-2.177145e+01
-2.373808e+01
0.000000e+00
-5.080447e-01
-1.042758e+00
-1.752284e+00
-2.627601e+00
-3.669859e+00
-4.884169e+00
-6.271620e+00
-7.829203e+00
-9.549478e+00
-1.141792e+01
-1.341056e+01
-1.549192e+01
-1.761399e+01
-1.972040e+01
-2.176245e+01
-2.373870e+01


0.000000e+00
9.991767e-06
1.951558e-05
2.855602e-05
3.801448e-05
4.722766e-05
5.561728e-05
6.303965e-05
6.930350e-05
7.418692e-05
7.768428e-05
8.004221e-05
8.164270e-05
8.290072e-05
8.414561e-05
8.592593e-05
8.826551e-05
0.000000e+00
7.344420e-06
1.572986e-05
2.256710e-05
2.974974e-05
3.677191e-05
4.304701e-05
4.850056e-05
5.302988e-05
5.643634e-05
5.872065e-05
6.009208e-05
6.078364e-05
6.095432e-05
6.113175e-05
6.257273e-05
6.503792e-05
0.000000e+00
5.528338e-06
1.112333e-05
1.582300e-05
2.067421e-05
2.525119e-05
2.930992e-05
3.279709e-05
3.563529e-05
3.771729e-05
3.905182e-05
3.975657e-05
3.998991e-05
3.997895e-05
4.018233e-05
4.139652e-05
4.345979e-05
0.000000e+00
2.761608e-06
5.207126e-06
7.841662e-06
1.027489e-05
1.248049e-05
1.445476e-05
1.615392e-05
1.751462e-05
1.850552e-05
1.913039e-05
1.944438e-05
1.957285e-05
1.970941e-05
2.003017e-05
2.075669e-05
2.194247e-05
0.000000e+00
-6.461714e-09
-1.341813e-08
-2.066477e-08
-2.846169e-08
-3.789598e-08
-5.261907e-08
-8.028267e-08
-1.298824e-07
-2.041255e-07
-2.926800e-07
-3.649678e-07
-3.660119e-07
-2.427549e-07
-3.654399e-08
2.353777e-07
7.428905e-07
0.000000e+00
-2.773175e-06
-5.230288e-06
-7.877812e-06
-1.032478e-05
-1.254501e-05
-1.453882e-05
-1.627213e-05
-1.769245e-05
-1.877580e-05
-1.952175e-05
-1.996007e-05
-2.015060e-05
-2.018184e-05
-2.017549e-05
-2.015565e-05
-1.998361e-05
0.000000e+00
-5.534056e-06
-1.113747e-05
-1.584804e-05
-2.071222e-05
-2.530399e-05
-2.937838e-05
-3.286832e-05
-3.567736e-05
-3.770493e-05
-3.900132e-05
-3.973678e-05
-4.011129e-05
-4.030017e-05
-4.042094e-05
-4.048798e-05
-4.044862e-05
0.000000e+00
-7.344602e-06
-1.573373e-05
-2.257663e-05
-2.976738e-05
-3.680280e-05
-4.309621e-05
-4.853952e-05
-5.297180e-05
-5.618455e-05
-5.824837e-05
-5.946612e-05
-6.015867e-05
-6.055701e-05
-6.079107e-05
-6.090749e-05
-6.092618e-05
0.000000e+00
-9.993620e-06
-1.951431e-05
-2.855049e-05
-3.800409e-05
-4.721490e-05
-5.560407e-05
-6.299552e-05
-6.913571e-05
-7.378169e-05
-7.697748e-05
-7.902023e-05
-8.026288e-05
-8.098487e-05
-8.136341e-05
-8.150696e-05
-8.153060e-05
0.000000e+00
8.740356e-06
1.498434e-05
2.260075e-05
3.267403e-05
4.467837e-05
5.858248e-05
7.433704e-05
9.158901e-05
1.099644e-04
1.292265e-04
1.492144e-04
1.698407e-04
1.913527e-04
2.152044e-04
2.424438e-04
2.704541e-04
0.000000e+00
4.540780e-06
1.101798e-05
1.851282e-05
2.844114e-05
4.068549e-05
5.503918e-05
7.129937e-05
8.915717e-05
1.082028e-04
1.280746e-04
1.485262e-04
1.694557e-04
1.910029e-04
2.137438e-04
2.393284e-04
2.664373e-04
0.000000e+00
1.990633e-06
7.797413e-06
1.551308e-05
2.541071e-05
3.785168e-05
5.254832e-05
6.919245e-05
8.747944e-05
1.069960e-04
1.273110e-04
1.481214e-04
1.692894e-04
1.907081e-04
2.122278e-04
2.359073e-04
2.615841e-04
0.000000e+00
1.139865e-06
6.302296e-06
1.406684e-05
2.412355e-05
3.666392e-05
5.148231e-05
6.828477e-05
8.674359e-05
1.064453e-04
1.269540e-04
1.479312e-04
1.691561e-04
1.903897e-04
2.113559e-04
2.336247e-04
2.575533e-04
0.000000e+00
9.724544e-07
5.880246e-06
1.358221e-05
2.375117e-05
3.632363e-05
5.117283e-05
6.802771e-05
8.654588e-05
1.063064e-04
1.268714e-04
1.478766e-04
1.690550e-04
1.901741e-04
2.111034e-04
2.326488e-04
2.549598e-04
0.000000e+00
1.140749e-06
6.300820e-06
1.406068e-05
2.411116e-05
3.664769e-05
5.147458e-05
6.830773e-05
8.681406e-05
1.065593e-04
1.270832e-04
1.480144e-04
1.690948e-04
1.901465e-04
2.111344e-04
2.323289e-04
2.536028e-04
0.000000e+00
1.991792e-06
7.795172e-06
1.550406e-05
2.539212e-05
3.782744e-05
5.253972e-05
6.923860e-05
8.761158e-05
1.072110e-04
1.275668e-04
1.483267e-04
1.692643e-04
1.902410e-04
2.112063e-04
2.321919e-04
2.530131e-04
0.000000e+00
4.543110e-06
1.101869e-05
1.850789e-05
2.842842e-05
4.067026e-05
5.504146e-05
7.135196e-05
8.928706e-05
1.084147e-04
1.283451e-04
1.487819e-04
1.695077e-04
1.903691e-04
2.112675e-04
2.321280e-04
2.528281e-04
0.000000e+00
8.744733e-06
1.498845e-05
2.260156e-05
3.267050e-05
4.467726e-05
5.859654e-05
7.437364e-05
9.165017e-05
1.100623e-04
1.293732e-04
1.493691e-04
1.698213e-04
1.905274e-04
2.113353e-04
2.321227e-04
2.528020e-04


2.173648e+00
2.123250e+00
2.265105e+00
2.491443e+00
2.673165e+00
2.916897e+00
3.228013e+00
3.568530e+00
3.907601e+00
4.210133e+00
4.444814e+00
4.596533e+00
4.640736e+00
4.476123e+00
4.110825e+00
3.822934e+00
2.828309e+00
2.776749e+00
2.866228e+00
3.025266e+00
3.155229e+00
3.336700e+00
3.573014e+00
3.834128e+00
4.097157e+00
4.334169e+00
4.518489e+00
4.635477e+00
4.657220e+00
4.478750e+00
4.116932e+00
3.834849e+00
3.802265e+00
3.763273e+00
3.795297e+00
3.860506e+00
3.914135e+00
4.002139e+00
4.120006e+00
4.253460e+00
4.392330e+00
4.520746e+00
4.621574e+00
4.683936e+00
4.684233e+00
4.536974e+00
4.251006e+00
4.036668e+00
4.419179e+00
4.394581e+00
4.392411e+00
4.397751e+00
4.409884e+00
4.437282e+00
4.476055e+00
4.523117e+00
4.576148e+00
4.628332e+00
4.671147e+00
4.699100e+00
4.699217e+00
4.623502e+00
4.472699e+00
4.359410e+00
4.419200e+00
4.394512e+00
4.392142e+00
4.397069e+00
4.408387e+00
4.434451e+00
4.471453e+00
4.516314e+00
4.566554e+00
4.615719e+00
4.656892e+00
4.687793e+00
4.704958e+00
4.690283e+00
4.641780e+00
4.603095e+00
3.802074e+00
3.762800e+00
3.794248e+00
3.858407e+00
3.910236e+00
3.995994e+00
4.112012e+00
4.243874e+00
4.379614e+00
4.502555e+00
4.598868e+00
4.666535e+00
4.710751e+00
4.732265e+00
4.734164e+00
4.730470e+00
2.827498e+00
2.775486e+00
2.864174e+00
3.022033e+00
3.150634e+00
3.332161e+00
3.572175e+00
3.839984e+00
4.107736e+00
4.343130e+00
4.521980e+00
4.641629e+00
4.714987e+00
4.756365e+00
4.776626e+00
4.784218e+00
2.172282e+00
2.121373e+00
2.262415e+00
2.487787e+00
2.669085e+00
2.915559e+00
3.235777e+00
3.590674e+00
3.942085e+00
4.247795e+00
4.477625e+00
4.628843e+00
4.718663e+00
4.768017e+00
4.792637e+00
4.802712e+00


-4.579071e-01
-2.065679e-01
-1.434047e-01
-1.887254e-01
-1.477897e-01
-1.159542e-01
-9.922038e-02
-6.452169e-02
2.820583e-03
1.044179e-01
2.284110e-01
3.513552e-01
4.556092e-01
5.440845e-01
6.405586e-01
-4.233832e-01
5.168605e-01
3.998237e-01
3.703800e-01
3.344958e-01
3.460304e-01
3.555159e-01
3.600794e-01
3.776412e-01
4.191694e-01
4.903064e-01
5.895315e-01
7.071612e-01
8.288486e-01
9.211043e-01
7.858012e-01
-1.146185e+00
8.325045e-01
7.408972e-01
6.660466e-01
6.306735e-01
6.217719e-01
6.166735e-01
6.139612e-01
6.191839e-01
6.376532e-01
6.729691e-01
7.224763e-01
7.709639e-01
7.837434e-01
6.953853e-01
4.020431e-01
-1.164835e-01
9.341711e-01
8.593337e-01
7.919889e-01
7.541318e-01
7.379066e-01
7.287996e-01
7.202777e-01
7.107267e-01
7.008647e-01
6.911948e-01
6.778756e-01
6.482987e-01
5.831852e-01
4.841694e-01
4.247136e-01
4.247766e-01
9.346463e-01
8.599335e-01
7.925312e-01
7.540244e-01
7.361212e-01
7.235978e-01
7.086061e-01
6.876701e-01
6.596013e-01
6.244339e-01
5.824862e-01
5.354553e-01
4.953100e-01
5.008414e-01
5.950271e-01
7.494895e-01
8.335930e-01
7.423168e-01
6.674542e-01
6.310087e-01
6.190760e-01
6.074047e-01
5.917229e-01
5.737701e-01
5.549220e-01
5.370117e-01
5.234139e-01
5.228012e-01
5.547183e-01
6.418601e-01
7.788440e-01
9.204521e-01
5.176054e-01
4.008750e-01
3.715000e-01
3.354266e-01
3.459471e-01
3.524349e-01
3.503370e-01
3.565691e-01
3.819524e-01
4.313194e-01
5.022552e-01
5.887327e-01
6.895308e-01
8.050124e-01
9.160680e-01
9.861188e-01
-4.587392e-01
-2.078747e-01
-1.449540e-01
-1.902421e-01
-1.485055e-01
-1.154169e-01
-9.543502e-02
-4.883865e-02
5.044486e-02
2.122050e-01
4.207569e-01
6.365123e-01
8.160992e-01
9.327400e-01
9.868425e-01
9.997320e-01
1 2 19 18
2 3 20 19
3 4 21 20
4 5 22 21
5 6 23 22
6 7 24 23
7 8 25 24
8 9 26 25
9 10 27 26
10 11 28 27
11 12 29 28
12 13 30 29
13 14 31 30
14 15 32 31
15 16 33 32
16 17 34 33
18 19 36 35
19 20 37 36
20 21 38 37
21 22 39 38
22 23 40 39
23 24 41 40
24 25 42 41
25 26 43 42
26 27 44 43
27 28 45 44
28 29 46 45
29 30 47 46
30 31 48 47
31 32 49 48
32 33 50 49
33 34 51 50
35 36 53 52
36 37 54 53
37 38 55 54
38 39 56 55
39 40 57 56
40 41 58 57
41 42 59 58
42 43 60 59
43 44 61 60
44 45 62 61
45 46 63 62
46 47 64 63
47 48 65 64
48 49 66 65
49 50 67 66
50 51 68 67
52 53 70 69
53 54 71 70
54 55 72 71
55 56 73 72
56 57 74 73
57 58 75 74
58 59 76 75
59 60 77 76
60 61 78 77
61 62 79 78
62 63 80 79
63 64 81 80
64 65 82 81
65 66 83 82
66 67 84 83
67 68 85 84
69 70 87 86
70 71 88 87
71 72 89 88
72 73 90 89
73 74 91 90
74 75 92 91
75 76 93 92
76 77 94 93
77 78 95 94
78 79 96 95
79 80 97 96
80 81 98 97
81 82 99 98
82 83 100 99
83 84 101 100
84 85 102 101
86 87 104 103
87 88 105 104
88 89 106 105
89 90 107 106
90 91 108 107
91 92 109 108
92 93 110 109
93 94 111 110
94 95 112 111
95 96 113 112
96 97 114 113
97 98 115 114
98 99 116 115
99 100 117 116
100 101 118 117
101 102 119 118
103 104 121 120
104 105 122 121
105 106 123 122
106 107 124 123
107 108 125 124
108 109 126 125
109 110 127 126
110 111 128 127
111 112 129 128
112 113 130 129
113 114 131 130
114 115 132 131
115 116 133 132
116 117 134 133
117 118 135 134
118 119 136 135
120 121 138 137
121 122 139 138
122 123 140 139
123 124 141 140
124 125 142 141
125 126 143 142
126 127 144 143
127 128 145 144
128 129 146 145
129 130 147 146
130 131 148 147
131 132 149 148
132 133 150 149
133 134 151 150
134 135 152 151
135 136 153 152
