TITLE = "Solution"
VARIABLES = x, y, u, v, psiu, psiv, t, stress
ZONE T="structure" N=153 E=128 F=FEBLOCK ET=QUADRILATERAL VARLOCATION=([7,8]=cellcentered)
0.000000e+00
1.250000e+01
2.500000e+01
3.750000e+01
5.000000e+01
6.250000e+01
7.500000e+01
8.750000e+01
1.000000e+02
1.125000e+02
1.250000e+02
1.375000e+02
1.500000e+02
1.625000e+02
1.750000e+02
1.875000e+02
2.000000e+02
0.000000e+00
1.250000e+01
2.500000e+01
3.750000e+01
5.000000e+01
6.250000e+01
7.500000e+01
8.750000e+01
1.000000e+02
1.125000e+02
1.250000e+02
1.375000e+02
1.500000e+02
1.625000e+02
1.750000e+02
1.875000e+02
2.000000e+02
0.000000e+00
1.250000e+01
2.500000e+01
3.750000e+01
5.000000e+01
6.250000e+01
7.500000e+01
8.750000e+01
1.000000e+02
1.125000e+02
1.250000e+02
1.375000e+02
1.500000e+02
1.625000e+02
1.750000e+02
1.875000e+02
2.000000e+02
0.000000e+00
1.250000e+01
2.500000e+01
3.750000e+01
5.000000e+01
6.250000e+01
7.500000e+01
8.750000e+01
1.000000e+02
1.125000e+02
1.250000e+02
1.375000e+02
1.500000e+02
1.625000e+02
1.750000e+02
1.875000e+02
2.000000e+02
0.000000e+00
1.250000e+01
2.500000e+01
3.750000e+01
5.000000e+01
6.250000e+01
7.500000e+01
8.750000e+01
1.000000e+02
1.125000e+02
1.250000e+02
1.375000e+02
1.500000e+02
1.625000e+02
1.750000e+02
1.875000e+02
2.000000e+02
0.000000e+00
1.250000e+01
2.500000e+01
3.750000e+01
5.000000e+01
6.250000e+01
7.500000e+01
8.750000e+01
1.000000e+02
1.125000e+02
1.250000e+02
1.375000e+02
1.500000e+02
1.625000e+02
1.750000e+02
1.875000e+02
2.000000e+02
0.000000e+00
1.250000e+01
2.500000e+01
3.750000e+01
5.000000e+01
6.250000e+01
7.500000e+01
8.750000e+01
1.000000e+02
1.125000e+02
1.250000e+02
1.375000e+02
1.500000e+02
1.625000e+02
1.750000e+02
1.875000e+02
2.000000e+02
0.000000e+00
1.250000e+01
2.500000e+01
3.750000e+01
5.000000e+01
6.250000e+01
7.500000e+01
8.750000e+01
1.000000e+02
1.125000e+02
1.250000e+02
1.375000e+02
1.500000e+02
1.625000e+02
1.750000e+02
1.875000e+02
2.000000e+02
0.000000e+00
1.250000e+01
2.500000e+01
3.750000e+01
5.000000e+01
6.250000e+01
7.500000e+01
8.750000e+01
1.000000e+02
1.125000e+02
1.250000e+02
1.375000e+02
1.500000e+02
1.625000e+02
1.750000e+02
1.875000e+02
2.000000e+02
0.000000e+00
0.000000e+00
0.000000e+00
0.000000e+00
0.000000e+00
0.000000e+00
0.000000e+00
0.000000e+00
0.000000e+00
0.000000e+00
0.000000e+00
0.000000e+00
0.000000e+00
0.000000e+00
0.000000e+00
0.000000e+00
0.000000e+00
1.250000e+01
1.250000e+01
1.250000e+01
1.250000e+01
1.250000e+01
1.250000e+01
1.250000e+01
1.250000e+01
1.250000e+01
1.250000e+01
1.250000e+01
1.250000e+01
1.250000e+01
1.250000e+01
1.250000e+01
1.250000e+01
1.250000e+01
2.500000e+01
2.500000e+01
2.500000e+01
2.500000e+01
2.500000e+01
2.500000e+01
2.500000e+01
2.500000e+01
2.500000e+01
2.500000e+01
2.500000e+01
2.500000e+01
2.500000e+01
2.500000e+01
2.500000e+01
2.500000e+01
2.500000e+01
3.750000e+01
3.750000e+01
3.750000e+01
3.750000e+01
3.750000e+01
3.750000e+01
3.750000e+01
3.750000e+01
3.750000e+01
3.750000e+01
3.750000e+01
3.750000e+01
3.750000e+01
3.750000e+01
3.750000e+01
3.750000e+01
3.750000e+01
5.000000e+01
5.000000e+01
5.000000e+01
5.000000e+01
5.000000e+01
5.000000e+01
5.000000e+01
5.000000e+01
5.000000e+01
5.000000e+01
5.000000e+01
5.000000e+01
5.000000e+01
5.000000e+01
5.000000e+01
5.000000e+01
5.000000e+01
6.250000e+01
6.250000e+01
6.250000e+01
6.250000e+01
6.250000e+01
6.250000e+01
6.250000e+01
6.250000e+01
6.250000e+01
6.250000e+01
6.250000e+01
6.250000e+01
6.250000e+01
6.250000e+01
6.250000e+01
6.250000e+01
6.250000e+01
7.500000e+01
7.500000e+01
7.500000e+01
7.500000e+01
7.500000e+01
7.500000e+01
7.500000e+01
7.500000e+01
7.500000e+01
7.500000e+01
7.500000e+01
7.500000e+01
7.500000e+01
7.500000e+01
7.500000e+01
7.500000e+01
7.500000e+01
8.750000e+01
8.750000e+01
8.750000e+01
8.750000e+01
8.750000e+01
8.750000e+01
8.750000e+01
8.750000e+01
8.750000e+01
8.750000e+01
8.750000e+01
8.750000e+01
8.750000e+01
8.750000e+01
8.750000e+01
8.750000e+01
8.750000e+01
1.000000e+02
1.000000e+02
1.000000e+02
1.000000e+02
1.000000e+02
1.000000e+02
1.000000e+02
1.000000e+02
1.000000e+02
1.000000e+02
1.000000e+02
1.000000e+02
1.000000e+02
1.000000e+02
1.000000e+02
1.000000e+02
1.000000e+02
0.000000e+00
-8.137632e-01
-1.482282e+00
-2.127665e+00
-2.783197e+00
-3.428956e+00
-4.063543e+00
-4.687510e+00
-5.293664e+00
-5.871390e+00
-6.411864e+00
-6.912462e+00
-7.381057e+00
-7.839888e+00
-8.327808e+00
-8.891047e+00
-9.297780e+00
0.000000e+00
-4.571442e-01
-9.518641e-01
-1.436195e+00
-1.927832e+00
-2.411824e+00
-2.886642e+00
-3.353125e+00
-3.806141e+00
-4.237088e+00
-4.637152e+00
-4.999283e+00
-5.318157e+00
-5.584233e+00
-5.768059e+00
-5.808584e+00
-5.938750e+00
0.000000e+00
-2.646653e-01
-5.545220e-01
-8.722599e-01
-1.199806e+00
-1.524316e+00
-1.843342e+00
-2.155028e+00
-2.454441e+00
-2.734285e+00
-2.985747e+00
-3.198715e+00
-3.360607e+00
-3.453808e+00
-3.460449e+00
-3.429400e+00
-3.564373e+00
0.000000e+00
-1.205554e-01
-2.562622e-01
-4.100535e-01
-5.728832e-01
-7.361371e-01
-8.966705e-01
-1.051525e+00
-1.196645e+00
-1.326487e+00
-1.433880e+00
-1.510202e+00
-1.546390e+00
-1.537590e+00
-1.501851e+00
-1.509641e+00
-1.613891e+00
0.000000e+00
-4.542864e-04
-9.661606e-04
-1.454917e-03
-1.764306e-03
-1.580653e-03
-2.979923e-04
3.187903e-03
1.074087e-02
2.519995e-02
5.032225e-02
8.994846e-02
1.453106e-01
2.085243e-01
2.533119e-01
2.443167e-01
1.728942e-01
0.000000e+00
1.197938e-01
2.546213e-01
4.075269e-01
5.696912e-01
7.329980e-01
8.952589e-01
1.055250e+00
1.211829e+00
1.363926e+00
1.510477e+00
1.649704e+00
1.776865e+00
1.880589e+00
1.942693e+00
1.948978e+00
1.912043e+00
0.000000e+00
2.642960e-01
5.536748e-01
8.708310e-01
1.197733e+00
1.521706e+00
1.840656e+00
2.153281e+00
2.455395e+00
2.740744e+00
3.002175e+00
3.232346e+00
3.423511e+00
3.566842e+00
3.653625e+00
3.682138e+00
3.673577e+00
0.000000e+00
4.572546e-01
9.520237e-01
1.436331e+00
1.927778e+00
2.411274e+00
2.885082e+00
3.349332e+00
3.796967e+00
4.215659e+00
4.591077e+00
4.909684e+00
5.161049e+00
5.339647e+00
5.446793e+00
5.492585e+00
5.501036e+00
0.000000e+00
8.141274e-01
1.483247e+00
2.129423e+00
2.785902e+00
3.432665e+00
4.068080e+00
4.691482e+00
5.292004e+00
5.851310e+00
6.347658e+00
6.759594e+00
7.069846e+00
7.269966e+00
7.366946e+00
7.390676e+00
7.390091e+00
0.000000e+00
-4.990372e-01
-1.017673e+00
-1.704411e+00
-2.553097e+00
-3.565022e+00
-4.742248e+00
-6.082697e+00
-7.579992e+00
-9.224853e+00
-1.100615e+01
-1.291354e+01
-1.494270e+01
-1.710566e+01
-1.946664e+01
-2.223053e+01
-2.635752e+01
0.000000e+00
-3.124375e-01
-8.525602e-01
-1.534000e+00
-2.382644e+00
-3.397392e+00
-4.577594e+00
-5.921955e+00
-7.425755e+00
-9.080176e+00
-1.087349e+01
-1.279400e+01
-1.483586e+01
-1.701149e+01
-1.937782e+01
-2.212830e+01
-2.556817e+01
0.000000e+00
-2.484718e-01
-7.412011e-01
-1.416626e+00
-2.262715e+00
-3.278596e+00
-4.461618e+00
-5.810329e+00
-7.320769e+00
-8.984872e+00
-1.079130e+01
-1.272852e+01
-1.479110e+01
-1.698970e+01
-1.936245e+01
-2.194866e+01
-2.442256e+01
0.000000e+00
-2.333742e-01
-6.925424e-01
-1.351202e+00
-2.193037e+00
-3.208726e+00
-4.394493e+00
-5.748096e+00
-7.265731e+00
-8.939990e+00
-1.076002e+01
-1.271392e+01
-1.479300e+01
-1.699500e+01
-1.931047e+01
-2.164802e+01
-2.374612e+01
0.000000e+00
-2.321058e-01
-6.801337e-01
-1.331738e+00
-2.170911e+00
-3.187071e+00
-4.375175e+00
-5.732935e+00
-7.256806e+00
-8.939735e+00
-1.077051e+01
-1.273469e+01
-1.481587e+01
-1.699241e+01
-1.921741e+01
-2.138651e+01
-2.332492e+01
0.000000e+00
-2.331631e-01
-6.924709e-01
-1.351669e+00
-2.194635e+00
-3.212416e+00
-4.401852e+00
-5.761620e+00
-7.288907e+00
-8.976678e+00
-1.081244e+01
-1.277781e+01
-1.484756e+01
-1.698499e+01
-1.913240e+01
-2.120289e+01
-2.308328e+01
0.000000e+00
-2.481189e-01
-7.410605e-01
-1.417337e+00
-2.265271e+00
-3.284611e+00
-4.473760e+00
-5.832849e+00
-7.359639e+00
-9.046776e+00
-1.088030e+01
-1.283837e+01
-1.488939e+01
-1.698937e+01
-1.908045e+01
-2.109668e+01
-2.297553e+01
0.000000e+00
-3.120822e-01
-8.524057e-01
-1.534779e+00
-2.385501e+00
-3.404201e+00
-4.591428e+00
-5.947652e+00
-7.470010e+00
-9.150322e+00
-1.097368e+01
-1.291671e+01
-1.494551e+01
-1.701416e+01
-1.906721e+01
-2.105245e+01
-2.295039e+01
0.000000e+00
-4.988002e-01
-1.017639e+00
-1.705341e+00
-2.556143e+00
-3.572077e+00
-4.756341e+00
-6.108319e+00
-7.622868e+00
-9.290424e+00
-1.109555e+01
-1.301504e+01
-1.501580e+01
-1.705391e+01
-1.907815e+01
-2.104430e+01
-2.295091e+01


0.000000e+00
9.039947e-06
1.790920e-05
2.618123e-05
3.450700e-05
4.247686e-05
4.959362e-05
5.562766e-05
6.045859e-05
6.406764e-05
6.659182e-05
6.828505e-05
6.944236e-05
7.035739e-05
7.127850e-05
7.261093e-05
7.438113e-05
0.000000e+00
6.629397e-06
1.441321e-05
2.069895e-05
2.697938e-05
3.301587e-05
3.832351e-05
4.272266e-05
4.615766e-05
4.862695e-05
5.025110e-05
5.122963e-05
5.173600e-05
5.188301e-05
5.204451e-05
5.312268e-05
5.495848e-05
0.000000e+00
4.959449e-06
1.010075e-05
1.439994e-05
1.864395e-05
2.257851e-05
2.599891e-05
2.881064e-05
3.097715e-05
3.249818e-05
3.344610e-05
3.394096e-05
3.410923e-05
3.411537e-05
3.428447e-05
3.516914e-05
3.666102e-05
0.000000e+00
2.474667e-06
4.723463e-06
7.084366e-06
9.237568e-06
1.114980e-05
1.281265e-05
1.419385e-05
1.525803e-05
1.599953e-05
1.644667e-05
1.666261e-05
1.674902e-05
1.684601e-05
1.707574e-05
1.759031e-05
1.843577e-05
0.000000e+00
-5.316559e-09
-1.118575e-08
-1.746684e-08
-2.446824e-08
-3.349665e-08
-4.778786e-08
-7.241519e-08
-1.122122e-07
-1.680152e-07
-2.323364e-07
-2.839420e-07
-2.848292e-07
-1.995830e-07
-5.454676e-08
1.436415e-07
5.114538e-07
0.000000e+00
-2.484218e-06
-4.742954e-06
-7.115197e-06
-9.280838e-06
-1.120773e-05
-1.289117e-05
-1.430495e-05
-1.542017e-05
-1.623486e-05
-1.677380e-05
-1.708206e-05
-1.721474e-05
-1.723736e-05
-1.723216e-05
-1.721209e-05
-1.708185e-05
0.000000e+00
-4.964501e-06
-1.011309e-05
-1.442165e-05
-1.867813e-05
-2.262782e-05
-2.606179e-05
-2.887614e-05
-3.102798e-05
-3.252519e-05
-3.346367e-05
-3.399367e-05
-3.426613e-05
-3.440516e-05
-3.449280e-05
-3.453879e-05
-3.450756e-05
0.000000e+00
-6.630290e-06
-1.441789e-05
-2.070885e-05
-2.699933e-05
-3.305138e-05
-3.837074e-05
-4.275273e-05
-4.611739e-05
-4.846865e-05
-4.996623e-05
-5.085904e-05
-5.137449e-05
-5.167253e-05
-5.184639e-05
-5.193197e-05
-5.194536e-05
0.000000e+00
-9.043033e-06
-1.791125e-05
-2.618149e-05
-3.450782e-05
-4.248144e-05
-4.959566e-05
-5.559511e-05
-6.033200e-05
-6.378686e-05
-6.612403e-05
-6.761718e-05
-6.853188e-05
-6.906731e-05
-6.934975e-05
-6.945779e-05
-6.947590e-05
0.000000e+00
7.954157e-06
1.370731e-05
2.054822e-05
2.950700e-05
4.020649e-05
5.248736e-05
6.621856e-05
8.113771e-05
9.697199e-05
1.135135e-04
1.306059e-04
1.481658e-04
1.663711e-04
1.862691e-04
2.086435e-04
2.316453e-04
0.000000e+00
4.094124e-06
1.000973e-05
1.686965e-05
2.582079e-05
3.678603e-05
4.954359e-05
6.382650e-05
7.932501e-05
9.570669e-05
1.126976e-04
1.301149e-04
1.478828e-04
1.660985e-04
1.851841e-04
2.063253e-04
2.286263e-04
0.000000e+00
1.784484e-06
7.061579e-06
1.417265e-05
2.318702e-05
3.436879e-05
4.747103e-05
6.215042e-05
7.805676e-05
9.482947e-05
1.121547e-04
1.298275e-04
1.477564e-04
1.658746e-04
1.840919e-04
2.038518e-04
2.250712e-04
0.000000e+00
1.021151e-06
5.723219e-06
1.286151e-05
2.203851e-05
3.333839e-05
4.656425e-05
6.139345e-05
7.746504e-05
9.440867e-05
1.118958e-04
1.296948e-04
1.476621e-04
1.656409e-04
1.834752e-04
2.022355e-04
2.221523e-04
0.000000e+00
8.739400e-07
5.354124e-06
1.242765e-05
2.170010e-05
3.304287e-05
4.630074e-05
6.117286e-05
7.729712e-05
9.429663e-05
1.118344e-04
1.296580e-04
1.475935e-04
1.654919e-04
1.832815e-04
2.015207e-04
2.202724e-04
0.000000e+00
1.022142e-06
5.722745e-06
1.285769e-05
2.203060e-05
3.333001e-05
4.656502e-05
6.141599e-05
7.751762e-05
9.448876e-05
1.119860e-04
1.297542e-04
1.476230e-04
1.654767e-04
1.832946e-04
2.012668e-04
2.192834e-04
0.000000e+00
1.785848e-06
7.060971e-06
1.416725e-05
2.317554e-05
3.435756e-05
4.747671e-05
6.219545e-05
7.815683e-05
9.498248e-05
1.123355e-04
1.299748e-04
1.477443e-04
1.655465e-04
1.833443e-04
2.011579e-04
2.188502e-04
0.000000e+00
4.096659e-06
1.001189e-05
1.686856e-05
2.581617e-05
3.678421e-05
4.955913e-05
6.387871e-05
7.942957e-05
9.586731e-05
1.128987e-04
1.303041e-04
1.479229e-04
1.656419e-04
1.833891e-04
2.011096e-04
2.187124e-04
0.000000e+00
7.959033e-06
1.371292e-05
2.055329e-05
2.951291e-05
4.021790e-05
5.250990e-05
6.625677e-05
8.119827e-05
9.706571e-05
1.136425e-04
1.307334e-04
1.481556e-04
1.657605e-04
1.834400e-04
2.011059e-04
2.186926e-04


2.146545e+00
2.110647e+00
2.249392e+00
2.476933e+00
2.668960e+00
2.900219e+00
3.177884e+00
3.464581e+00
3.727661e+00
3.944653e+00
4.103645e+00
4.202533e+00
4.228393e+00
4.115164e+00
3.872242e+00
3.683617e+00
2.671484e+00
2.633888e+00
2.725770e+00
2.891096e+00
3.033252e+00
3.209143e+00
3.423763e+00
3.647089e+00
3.853717e+00
4.025257e+00
4.150979e+00
4.227608e+00
4.239618e+00
4.119046e+00
3.880558e+00
3.697634e+00
3.471990e+00
3.441115e+00
3.477954e+00
3.552078e+00
3.617281e+00
3.707053e+00
3.819408e+00
3.938691e+00
4.051704e+00
4.147276e+00
4.217623e+00
4.259154e+00
4.258099e+00
4.159555e+00
3.972162e+00
3.833500e+00
3.991465e+00
3.970639e+00
3.972557e+00
3.986288e+00
4.006265e+00
4.038795e+00
4.081234e+00
4.128662e+00
4.176210e+00
4.218228e+00
4.250091e+00
4.269556e+00
4.268948e+00
4.217848e+00
4.118482e+00
4.044924e+00
3.991454e+00
3.970563e+00
3.972314e+00
3.985695e+00
4.005067e+00
4.036717e+00
4.078004e+00
4.123930e+00
4.169602e+00
4.209753e+00
4.240823e+00
4.262538e+00
4.273433e+00
4.262670e+00
4.230174e+00
4.204870e+00
3.471722e+00
3.440630e+00
3.476969e+00
3.550195e+00
3.614133e+00
3.702603e+00
3.813823e+00
3.931682e+00
4.042124e+00
4.134128e+00
4.202254e+00
4.248335e+00
4.277382e+00
4.290942e+00
4.291898e+00
4.289535e+00
2.670605e+00
2.632638e+00
2.723795e+00
2.888085e+00
3.029420e+00
3.205858e+00
3.423025e+00
3.649736e+00
3.858008e+00
4.028008e+00
4.151146e+00
4.231438e+00
4.279982e+00
4.307207e+00
4.320674e+00
4.325849e+00
2.145156e+00
2.108815e+00
2.246779e+00
2.473422e+00
2.665370e+00
2.899147e+00
3.182868e+00
3.477478e+00
3.746493e+00
3.964697e+00
4.121649e+00
4.222690e+00
4.282249e+00
4.315057e+00
4.331616e+00
4.338491e+00


-4.237650e-01
-1.913492e-01
-1.185754e-01
-1.536999e-01
-1.206567e-01
-8.223915e-02
-4.673865e-02
1.145675e-02
1.029535e-01
2.205194e-01
3.462041e-01
4.592253e-01
5.464278e-01
6.083979e-01
6.737589e-01
-3.343640e-01
5.164912e-01
4.029436e-01
3.826379e-01
3.553086e-01
3.651383e-01
3.797694e-01
3.953477e-01
4.259893e-01
4.800396e-01
5.577014e-01
6.532038e-01
7.575850e-01
8.601391e-01
9.344894e-01
8.052521e-01
-9.976645e-01
8.330661e-01
7.488927e-01
6.834351e-01
6.540475e-01
6.470630e-01
6.455265e-01
6.477836e-01
6.585100e-01
6.819808e-01
7.194410e-01
7.665387e-01
8.097291e-01
8.203423e-01
7.415597e-01
4.727674e-01
-4.264543e-03
9.417326e-01
8.753089e-01
8.184304e-01
7.871033e-01
7.732757e-01
7.649024e-01
7.571187e-01
7.493318e-01
7.427373e-01
7.374607e-01
7.292234e-01
7.066644e-01
6.534029e-01
5.686356e-01
5.113047e-01
5.058697e-01
9.421590e-01
8.758586e-01
8.189523e-01
7.871130e-01
7.718819e-01
7.605555e-01
7.471368e-01
7.295111e-01
7.074261e-01
6.808723e-01
6.492831e-01
6.132483e-01
5.821837e-01
5.871475e-01
6.637232e-01
7.909277e-01
8.340337e-01
7.501814e-01
6.847628e-01
6.545383e-01
6.449953e-01
6.377599e-01
6.288139e-01
6.196966e-01
6.115343e-01
6.044783e-01
5.996702e-01
6.036113e-01
6.325378e-01
7.052513e-01
8.179199e-01
9.343099e-01
5.171379e-01
4.038640e-01
3.836540e-01
3.562044e-01
3.650891e-01
3.770531e-01
3.872651e-01
4.091026e-01
4.501264e-01
5.092624e-01
5.803144e-01
6.581878e-01
7.439234e-01
8.396663e-01
9.309808e-01
9.885461e-01
-4.244794e-01
-1.925986e-01
-1.200471e-01
-1.552407e-01
-1.218902e-01
-8.259691e-02
-4.317137e-02
2.791802e-02
1.487304e-01
3.162516e-01
5.094642e-01
6.968508e-01
8.478715e-01
9.445458e-01
9.891456e-01
9.997763e-01
1 2 19 18
2 3 20 19
3 4 21 20
4 5 22 21
5 6 23 22
6 7 24 23
7 8 25 24
8 9 26 25
9 10 27 26
10 11 28 27
11 12 29 28
12 13 30 29
13 14 31 30
14 15 32 31
15 16 33 32
16 17 34 33
18 19 36 35
19 20 37 36
20 21 38 37
21 22 39 38
22 23 40 39
23 24 41 40
24 25 42 41
25 26 43 42
26 27 44 43
27 28 45 44
28 29 46 45
29 30 47 46
30 31 48 47
31 32 49 48
32 33 50 49
33 34 51 50
35 36 53 52
36 37 54 53
37 38 55 54
38 39 56 55
39 40 57 56
40 41 58 57
41 42 59 58
42 43 60 59
43 44 61 60
44 45 62 61
45 46 63 62
46 47 64 63
47 48 65 64
48 49 66 65
49 50 67 66
50 51 68 67
52 53 70 69
53 54 71 70
54 55 72 71
55 56 73 72
56 57 74 73
57 58 75 74
58 59 76 75
59 60 77 76
60 61 78 77
61 62 79 78
62 63 80 79
63 64 81 80
64 65 82 81
65 66 83 82
66 67 84 83
67 68 85 84
69 70 87 86
70 71 88 87
71 72 89 88
72 73 90 89
73 74 91 90
74 75 92 91
75 76 93 92
76 77 94 93
77 78 95 94
78 79 96 95
79 80 97 96
80 81 98 97
81 82 99 98
82 83 100 99
83 84 101 100
84 85 102 101
86 87 104 103
87 88 105 104
88 89 106 105
89 90 107 106
90 91 108 107
91 92 109 108
92 93 110 109
93 94 111 110
94 95 112 111
95 96 113 112
96 97 114 113
97 98 115 114
98 99 116 115
99 100 117 116
100 101 118 117
101 102 119 118
103 104 121 120
104 105 122 121
105 106 123 122
106 107 124 123
107 108 125 124
108 109 126 125
109 110 127 126
110 111 128 127
111 112 129 128
112 113 130 129
113 114 131 130
114 115 132 131
115 116 133 132
116 117 134 133
117 118 135 134
118 119 136 135
120 121 138 137
121 122 139 138
122 123 140 139
123 124 141 140
124 125 142 141
125 126 143 142
126 127 144 143
127 128 145 144
128 129 146 145
129 130 147 146
130 131 148 147
131 132 149 148
132 133 150 149
133 134 151 150
134 135 152 151
135 136 153 152
