TITLE = "Solution"
VARIABLES = x, y, u, v, psiu, psiv, t, stress
ZONE T="structure" N=153 E=128 F=FEBLOCK ET=QUADRILATERAL VARLOCATION=([7,8]=cellcentered)
0.000000e+00
1.250000e+01
2.500000e+01
3.750000e+01
5.000000e+01
6.250000e+01
7.500000e+01
8.750000e+01
1.000000e+02
1.125000e+02
1.250000e+02
1.375000e+02
1.500000e+02
1.625000e+02
1.750000e+02
1.875000e+02
2.000000e+02
0.000000e+00
1.250000e+01
2.500000e+01
3.750000e+01
5.000000e+01
6.250000e+01
7.500000e+01
8.750000e+01
1.000000e+02
1.125000e+02
1.250000e+02
1.375000e+02
1.500000e+02
1.625000e+02
1.750000e+02
1.875000e+02
2.000000e+02
0.000000e+00
1.250000e+01
2.500000e+01
3.750000e+01
5.000000e+01
6.250000e+01
7.500000e+01
8.750000e+01
1.000000e+02
1.125000e+02
1.250000e+02
1.375000e+02
1.500000e+02
1.625000e+02
1.750000e+02
1.875000e+02
2.000000e+02
0.000000e+00
1.250000e+01
2.500000e+01
3.750000e+01
5.000000e+01
6.250000e+01
7.500000e+01
8.750000e+01
1.000000e+02
1.125000e+02
1.250000e+02
1.375000e+02
1.500000e+02
1.625000e+02
1.750000e+02
1.875000e+02
2.000000e+02
0.000000e+00
1.250000e+01
2.500000e+01
3.750000e+01
5.000000e+01
6.250000e+01
7.500000e+01
8.750000e+01
1.000000e+02
1.125000e+02
1.250000e+02
1.375000e+02
1.500000e+02
1.625000e+02
1.750000e+02
1.875000e+02
2.000000e+02
0.000000e+00
1.250000e+01
2.500000e+01
3.750000e+01
5.000000e+01
6.250000e+01
7.500000e+01
8.750000e+01
1.000000e+02
1.125000e+02
1.250000e+02
1.375000e+02
1.500000e+02
1.625000e+02
1.750000e+02
1.875000e+02
2.000000e+02
0.000000e+00
1.250000e+01
2.500000e+01
3.750000e+01
5.000000e+01
6.250000e+01
7.500000e+01
8.750000e+01
1.000000e+02
1.125000e+02
1.250000e+02
1.375000e+02
1.500000e+02
1.625000e+02
1.750000e+02
1.875000e+02
2.000000e+02
0.000000e+00
1.250000e+01
2.500000e+01
3.750000e+01
5.000000e+01
6.250000e+01
7.500000e+01
8.750000e+01
1.000000e+02
1.125000e+02
1.250000e+02
1.375000e+02
1.500000e+02
1.625000e+02
1.750000e+02
1.875000e+02
2.000000e+02
0.000000e+00
1.250000e+01
2.500000e+01
3.750000e+01
5.000000e+01
6.250000e+01
7.500000e+01
8.750000e+01
1.000000e+02
1.125000e+02
1.250000e+02
1.375000e+02
1.500000e+02
1.625000e+02
1.750000e+02
1.875000e+02
2.000000e+02
0.000000e+00
0.000000e+00
0.000000e+00
0.000000e+00
0.000000e+00
0.000000e+00
0.000000e+00
0.000000e+00
0.000000e+00
0.000000e+00
0.000000e+00
0.000000e+00
0.000000e+00
0.000000e+00
0.000000e+00
0.000000e+00
0.000000e+00
1.250000e+01
1.250000e+01
1.250000e+01
1.250000e+01
1.250000e+01
1.250000e+01
1.250000e+01
1.250000e+01
1.250000e+01
1.250000e+01
1.250000e+01
1.250000e+01
1.250000e+01
1.250000e+01
1.250000e+01
1.250000e+01
1.250000e+01
2.500000e+01
2.500000e+01
2.500000e+01
2.500000e+01
2.500000e+01
2.500000e+01
2.500000e+01
2.500000e+01
2.500000e+01
2.500000e+01
2.500000e+01
2.500000e+01
2.500000e+01
2.500000e+01
2.500000e+01
2.500000e+01
2.500000e+01
3.750000e+01
3.750000e+01
3.750000e+01
3.750000e+01
3.750000e+01
3.750000e+01
3.750000e+01
3.750000e+01
3.750000e+01
3.750000e+01
3.750000e+01
3.750000e+01
3.750000e+01
3.750000e+01
3.750000e+01
3.750000e+01
3.750000e+01
5.000000e+01
5.000000e+01
5.000000e+01
5.000000e+01
5.000000e+01
5.000000e+01
5.000000e+01
5.000000e+01
5.000000e+01
5.000000e+01
5.000000e+01
5.000000e+01
5.000000e+01
5.000000e+01
5.000000e+01
5.000000e+01
5.000000e+01
6.250000e+01
6.250000e+01
6.250000e+01
6.250000e+01
6.250000e+01
6.250000e+01
6.250000e+01
6.250000e+01
6.250000e+01
6.250000e+01
6.250000e+01
6.250000e+01
6.250000e+01
6.250000e+01
6.250000e+01
6.250000e+01
6.250000e+01
7.500000e+01
7.500000e+01
7.500000e+01
7.500000e+01
7.500000e+01
7.500000e+01
7.500000e+01
7.500000e+01
7.500000e+01
7.500000e+01
7.500000e+01
7.500000e+01
7.500000e+01
7.500000e+01
7.500000e+01
7.500000e+01
7.500000e+01
8.750000e+01
8.750000e+01
8.750000e+01
8.750000e+01
8.750000e+01
8.750000e+01
8.750000e+01
8.750000e+01
8.750000e+01
8.750000e+01
8.750000e+01
8.750000e+01
8.750000e+01
8.750000e+01
8.750000e+01
8.750000e+01
8.750000e+01
1.000000e+02
1.000000e+02
1.000000e+02
1.000000e+02
1.000000e+02
1.000000e+02
1.000000e+02
1.000000e+02
1.000000e+02
1.000000e+02
1.000000e+02
1.000000e+02
1.000000e+02
1.000000e+02
1.000000e+02
1.000000e+02
1.000000e+02
0.000000e+00
-7.924723e-02
-1.459193e-01
-2.072662e-01
-2.643973e-01
-3.171921e-01
-3.655373e-01
-4.093954e-01
-4.488302e-01
-4.840234e-01
-5.153238e-01
-5.433432e-01
-5.691341e-01
-5.945145e-01
-6.226200e-01
-6.571371e-01
-6.830384e-01
0.000000e+00
-4.732505e-02
-9.830858e-02
-1.453886e-01
-1.887638e-01
-2.285990e-01
-2.649769e-01
-2.979462e-01
-3.275663e-01
-3.539285e-01
-3.771667e-01
-3.974482e-01
-4.149026e-01
-4.293501e-01
-4.395407e-01
-4.417743e-01
-4.497823e-01
0.000000e+00
-2.959574e-02
-6.085624e-02
-9.204321e-02
-1.211553e-01
-1.478842e-01
-1.722083e-01
-1.941551e-01
-2.137301e-01
-2.309005e-01
-2.455741e-01
-2.575457e-01
-2.663886e-01
-2.713249e-01
-2.714620e-01
-2.694900e-01
-2.776576e-01
0.000000e+00
-1.428473e-02
-2.940704e-02
-4.462484e-02
-5.917581e-02
-7.257814e-02
-8.472604e-02
-9.558412e-02
-1.050902e-01
-1.131207e-01
-1.194702e-01
-1.238391e-01
-1.258698e-01
-1.253954e-01
-1.234462e-01
-1.239793e-01
-1.300609e-01
0.000000e+00
-1.315890e-05
-2.991431e-05
-4.661470e-05
-5.547789e-05
-3.914998e-05
3.681433e-05
2.342229e-04
6.544797e-04
1.448632e-03
2.813741e-03
4.947774e-03
7.904221e-03
1.124515e-02
1.355297e-02
1.292001e-02
8.893451e-03
0.000000e+00
1.426449e-02
2.936003e-02
4.454965e-02
5.908229e-02
7.250208e-02
8.475555e-02
9.590263e-02
1.060400e-01
1.152852e-01
1.237590e-01
1.315242e-01
1.384459e-01
1.439964e-01
1.472614e-01
1.475204e-01
1.454766e-01
0.000000e+00
2.959242e-02
6.084611e-02
9.202306e-02
1.211238e-01
1.478450e-01
1.721758e-01
1.941657e-01
2.138602e-01
2.312943e-01
2.464833e-01
2.593899e-01
2.698658e-01
2.776111e-01
2.822599e-01
2.837694e-01
2.832928e-01
0.000000e+00
4.734446e-02
9.835079e-02
1.454559e-01
1.888540e-01
2.286956e-01
2.650311e-01
2.978471e-01
3.270935e-01
3.526860e-01
3.745031e-01
3.923940e-01
4.062156e-01
4.159222e-01
4.217123e-01
4.241815e-01
4.246350e-01
0.000000e+00
7.927970e-02
1.460049e-01
2.074266e-01
2.646536e-01
3.175526e-01
3.659673e-01
4.097569e-01
4.487752e-01
4.828191e-01
5.115937e-01
5.347152e-01
5.518039e-01
5.627254e-01
5.680072e-01
5.693109e-01
5.692857e-01
0.000000e+00
-4.797053e-02
-9.417172e-02
-1.540377e-01
-2.275108e-01
-3.144536e-01
-4.139138e-01
-5.247785e-01
-6.458686e-01
-7.760211e-01
-9.141613e-01
-1.059434e+00
-1.211489e+00
-1.371138e+00
-1.542523e+00
-1.738619e+00
-2.020373e+00
0.000000e+00
-2.953154e-02
-7.772696e-02
-1.383353e-01
-2.130092e-01
-3.011385e-01
-4.018037e-01
-5.138644e-01
-6.361282e-01
-7.674108e-01
-9.066080e-01
-1.052825e+00
-1.205658e+00
-1.365897e+00
-1.537215e+00
-1.732121e+00
-1.970901e+00
0.000000e+00
-2.228416e-02
-6.632663e-02
-1.271587e-01
-2.025386e-01
-2.915750e-01
-3.931655e-01
-5.061586e-01
-6.293701e-01
-7.616326e-01
-9.018630e-01
-1.049198e+00
-1.203270e+00
-1.364742e+00
-1.536207e+00
-1.720887e+00
-1.899618e+00
0.000000e+00
-1.920290e-02
-6.065844e-02
-1.205983e-01
-1.962507e-01
-2.858352e-01
-3.880590e-01
-5.017271e-01
-6.256774e-01
-7.587741e-01
-8.999577e-01
-1.048348e+00
-1.203404e+00
-1.365054e+00
-1.533089e+00
-1.702784e+00
-1.859112e+00
0.000000e+00
-1.831525e-02
-5.894298e-02
-1.185055e-01
-1.941785e-01
-2.839859e-01
-3.865037e-01
-5.005377e-01
-6.249480e-01
-7.586175e-01
-9.004628e-01
-1.049464e+00
-1.204659e+00
-1.364902e+00
-1.527794e+00
-1.687766e+00
-1.835140e+00
0.000000e+00
-1.919150e-02
-6.065033e-02
-1.206127e-01
-1.963217e-01
-2.860220e-01
-3.884586e-01
-5.024839e-01
-6.269822e-01
-7.608306e-01
-9.028761e-01
-1.051885e+00
-1.206415e+00
-1.364500e+00
-1.523103e+00
-1.677590e+00
-1.821818e+00
0.000000e+00
-2.226557e-02
-6.631319e-02
-1.271828e-01
-2.026581e-01
-2.918910e-01
-3.938429e-01
-5.074437e-01
-6.315886e-01
-7.651358e-01
-9.068542e-01
-1.055320e+00
-1.208745e+00
-1.364759e+00
-1.520288e+00
-1.671809e+00
-1.815942e+00
0.000000e+00
-2.951411e-02
-7.771526e-02
-1.383673e-01
-2.131527e-01
-3.015101e-01
-4.025923e-01
-5.153497e-01
-6.386767e-01
-7.714102e-01
-9.122691e-01
-1.059728e+00
-1.211846e+00
-1.366123e+00
-1.519583e+00
-1.669419e+00
-1.814562e+00
0.000000e+00
-4.796333e-02
-9.417273e-02
-1.540872e-01
-2.276771e-01
-3.148507e-01
-4.147208e-01
-5.262508e-01
-6.483232e-01
-7.797549e-01
-9.192335e-01
-1.065200e+00
-1.215700e+00
-1.368289e+00
-1.520182e+00
-1.668982e+00
-1.814584e+00


0.000000e+00
7.528419e-10
1.556826e-09
2.268894e-09
2.870173e-09
3.358599e-09
3.743097e-09
4.037965e-09
4.258419e-09
4.419107e-09
4.533482e-09
4.613668e-09
4.670762e-09
4.715071e-09
4.756294e-09
4.807206e-09
4.868349e-09
0.000000e+00
5.120645e-10
1.206589e-09
1.772343e-09
2.225997e-09
2.584411e-09
2.861028e-09
3.069532e-09
3.222605e-09
3.331560e-09
3.406220e-09
3.454730e-09
3.483245e-09
3.497276e-09
3.511502e-09
3.553135e-09
3.616091e-09
0.000000e+00
3.812066e-10
8.379937e-10
1.219654e-09
1.526269e-09
1.762974e-09
1.941128e-09
2.072051e-09
2.165403e-09
2.229176e-09
2.269934e-09
2.293052e-09
2.303341e-09
2.307327e-09
2.317356e-09
2.350022e-09
2.401004e-09
0.000000e+00
2.040469e-10
4.179808e-10
6.088843e-10
7.650256e-10
8.843741e-10
9.725045e-10
1.035769e-09
1.079436e-09
1.107707e-09
1.124101e-09
1.131956e-09
1.135147e-09
1.138653e-09
1.147484e-09
1.167337e-09
1.198711e-09
0.000000e+00
-2.221951e-13
-5.222193e-13
-9.395982e-13
-1.541037e-12
-2.416357e-12
-3.682528e-12
-5.473838e-12
-7.906058e-12
-1.098597e-11
-1.444274e-11
-1.748100e-11
-1.866482e-11
-1.658362e-11
-1.115385e-11
-1.583140e-12
1.476735e-11
0.000000e+00
-2.044281e-10
-4.188633e-10
-6.104676e-10
-7.675899e-10
-8.883237e-10
-9.784042e-10
-1.044377e-09
-1.091703e-09
-1.124691e-09
-1.146682e-09
-1.160197e-09
-1.167163e-09
-1.169473e-09
-1.169355e-09
-1.166989e-09
-1.160002e-09
0.000000e+00
-3.814017e-10
-8.385311e-10
-1.220651e-09
-1.527858e-09
-1.765300e-09
-1.944337e-09
-2.076293e-09
-2.170859e-09
-2.236159e-09
-2.279074e-09
-2.305521e-09
-2.320610e-09
-2.328695e-09
-2.333038e-09
-2.334522e-09
-2.332555e-09
0.000000e+00
-5.121323e-10
-1.206927e-09
-1.772942e-09
-2.226832e-09
-2.585395e-09
-2.861940e-09
-3.069977e-09
-3.222010e-09
-3.329285e-09
-3.401835e-09
-3.448537e-09
-3.477046e-09
-3.493603e-09
-3.502722e-09
-3.506874e-09
-3.507454e-09
0.000000e+00
-7.531704e-10
-1.557362e-09
-2.269490e-09
-2.870650e-09
-3.358636e-09
-3.742189e-09
-4.035367e-09
-4.253142e-09
-4.409926e-09
-4.518914e-09
-4.591732e-09
-4.638154e-09
-4.665896e-09
-4.680540e-09
-4.686145e-09
-4.687114e-09
0.000000e+00
6.841430e-10
1.229568e-09
1.801845e-09
2.488701e-09
3.297099e-09
4.210656e-09
5.208027e-09
6.268733e-09
7.375872e-09
8.516467e-09
9.681629e-09
1.086775e-08
1.208260e-08
1.335883e-08
1.471331e-08
1.608516e-08
0.000000e+00
3.679358e-10
9.009198e-10
1.511772e-09
2.250761e-09
3.109392e-09
4.067103e-09
5.101057e-09
6.191261e-09
7.321526e-09
8.479701e-09
9.657685e-09
1.085214e-08
1.206671e-08
1.331706e-08
1.463383e-08
1.598346e-08
0.000000e+00
1.815732e-10
6.429712e-10
1.285185e-09
2.066861e-09
2.966875e-09
3.959716e-09
5.022277e-09
6.135290e-09
7.283448e-09
8.455361e-09
9.643482e-09
1.084383e-08
1.205425e-08
1.327621e-08
1.454942e-08
1.586284e-08
0.000000e+00
1.034527e-10
5.212530e-10
1.166420e-09
1.970340e-09
2.893124e-09
3.905075e-09
4.982890e-09
6.107975e-09
7.265652e-09
8.444889e-09
9.637970e-09
1.083956e-08
1.204430e-08
1.325087e-08
1.448942e-08
1.575728e-08
0.000000e+00
8.362304e-11
4.880726e-10
1.130465e-09
1.940665e-09
2.870670e-09
3.888755e-09
4.971505e-09
6.100594e-09
7.261529e-09
8.443184e-09
9.637344e-09
1.083776e-08
1.203892e-08
1.323895e-08
1.445514e-08
1.568216e-08
0.000000e+00
1.035928e-10
5.214473e-10
1.166683e-09
1.970713e-09
2.893717e-09
3.906081e-09
4.984587e-09
6.110655e-09
7.269457e-09
8.449449e-09
9.641856e-09
1.084001e-08
1.203881e-08
1.323624e-08
1.443859e-08
1.563891e-08
0.000000e+00
1.817943e-10
6.433217e-10
1.285703e-09
2.067628e-09
2.968106e-09
3.961771e-09
5.025662e-09
6.140551e-09
7.290895e-09
8.464493e-09
9.651967e-09
1.084624e-08
1.204220e-08
1.323710e-08
1.443127e-08
1.561871e-08
0.000000e+00
3.682452e-10
9.014992e-10
1.512631e-09
2.252002e-09
3.111267e-09
4.070012e-09
5.105553e-09
6.197933e-09
7.330733e-09
8.490971e-09
9.668574e-09
1.085588e-08
1.204726e-08
1.323897e-08
1.442848e-08
1.561197e-08
0.000000e+00
6.846360e-10
1.230417e-09
1.803038e-09
2.490329e-09
3.299351e-09
4.213848e-09
5.212574e-09
6.275073e-09
7.384224e-09
8.526293e-09
9.690487e-09
1.086842e-08
1.205371e-08
1.324161e-08
1.442829e-08
1.561094e-08


2.315536e-01
2.315536e-01
2.315537e-01
2.315537e-01
2.315537e-01
2.315537e-01
2.315538e-01
2.315538e-01
2.315538e-01
2.315538e-01
2.315538e-01
2.315538e-01
2.315538e-01
2.315538e-01
2.315538e-01
2.315538e-01
2.315537e-01
2.315537e-01
2.315537e-01
2.315537e-01
2.315537e-01
2.315537e-01
2.315538e-01
2.315538e-01
2.315538e-01
2.315538e-01
2.315538e-01
2.315538e-01
2.315538e-01
2.315538e-01
2.315538e-01
2.315538e-01
2.315537e-01
2.315537e-01
2.315537e-01
2.315537e-01
2.315538e-01
2.315538e-01
2.315538e-01
2.315538e-01
2.315538e-01
2.315538e-01
2.315538e-01
2.315538e-01
2.315538e-01
2.315538e-01
2.315538e-01
2.315538e-01
2.315538e-01
2.315538e-01
2.315538e-01
2.315538e-01
2.315538e-01
2.315538e-01
2.315538e-01
2.315538e-01
2.315538e-01
2.315538e-01
2.315538e-01
2.315538e-01
2.315538e-01
2.315538e-01
2.315538e-01
2.315538e-01
2.315538e-01
2.315538e-01
2.315538e-01
2.315538e-01
2.315538e-01
2.315538e-01
2.315538e-01
2.315538e-01
2.315538e-01
2.315538e-01
2.315538e-01
2.315538e-01
2.315538e-01
2.315538e-01
2.315538e-01
2.315538e-01
2.315537e-01
2.315537e-01
2.315537e-01
2.315537e-01
2.315538e-01
2.315538e-01
2.315538e-01
2.315538e-01
2.315538e-01
2.315538e-01
2.315538e-01
2.315538e-01
2.315538e-01
2.315538e-01
2.315538e-01
2.315538e-01
2.315537e-01
2.315537e-01
2.315537e-01
2.315537e-01
2.315537e-01
2.315537e-01
2.315538e-01
2.315538e-01
2.315538e-01
2.315538e-01
2.315538e-01
2.315538e-01
2.315538e-01
2.315538e-01
2.315538e-01
2.315538e-01
2.315536e-01
2.315536e-01
2.315537e-01
2.315537e-01
2.315537e-01
2.315537e-01
2.315538e-01
2.315538e-01
2.315538e-01
2.315538e-01
2.315538e-01
2.315538e-01
2.315538e-01
2.315538e-01
2.315538e-01
2.315538e-01


9.858708e-01
9.878744e-01
9.897279e-01
9.911547e-01
9.924791e-01
9.937004e-01
9.948130e-01
9.958039e-01
9.966628e-01
9.973811e-01
9.979523e-01
9.983707e-01
9.986308e-01
9.987236e-01
9.987906e-01
9.946614e-01
9.946546e-01
9.937365e-01
9.943272e-01
9.950982e-01
9.958170e-01
9.964704e-01
9.970618e-01
9.975974e-01
9.980825e-01
9.985218e-01
9.989204e-01
9.992814e-01
9.995963e-01
9.998025e-01
9.992810e-01
9.922127e-01
9.981427e-01
9.976154e-01
9.974730e-01
9.976733e-01
9.979367e-01
9.981919e-01
9.984288e-01
9.986527e-01
9.988695e-01
9.990809e-01
9.992784e-01
9.994312e-01
9.994632e-01
9.991879e-01
9.981891e-01
9.963928e-01
9.996220e-01
9.992374e-01
9.989998e-01
9.989395e-01
9.989636e-01
9.990040e-01
9.990443e-01
9.990837e-01
9.991224e-01
9.991548e-01
9.991638e-01
9.991156e-01
9.989629e-01
9.986888e-01
9.984564e-01
9.983976e-01
9.996234e-01
9.992394e-01
9.990016e-01
9.989392e-01
9.989576e-01
9.989867e-01
9.990069e-01
9.990138e-01
9.990045e-01
9.989747e-01
9.989192e-01
9.988393e-01
9.987632e-01
9.987784e-01
9.989935e-01
9.993658e-01
9.981454e-01
9.976194e-01
9.974769e-01
9.976733e-01
9.979265e-01
9.981603e-01
9.983581e-01
9.985172e-01
9.986362e-01
9.987164e-01
9.987671e-01
9.988167e-01
9.989209e-01
9.991392e-01
9.994671e-01
9.998062e-01
9.946541e-01
9.937361e-01
9.943264e-01
9.950960e-01
9.958114e-01
9.964575e-01
9.970351e-01
9.975466e-01
9.979923e-01
9.983732e-01
9.986957e-01
9.989774e-01
9.992486e-01
9.995329e-01
9.997989e-01
9.999663e-01
9.858611e-01
9.878593e-01
9.897094e-01
9.911340e-01
9.924605e-01
9.936936e-01
9.948359e-01
9.958849e-01
9.968406e-01
9.977013e-01
9.984568e-01
9.990834e-01
9.995496e-01
9.998373e-01
9.999681e-01
9.999993e-01
1 2 19 18
2 3 20 19
3 4 21 20
4 5 22 21
5 6 23 22
6 7 24 23
7 8 25 24
8 9 26 25
9 10 27 26
10 11 28 27
11 12 29 28
12 13 30 29
13 14 31 30
14 15 32 31
15 16 33 32
16 17 34 33
18 19 36 35
19 20 37 36
20 21 38 37
21 22 39 38
22 23 40 39
23 24 41 40
24 25 42 41
25 26 43 42
26 27 44 43
27 28 45 44
28 29 46 45
29 30 47 46
30 31 48 47
31 32 49 48
32 33 50 49
33 34 51 50
35 36 53 52
36 37 54 53
37 38 55 54
38 39 56 55
39 40 57 56
40 41 58 57
41 42 59 58
42 43 60 59
43 44 61 60
44 45 62 61
45 46 63 62
46 47 64 63
47 48 65 64
48 49 66 65
49 50 67 66
50 51 68 67
52 53 70 69
53 54 71 70
54 55 72 71
55 56 73 72
56 57 74 73
57 58 75 74
58 59 76 75
59 60 77 76
60 61 78 77
61 62 79 78
62 63 80 79
63 64 81 80
64 65 82 81
65 66 83 82
66 67 84 83
67 68 85 84
69 70 87 86
70 71 88 87
71 72 89 88
72 73 90 89
73 74 91 90
74 75 92 91
75 76 93 92
76 77 94 93
77 78 95 94
78 79 96 95
79 80 97 96
80 81 98 97
81 82 99 98
82 83 100 99
83 84 101 100
84 85 102 101
86 87 104 103
87 88 105 104
88 89 106 105
89 90 107 106
90 91 108 107
91 92 109 108
92 93 110 109
93 94 111 110
94 95 112 111
95 96 113 112
96 97 114 113
97 98 115 114
98 99 116 115
99 100 117 116
100 101 118 117
101 102 119 118
103 104 121 120
104 105 122 121
105 106 123 122
106 107 124 123
107 108 125 124
108 109 126 125
109 110 127 126
110 111 128 127
111 112 129 128
112 113 130 129
113 114 131 130
114 115 132 131
115 116 133 132
116 117 134 133
117 118 135 134
118 119 136 135
120 121 138 137
121 122 139 138
122 123 140 139
123 124 141 140
124 125 142 141
125 126 143 142
126 127 144 143
127 128 145 144
128 129 146 145
129 130 147 146
130 131 148 147
131 132 149 148
132 133 150 149
133 134 151 150
134 135 152 151
135 136 153 152
