TITLE = "Solution"
VARIABLES = x, y, u, v, psiu, psiv, t, stress
ZONE T="structure" N=153 E=128 F=FEBLOCK ET=QUADRILATERAL VARLOCATION=([7,8]=cellcentered)
0.000000e+00
1.250000e+01
2.500000e+01
3.750000e+01
5.000000e+01
6.250000e+01
7.500000e+01
8.750000e+01
1.000000e+02
1.125000e+02
1.250000e+02
1.375000e+02
1.500000e+02
1.625000e+02
1.750000e+02
1.875000e+02
2.000000e+02
0.000000e+00
1.250000e+01
2.500000e+01
3.750000e+01
5.000000e+01
6.250000e+01
7.500000e+01
8.750000e+01
1.000000e+02
1.125000e+02
1.250000e+02
1.375000e+02
1.500000e+02
1.625000e+02
1.750000e+02
1.875000e+02
2.000000e+02
0.000000e+00
1.250000e+01
2.500000e+01
3.750000e+01
5.000000e+01
6.250000e+01
7.500000e+01
8.750000e+01
1.000000e+02
1.125000e+02
1.250000e+02
1.375000e+02
1.500000e+02
1.625000e+02
1.750000e+02
1.875000e+02
2.000000e+02
0.000000e+00
1.250000e+01
2.500000e+01
3.750000e+01
5.000000e+01
6.250000e+01
7.500000e+01
8.750000e+01
1.000000e+02
1.125000e+02
1.250000e+02
1.375000e+02
1.500000e+02
1.625000e+02
1.750000e+02
1.875000e+02
2.000000e+02
0.000000e+00
1.250000e+01
2.500000e+01
3.750000e+01
5.000000e+01
6.250000e+01
7.500000e+01
8.750000e+01
1.000000e+02
1.125000e+02
1.250000e+02
1.375000e+02
1.500000e+02
1.625000e+02
1.750000e+02
1.875000e+02
2.000000e+02
0.000000e+00
1.250000e+01
2.500000e+01
3.750000e+01
5.000000e+01
6.250000e+01
7.500000e+01
8.750000e+01
1.000000e+02
1.125000e+02
1.250000e+02
1.375000e+02
1.500000e+02
1.625000e+02
1.750000e+02
1.875000e+02
2.000000e+02
0.000000e+00
1.250000e+01
2.500000e+01
3.750000e+01
5.000000e+01
6.250000e+01
7.500000e+01
8.750000e+01
1.000000e+02
1.125000e+02
1.250000e+02
1.375000e+02
1.500000e+02
1.625000e+02
1.750000e+02
1.875000e+02
2.000000e+02
0.000000e+00
1.250000e+01
2.500000e+01
3.750000e+01
5.000000e+01
6.250000e+01
7.500000e+01
8.750000e+01
1.000000e+02
1.125000e+02
1.250000e+02
1.375000e+02
1.500000e+02
1.625000e+02
1.750000e+02
1.875000e+02
2.000000e+02
0.000000e+00
1.250000e+01
2.500000e+01
3.750000e+01
5.000000e+01
6.250000e+01
7.500000e+01
8.750000e+01
1.000000e+02
1.125000e+02
1.250000e+02
1.375000e+02
1.500000e+02
1.625000e+02
1.750000e+02
1.875000e+02
2.000000e+02
0.000000e+00
0.000000e+00
0.000000e+00
0.000000e+00
0.000000e+00
0.000000e+00
0.000000e+00
0.000000e+00
0.000000e+00
0.000000e+00
0.000000e+00
0.000000e+00
0.000000e+00
0.000000e+00
0.000000e+00
0.000000e+00
0.000000e+00
1.250000e+01
1.250000e+01
1.250000e+01
1.250000e+01
1.250000e+01
1.250000e+01
1.250000e+01
1.250000e+01
1.250000e+01
1.250000e+01
1.250000e+01
1.250000e+01
1.250000e+01
1.250000e+01
1.250000e+01
1.250000e+01
1.250000e+01
2.500000e+01
2.500000e+01
2.500000e+01
2.500000e+01
2.500000e+01
2.500000e+01
2.500000e+01
2.500000e+01
2.500000e+01
2.500000e+01
2.500000e+01
2.500000e+01
2.500000e+01
2.500000e+01
2.500000e+01
2.500000e+01
2.500000e+01
3.750000e+01
3.750000e+01
3.750000e+01
3.750000e+01
3.750000e+01
3.750000e+01
3.750000e+01
3.750000e+01
3.750000e+01
3.750000e+01
3.750000e+01
3.750000e+01
3.750000e+01
3.750000e+01
3.750000e+01
3.750000e+01
3.750000e+01
5.000000e+01
5.000000e+01
5.000000e+01
5.000000e+01
5.000000e+01
5.000000e+01
5.000000e+01
5.000000e+01
5.000000e+01
5.000000e+01
5.000000e+01
5.000000e+01
5.000000e+01
5.000000e+01
5.000000e+01
5.000000e+01
5.000000e+01
6.250000e+01
6.250000e+01
6.250000e+01
6.250000e+01
6.250000e+01
6.250000e+01
6.250000e+01
6.250000e+01
6.250000e+01
6.250000e+01
6.250000e+01
6.250000e+01
6.250000e+01
6.250000e+01
6.250000e+01
6.250000e+01
6.250000e+01
7.500000e+01
7.500000e+01
7.500000e+01
7.500000e+01
7.500000e+01
7.500000e+01
7.500000e+01
7.500000e+01
7.500000e+01
7.500000e+01
7.500000e+01
7.500000e+01
7.500000e+01
7.500000e+01
7.500000e+01
7.500000e+01
7.500000e+01
8.750000e+01
8.750000e+01
8.750000e+01
8.750000e+01
8.750000e+01
8.750000e+01
8.750000e+01
8.750000e+01
8.750000e+01
8.750000e+01
8.750000e+01
8.750000e+01
8.750000e+01
8.750000e+01
8.750000e+01
8.750000e+01
8.750000e+01
1.000000e+02
1.000000e+02
1.000000e+02
1.000000e+02
1.000000e+02
1.000000e+02
1.000000e+02
1.000000e+02
1.000000e+02
1.000000e+02
1.000000e+02
1.000000e+02
1.000000e+02
1.000000e+02
1.000000e+02
1.000000e+02
1.000000e+02
0.000000e+00
-8.408689e-01
-1.519858e+00
-2.180936e+00
-2.854928e+00
-3.513464e+00
-4.164933e+00
-4.815165e+00
-5.459635e+00
-6.092698e+00
-6.706352e+00
-7.292177e+00
-7.850091e+00
-8.395338e+00
-8.955629e+00
-9.565565e+00
-9.990872e+00
0.000000e+00
-4.595826e-01
-9.556508e-01
-1.447539e+00
-1.952132e+00
-2.445510e+00
-2.932644e+00
-3.418295e+00
-3.899042e+00
-4.369811e+00
-4.822516e+00
-5.245659e+00
-5.627102e+00
-5.949147e+00
-6.168691e+00
-6.217802e+00
-6.358817e+00
0.000000e+00
-2.545366e-01
-5.371877e-01
-8.561646e-01
-1.190200e+00
-1.521354e+00
-1.850476e+00
-2.177068e+00
-2.496937e+00
-2.804077e+00
-3.088897e+00
-3.337508e+00
-3.531772e+00
-3.647411e+00
-3.660590e+00
-3.628674e+00
-3.775521e+00
0.000000e+00
-1.120997e-01
-2.408903e-01
-3.930811e-01
-5.572141e-01
-7.241276e-01
-8.908200e-01
-1.054166e+00
-1.210138e+00
-1.352928e+00
-1.473961e+00
-1.561934e+00
-1.604399e+00
-1.593773e+00
-1.550549e+00
-1.557520e+00
-1.674936e+00
0.000000e+00
-5.950095e-04
-1.233248e-03
-1.804306e-03
-2.091342e-03
-1.693019e-03
1.114277e-04
4.588145e-03
1.389521e-02
3.142372e-02
6.180003e-02
1.099070e-01
1.776322e-01
2.558667e-01
3.127491e-01
3.050906e-01
2.217999e-01
0.000000e+00
1.110973e-01
2.387847e-01
3.899235e-01
5.533849e-01
7.206534e-01
8.898812e-01
1.059994e+00
1.230389e+00
1.400555e+00
1.569257e+00
1.733584e+00
1.886650e+00
2.013474e+00
2.090718e+00
2.100048e+00
2.056162e+00
0.000000e+00
2.540400e-01
5.360669e-01
8.543174e-01
1.187619e+00
1.518233e+00
1.847425e+00
2.175601e+00
2.499817e+00
2.815280e+00
3.113758e+00
3.383840e+00
3.612589e+00
3.786298e+00
3.892341e+00
3.927534e+00
3.917406e+00
0.000000e+00
4.597090e-01
9.557825e-01
1.447573e+00
1.951884e+00
2.444509e+00
2.930090e+00
3.413124e+00
3.888991e+00
4.348377e+00
4.775164e+00
5.148128e+00
5.448090e+00
5.663542e+00
5.793486e+00
5.849128e+00
5.859436e+00
0.000000e+00
8.413904e-01
1.521075e+00
2.183039e+00
2.858037e+00
3.517340e+00
4.168950e+00
4.818111e+00
5.457523e+00
6.072744e+00
6.638432e+00
7.121288e+00
7.491324e+00
7.732076e+00
7.849003e+00
7.877415e+00
7.876586e+00
0.000000e+00
-5.176314e-01
-1.068876e+00
-1.800101e+00
-2.697884e+00
-3.761670e+00
-4.996960e+00
-6.403745e+00
-7.979251e+00
-9.719304e+00
-1.161651e+01
-1.366214e+01
-1.585221e+01
-1.819757e+01
-2.076251e+01
-2.376103e+01
-2.820414e+01
0.000000e+00
-3.267292e-01
-9.019255e-01
-1.625671e+00
-2.523682e+00
-3.590428e+00
-4.826863e+00
-6.234861e+00
-7.813185e+00
-9.558286e+00
-1.146369e+01
-1.352058e+01
-1.572379e+01
-1.808594e+01
-2.066409e+01
-2.365477e+01
-2.736298e+01
0.000000e+00
-2.661898e-01
-7.913140e-01
-1.507742e+00
-2.401883e+00
-3.468827e+00
-4.706841e+00
-6.117449e+00
-7.700272e+00
-9.452846e+00
-1.136978e+01
-1.344312e+01
-1.566879e+01
-1.805871e+01
-2.064891e+01
-2.346597e+01
-2.614574e+01
0.000000e+00
-2.590070e-01
-7.475354e-01
-1.444761e+00
-2.332096e+00
-3.397325e+00
-4.637258e+00
-6.052015e+00
-7.641551e+00
-9.404271e+00
-1.133534e+01
-1.342654e+01
-1.567048e+01
-1.806460e+01
-2.059236e+01
-2.313831e+01
-2.540246e+01
0.000000e+00
-2.613217e-01
-7.382509e-01
-1.427118e+00
-2.310512e+00
-3.375633e+00
-4.617823e+00
-6.036857e+00
-7.633140e+00
-9.405571e+00
-1.134884e+01
-1.345181e+01
-1.569799e+01
-1.806202e+01
-2.048503e+01
-2.283886e+01
-2.491516e+01
0.000000e+00
-2.588203e-01
-7.476148e-01
-1.445628e+00
-2.334519e+00
-3.402435e+00
-4.646715e+00
-6.068453e+00
-7.668936e+00
-9.447359e+00
-1.139716e+01
-1.350241e+01
-1.573573e+01
-1.805334e+01
-2.038404e+01
-2.262097e+01
-2.462673e+01
0.000000e+00
-2.658689e-01
-7.914082e-01
-1.509077e+00
-2.405733e+00
-3.477073e+00
-4.722285e+00
-6.144558e+00
-7.745808e+00
-9.525037e+00
-1.147414e+01
-1.357274e+01
-1.578517e+01
-1.805839e+01
-2.032129e+01
-2.249282e+01
-2.449693e+01
0.000000e+00
-3.264097e-01
-9.020266e-01
-1.627133e+00
-2.527948e+00
-3.599636e+00
-4.844259e+00
-6.265608e+00
-7.864890e+00
-9.639891e+00
-1.158070e+01
-1.366433e+01
-1.585189e+01
-1.808805e+01
-2.030507e+01
-2.243913e+01
-2.446682e+01
0.000000e+00
-5.174565e-01
-1.069111e+00
-1.801735e+00
-2.702332e+00
-3.771026e+00
-5.014473e+00
-6.434455e+00
-8.029873e+00
-9.796339e+00
-1.172125e+01
-1.378042e+01
-1.593606e+01
-1.813595e+01
-2.031819e+01
-2.242918e+01
-2.446757e+01


0.000000e+00
1.087443e-05
2.091823e-05
3.064183e-05
4.119401e-05
5.155319e-05
6.109229e-05
6.987055e-05
7.771803e-05
8.419014e-05
8.902188e-05
9.233844e-05
9.457488e-05
9.630169e-05
9.794012e-05
1.001890e-04
1.030637e-04
0.000000e+00
8.008424e-06
1.688037e-05
2.420044e-05
3.227845e-05
4.022014e-05
4.734870e-05
5.382698e-05
5.959032e-05
6.420416e-05
6.742942e-05
6.939030e-05
7.035834e-05
7.056437e-05
7.074811e-05
7.256978e-05
7.567665e-05
0.000000e+00
6.077960e-06
1.206062e-05
1.710762e-05
2.256092e-05
2.774408e-05
3.238256e-05
3.654073e-05
4.013703e-05
4.292820e-05
4.479766e-05
4.581203e-05
4.614552e-05
4.610510e-05
4.632965e-05
4.792397e-05
5.064453e-05
0.000000e+00
3.046292e-06
5.656976e-06
8.544391e-06
1.124018e-05
1.372162e-05
1.599729e-05
1.801721e-05
1.969691e-05
2.097777e-05
2.182644e-05
2.227220e-05
2.245718e-05
2.263990e-05
2.307433e-05
2.408121e-05
2.570030e-05
0.000000e+00
-8.133913e-09
-1.697692e-08
-2.614986e-08
-3.590093e-08
-4.702167e-08
-6.266740e-08
-9.282741e-08
-1.536669e-07
-2.549045e-07
-3.836646e-07
-4.947699e-07
-5.072202e-07
-3.392300e-07
-4.884898e-08
3.284056e-07
1.023143e-06
0.000000e+00
-3.060581e-06
-5.685549e-06
-8.589085e-06
-1.130226e-05
-1.380074e-05
-1.609530e-05
-1.814882e-05
-1.989700e-05
-2.129626e-05
-2.231135e-05
-2.293595e-05
-2.321931e-05
-2.327084e-05
-2.326460e-05
-2.324541e-05
-2.302018e-05
0.000000e+00
-6.084119e-06
-1.207603e-05
-1.713693e-05
-2.260650e-05
-2.780428e-05
-3.245922e-05
-3.662562e-05
-4.018422e-05
-4.287641e-05
-4.464601e-05
-4.566579e-05
-4.618937e-05
-4.645369e-05
-4.662286e-05
-4.672063e-05
-4.667324e-05
0.000000e+00
-8.006828e-06
-1.688063e-05
-2.420746e-05
-3.229422e-05
-4.024349e-05
-4.739111e-05
-5.388031e-05
-5.954603e-05
-6.387292e-05
-6.670679e-05
-6.837149e-05
-6.930908e-05
-6.984534e-05
-7.016070e-05
-7.031816e-05
-7.034412e-05
0.000000e+00
-1.087342e-05
-2.090972e-05
-3.062543e-05
-4.116729e-05
-5.151248e-05
-6.104534e-05
-6.980854e-05
-7.753332e-05
-8.367495e-05
-8.801571e-05
-9.081106e-05
-9.250347e-05
-9.347512e-05
-9.397570e-05
-9.416137e-05
-9.419075e-05
0.000000e+00
9.457311e-06
1.612327e-05
2.447045e-05
3.558813e-05
4.875623e-05
6.414529e-05
8.186112e-05
1.014709e-04
1.224666e-04
1.445510e-04
1.675586e-04
1.914221e-04
2.164883e-04
2.446647e-04
2.772087e-04
3.105712e-04
0.000000e+00
4.969387e-06
1.194771e-05
2.000254e-05
3.083935e-05
4.425250e-05
6.005337e-05
7.815650e-05
9.830640e-05
1.200443e-04
1.429129e-04
1.665761e-04
1.908880e-04
2.160455e-04
2.427992e-04
2.732837e-04
3.055873e-04
0.000000e+00
2.199519e-06
8.487970e-06
1.671441e-05
2.741688e-05
4.102638e-05
5.716899e-05
7.560158e-05
9.614836e-05
1.184081e-04
1.418371e-04
1.659954e-04
1.906629e-04
2.156622e-04
2.407717e-04
2.687761e-04
2.993151e-04
0.000000e+00
1.263479e-06
6.844587e-06
1.514803e-05
2.599594e-05
3.968054e-05
5.594654e-05
7.454782e-05
9.526671e-05
1.177136e-04
1.413587e-04
1.657256e-04
1.904757e-04
2.152436e-04
2.395551e-04
2.656328e-04
2.939614e-04
0.000000e+00
1.073402e-06
6.370743e-06
1.461904e-05
2.559327e-05
3.929007e-05
5.558555e-05
7.425592e-05
9.504686e-05
1.175561e-04
1.412587e-04
1.656513e-04
1.903341e-04
2.149416e-04
2.392219e-04
2.643013e-04
2.904717e-04
0.000000e+00
1.264793e-06
6.842135e-06
1.513872e-05
2.597818e-05
3.965446e-05
5.592353e-05
7.456186e-05
9.535559e-05
1.178792e-04
1.415532e-04
1.658536e-04
1.903958e-04
2.148969e-04
2.392747e-04
2.638984e-04
2.886418e-04
0.000000e+00
2.201237e-06
8.484112e-06
1.670067e-05
2.739030e-05
4.098625e-05
5.713427e-05
7.563212e-05
9.631256e-05
1.187149e-04
1.422139e-04
1.662994e-04
1.906399e-04
2.150256e-04
2.393723e-04
2.637265e-04
2.878529e-04
0.000000e+00
4.971950e-06
1.194704e-05
1.999353e-05
3.081778e-05
4.421913e-05
6.002966e-05
7.819531e-05
9.846271e-05
1.203287e-04
1.432839e-04
1.669322e-04
1.909766e-04
2.151974e-04
2.394524e-04
2.636420e-04
2.876105e-04
0.000000e+00
9.460932e-06
1.612570e-05
2.446766e-05
3.557437e-05
4.873479e-05
6.413890e-05
8.189368e-05
1.015411e-04
1.225677e-04
1.447024e-04
1.677390e-04
1.914012e-04
2.154078e-04
2.395405e-04
2.636342e-04
2.875777e-04


2.215769e+00
2.149558e+00
2.289167e+00
2.505089e+00
2.670810e+00
2.922777e+00
3.250066e+00
3.621512e+00
4.029178e+00
4.431976e+00
4.769729e+00
5.001263e+00
5.081103e+00
4.863198e+00
4.348620e+00
3.934324e+00
3.024116e+00
2.956285e+00
3.038733e+00
3.183133e+00
3.295902e+00
3.478691e+00
3.721491e+00
3.999950e+00
4.310340e+00
4.621399e+00
4.883886e+00
5.061242e+00
5.104092e+00
4.858662e+00
4.340263e+00
3.926478e+00
4.190497e+00
4.142826e+00
4.166732e+00
4.217894e+00
4.257021e+00
4.340572e+00
4.454086e+00
4.587333e+00
4.742525e+00
4.903828e+00
5.042692e+00
5.135273e+00
5.141270e+00
4.933591e+00
4.518239e+00
4.201934e+00
4.906566e+00
4.878174e+00
4.870728e+00
4.865292e+00
4.868989e+00
4.890261e+00
4.920223e+00
4.958039e+00
5.007754e+00
5.064949e+00
5.118383e+00
5.157483e+00
5.159928e+00
5.053114e+00
4.834969e+00
4.668574e+00
4.906653e+00
4.878125e+00
4.870411e+00
4.864494e+00
4.867182e+00
4.886525e+00
4.913671e+00
4.948098e+00
4.993812e+00
5.046592e+00
5.097128e+00
5.139758e+00
5.166352e+00
5.147920e+00
5.079667e+00
5.024090e+00
4.190461e+00
4.142365e+00
4.165500e+00
4.215462e+00
4.252268e+00
4.332119e+00
4.441975e+00
4.572882e+00
4.725026e+00
4.879611e+00
5.010965e+00
5.108572e+00
5.175065e+00
5.209153e+00
5.214082e+00
5.209750e+00
3.023474e+00
2.954991e+00
3.036454e+00
3.179626e+00
3.290558e+00
3.472157e+00
3.718782e+00
4.008257e+00
4.330214e+00
4.642936e+00
4.896640e+00
5.072703e+00
5.182625e+00
5.245349e+00
5.276451e+00
5.288224e+00
2.214556e+00
2.147663e+00
2.286354e+00
2.501481e+00
2.666634e+00
2.920878e+00
3.259768e+00
3.654781e+00
4.087621e+00
4.500980e+00
4.830860e+00
5.054625e+00
5.189051e+00
5.263172e+00
5.300242e+00
5.315409e+00


-4.898782e-01
-2.178768e-01
-1.655953e-01
-2.176638e-01
-1.656951e-01
-1.405850e-01
-1.364802e-01
-1.167104e-01
-7.542142e-02
-2.946428e-03
1.048943e-01
2.295576e-01
3.505352e-01
4.737660e-01
6.116546e-01
-4.809430e-01
5.199981e-01
3.992477e-01
3.600404e-01
3.165895e-01
3.315578e-01
3.358926e-01
3.323989e-01
3.409147e-01
3.686146e-01
4.262116e-01
5.216709e-01
6.488478e-01
7.906273e-01
9.049479e-01
7.704291e-01
-1.236180e+00
8.319156e-01
7.318080e-01
6.463727e-01
6.051537e-01
5.949076e-01
5.862591e-01
5.797198e-01
5.810028e-01
5.941847e-01
6.249294e-01
6.740615e-01
7.264296e-01
7.413987e-01
6.448941e-01
3.357584e-01
-2.089146e-01
9.247980e-01
8.402602e-01
7.600228e-01
7.143075e-01
6.950871e-01
6.850129e-01
6.764925e-01
6.668135e-01
6.549829e-01
6.408296e-01
6.209748e-01
5.821933e-01
5.026110e-01
3.880212e-01
3.303015e-01
3.398652e-01
9.253204e-01
8.408993e-01
7.605569e-01
7.139999e-01
6.927316e-01
6.786711e-01
6.627710e-01
6.401124e-01
6.072353e-01
5.629592e-01
5.083042e-01
4.468371e-01
3.943363e-01
3.997146e-01
5.149353e-01
7.017260e-01
8.331214e-01
7.333406e-01
6.478161e-01
6.051792e-01
5.912458e-01
5.749796e-01
5.535684e-01
5.281506e-01
4.978821e-01
4.657494e-01
4.388926e-01
4.299825e-01
4.633193e-01
5.665591e-01
7.322798e-01
9.040185e-01
5.208130e-01
4.004173e-01
3.612678e-01
3.174372e-01
3.311652e-01
3.322733e-01
3.209424e-01
3.150420e-01
3.221579e-01
3.537548e-01
4.172145e-01
5.090120e-01
6.254270e-01
7.636815e-01
8.982183e-01
9.832274e-01
-4.909706e-01
-2.192541e-01
-1.671597e-01
-2.192341e-01
-1.660679e-01
-1.387456e-01
-1.314648e-01
-1.021198e-01
-2.943761e-02
1.123337e-01
3.257224e-01
5.678654e-01
7.788685e-01
9.187219e-01
9.840996e-01
9.996801e-01
1 2 19 18
2 3 20 19
3 4 21 20
4 5 22 21
5 6 23 22
6 7 24 23
7 8 25 24
8 9 26 25
9 10 27 26
10 11 28 27
11 12 29 28
12 13 30 29
13 14 31 30
14 15 32 31
15 16 33 32
16 17 34 33
18 19 36 35
19 20 37 36
20 21 38 37
21 22 39 38
22 23 40 39
23 24 41 40
24 25 42 41
25 26 43 42
26 27 44 43
27 28 45 44
28 29 46 45
29 30 47 46
30 31 48 47
31 32 49 48
32 33 50 49
33 34 51 50
35 36 53 52
36 37 54 53
37 38 55 54
38 39 56 55
39 40 57 56
40 41 58 57
41 42 59 58
42 43 60 59
43 44 61 60
44 45 62 61
45 46 63 62
46 47 64 63
47 48 65 64
48 49 66 65
49 50 67 66
50 51 68 67
52 53 70 69
53 54 71 70
54 55 72 71
55 56 73 72
56 57 74 73
57 58 75 74
58 59 76 75
59 60 77 76
60 61 78 77
61 62 79 78
62 63 80 79
63 64 81 80
64 65 82 81
65 66 83 82
66 67 84 83
67 68 85 84
69 70 87 86
70 71 88 87
71 72 89 88
72 73 90 89
73 74 91 90
74 75 92 91
75 76 93 92
76 77 94 93
77 78 95 94
78 79 96 95
79 80 97 96
80 81 98 97
81 82 99 98
82 83 100 99
83 84 101 100
84 85 102 101
86 87 104 103
87 88 105 104
88 89 106 105
89 90 107 106
90 91 108 107
91 92 109 108
92 93 110 109
93 94 111 110
94 95 112 111
95 96 113 112
96 97 114 113
97 98 115 114
98 99 116 115
99 100 117 116
100 101 118 117
101 102 119 118
103 104 121 120
104 105 122 121
105 106 123 122
106 107 124 123
107 108 125 124
108 109 126 125
109 110 127 126
110 111 128 127
111 112 129 128
112 113 130 129
113 114 131 130
114 115 132 131
115 116 133 132
116 117 134 133
117 118 135 134
118 119 136 135
120 121 138 137
121 122 139 138
122 123 140 139
123 124 141 140
124 125 142 141
125 126 143 142
126 127 144 143
127 128 145 144
128 129 146 145
129 130 147 146
130 131 148 147
131 132 149 148
132 133 150 149
133 134 151 150
134 135 152 151
135 136 153 152
