TITLE = "Solution"
VARIABLES = x, y, u, v, psiu, psiv, t, stress
ZONE T="structure" N=153 E=128 F=FEBLOCK ET=QUADRILATERAL VARLOCATION=([7,8]=cellcentered)
0.000000e+00
1.250000e+01
2.500000e+01
3.750000e+01
5.000000e+01
6.250000e+01
7.500000e+01
8.750000e+01
1.000000e+02
1.125000e+02
1.250000e+02
1.375000e+02
1.500000e+02
1.625000e+02
1.750000e+02
1.875000e+02
2.000000e+02
0.000000e+00
1.250000e+01
2.500000e+01
3.750000e+01
5.000000e+01
6.250000e+01
7.500000e+01
8.750000e+01
1.000000e+02
1.125000e+02
1.250000e+02
1.375000e+02
1.500000e+02
1.625000e+02
1.750000e+02
1.875000e+02
2.000000e+02
0.000000e+00
1.250000e+01
2.500000e+01
3.750000e+01
5.000000e+01
6.250000e+01
7.500000e+01
8.750000e+01
1.000000e+02
1.125000e+02
1.250000e+02
1.375000e+02
1.500000e+02
1.625000e+02
1.750000e+02
1.875000e+02
2.000000e+02
0.000000e+00
1.250000e+01
2.500000e+01
3.750000e+01
5.000000e+01
6.250000e+01
7.500000e+01
8.750000e+01
1.000000e+02
1.125000e+02
1.250000e+02
1.375000e+02
1.500000e+02
1.625000e+02
1.750000e+02
1.875000e+02
2.000000e+02
0.000000e+00
1.250000e+01
2.500000e+01
3.750000e+01
5.000000e+01
6.250000e+01
7.500000e+01
8.750000e+01
1.000000e+02
1.125000e+02
1.250000e+02
1.375000e+02
1.500000e+02
1.625000e+02
1.750000e+02
1.875000e+02
2.000000e+02
0.000000e+00
1.250000e+01
2.500000e+01
3.750000e+01
5.000000e+01
6.250000e+01
7.500000e+01
8.750000e+01
1.000000e+02
1.125000e+02
1.250000e+02
1.375000e+02
1.500000e+02
1.625000e+02
1.750000e+02
1.875000e+02
2.000000e+02
0.000000e+00
1.250000e+01
2.500000e+01
3.750000e+01
5.000000e+01
6.250000e+01
7.500000e+01
8.750000e+01
1.000000e+02
1.125000e+02
1.250000e+02
1.375000e+02
1.500000e+02
1.625000e+02
1.750000e+02
1.875000e+02
2.000000e+02
0.000000e+00
1.250000e+01
2.500000e+01
3.750000e+01
5.000000e+01
6.250000e+01
7.500000e+01
8.750000e+01
1.000000e+02
1.125000e+02
1.250000e+02
1.375000e+02
1.500000e+02
1.625000e+02
1.750000e+02
1.875000e+02
2.000000e+02
0.000000e+00
1.250000e+01
2.500000e+01
3.750000e+01
5.000000e+01
6.250000e+01
7.500000e+01
8.750000e+01
1.000000e+02
1.125000e+02
1.250000e+02
1.375000e+02
1.500000e+02
1.625000e+02
1.750000e+02
1.875000e+02
2.000000e+02
0.000000e+00
0.000000e+00
0.000000e+00
0.000000e+00
0.000000e+00
0.000000e+00
0.000000e+00
0.000000e+00
0.000000e+00
0.000000e+00
0.000000e+00
0.000000e+00
0.000000e+00
0.000000e+00
0.000000e+00
0.000000e+00
0.000000e+00
1.250000e+01
1.250000e+01
1.250000e+01
1.250000e+01
1.250000e+01
1.250000e+01
1.250000e+01
1.250000e+01
1.250000e+01
1.250000e+01
1.250000e+01
1.250000e+01
1.250000e+01
1.250000e+01
1.250000e+01
1.250000e+01
1.250000e+01
2.500000e+01
2.500000e+01
2.500000e+01
2.500000e+01
2.500000e+01
2.500000e+01
2.500000e+01
2.500000e+01
2.500000e+01
2.500000e+01
2.500000e+01
2.500000e+01
2.500000e+01
2.500000e+01
2.500000e+01
2.500000e+01
2.500000e+01
3.750000e+01
3.750000e+01
3.750000e+01
3.750000e+01
3.750000e+01
3.750000e+01
3.750000e+01
3.750000e+01
3.750000e+01
3.750000e+01
3.750000e+01
3.750000e+01
3.750000e+01
3.750000e+01
3.750000e+01
3.750000e+01
3.750000e+01
5.000000e+01
5.000000e+01
5.000000e+01
5.000000e+01
5.000000e+01
5.000000e+01
5.000000e+01
5.000000e+01
5.000000e+01
5.000000e+01
5.000000e+01
5.000000e+01
5.000000e+01
5.000000e+01
5.000000e+01
5.000000e+01
5.000000e+01
6.250000e+01
6.250000e+01
6.250000e+01
6.250000e+01
6.250000e+01
6.250000e+01
6.250000e+01
6.250000e+01
6.250000e+01
6.250000e+01
6.250000e+01
6.250000e+01
6.250000e+01
6.250000e+01
6.250000e+01
6.250000e+01
6.250000e+01
7.500000e+01
7.500000e+01
7.500000e+01
7.500000e+01
7.500000e+01
7.500000e+01
7.500000e+01
7.500000e+01
7.500000e+01
7.500000e+01
7.500000e+01
7.500000e+01
7.500000e+01
7.500000e+01
7.500000e+01
7.500000e+01
7.500000e+01
8.750000e+01
8.750000e+01
8.750000e+01
8.750000e+01
8.750000e+01
8.750000e+01
8.750000e+01
8.750000e+01
8.750000e+01
8.750000e+01
8.750000e+01
8.750000e+01
8.750000e+01
8.750000e+01
8.750000e+01
8.750000e+01
8.750000e+01
1.000000e+02
1.000000e+02
1.000000e+02
1.000000e+02
1.000000e+02
1.000000e+02
1.000000e+02
1.000000e+02
1.000000e+02
1.000000e+02
1.000000e+02
1.000000e+02
1.000000e+02
1.000000e+02
1.000000e+02
1.000000e+02
1.000000e+02
0.000000e+00
-7.098339e-02
-1.307029e-01
-1.856527e-01
-2.368262e-01
-2.841156e-01
-3.274193e-01
-3.667039e-01
-4.020265e-01
-4.335497e-01
-4.615862e-01
-4.866838e-01
-5.097852e-01
-5.325189e-01
-5.576935e-01
-5.886112e-01
-6.118116e-01
0.000000e+00
-4.239003e-02
-8.805704e-02
-1.302276e-01
-1.690796e-01
-2.047609e-01
-2.373453e-01
-2.668766e-01
-2.934079e-01
-3.170211e-01
-3.378360e-01
-3.560026e-01
-3.716368e-01
-3.845777e-01
-3.937056e-01
-3.957063e-01
-4.028793e-01
0.000000e+00
-2.650952e-02
-5.451020e-02
-8.244502e-02
-1.085213e-01
-1.324630e-01
-1.542506e-01
-1.739088e-01
-1.914425e-01
-2.068224e-01
-2.199658e-01
-2.306890e-01
-2.386098e-01
-2.430313e-01
-2.431541e-01
-2.413878e-01
-2.487036e-01
0.000000e+00
-1.279514e-02
-2.634050e-02
-3.997140e-02
-5.300500e-02
-6.500975e-02
-7.589087e-02
-8.561667e-02
-9.413148e-02
-1.013245e-01
-1.070119e-01
-1.109253e-01
-1.127442e-01
-1.123192e-01
-1.105734e-01
-1.110508e-01
-1.164982e-01
0.000000e+00
-1.178669e-05
-2.679484e-05
-4.175372e-05
-4.969265e-05
-3.506739e-05
3.297540e-05
2.097983e-04
5.862309e-04
1.297569e-03
2.520326e-03
4.431822e-03
7.079972e-03
1.007251e-02
1.213967e-02
1.157271e-02
7.966045e-03
0.000000e+00
1.277700e-02
2.629840e-02
3.990405e-02
5.292123e-02
6.494162e-02
7.591730e-02
8.590197e-02
9.498220e-02
1.032633e-01
1.108535e-01
1.178090e-01
1.240089e-01
1.289805e-01
1.319051e-01
1.321370e-01
1.303064e-01
0.000000e+00
2.650655e-02
5.450113e-02
8.242697e-02
1.084931e-01
1.324279e-01
1.542215e-01
1.739182e-01
1.915590e-01
2.071751e-01
2.207802e-01
2.323409e-01
2.417244e-01
2.486619e-01
2.528260e-01
2.541781e-01
2.537512e-01
0.000000e+00
4.240742e-02
8.809486e-02
1.302879e-01
1.691605e-01
2.048474e-01
2.373939e-01
2.667878e-01
2.929844e-01
3.159081e-01
3.354502e-01
3.514754e-01
3.638557e-01
3.725501e-01
3.777364e-01
3.799481e-01
3.803543e-01
0.000000e+00
7.101248e-02
1.307797e-01
1.857964e-01
2.370557e-01
2.844384e-01
3.278045e-01
3.670278e-01
4.019772e-01
4.324711e-01
4.582450e-01
4.789554e-01
4.942621e-01
5.040448e-01
5.087757e-01
5.099435e-01
5.099210e-01
0.000000e+00
-4.296820e-02
-8.435157e-02
-1.379748e-01
-2.037861e-01
-2.816626e-01
-3.707512e-01
-4.700549e-01
-5.785179e-01
-6.950982e-01
-8.188332e-01
-9.489570e-01
-1.085156e+00
-1.228157e+00
-1.381670e+00
-1.557317e+00
-1.809690e+00
0.000000e+00
-2.645201e-02
-6.962165e-02
-1.239098e-01
-1.907968e-01
-2.697360e-01
-3.599039e-01
-4.602790e-01
-5.697932e-01
-6.873858e-01
-8.120675e-01
-9.430373e-01
-1.079933e+00
-1.223462e+00
-1.376915e+00
-1.551497e+00
-1.765377e+00
0.000000e+00
-1.996039e-02
-5.941014e-02
-1.138987e-01
-1.814180e-01
-2.611698e-01
-3.521665e-01
-4.533768e-01
-5.637399e-01
-6.822101e-01
-8.078173e-01
-9.397880e-01
-1.077794e+00
-1.222427e+00
-1.376012e+00
-1.541434e+00
-1.701527e+00
0.000000e+00
-1.720043e-02
-5.433303e-02
-1.080224e-01
-1.757859e-01
-2.560285e-01
-3.475925e-01
-4.494074e-01
-5.604322e-01
-6.796497e-01
-8.061107e-01
-9.390267e-01
-1.077914e+00
-1.222707e+00
-1.373219e+00
-1.525219e+00
-1.665245e+00
0.000000e+00
-1.640535e-02
-5.279645e-02
-1.061478e-01
-1.739297e-01
-2.543721e-01
-3.461994e-01
-4.483420e-01
-5.597789e-01
-6.795094e-01
-8.065632e-01
-9.400269e-01
-1.079038e+00
-1.222571e+00
-1.368477e+00
-1.511767e+00
-1.643773e+00
0.000000e+00
-1.719022e-02
-5.432576e-02
-1.080353e-01
-1.758494e-01
-2.561958e-01
-3.479504e-01
-4.500853e-01
-5.616009e-01
-6.814918e-01
-8.087248e-01
-9.421948e-01
-1.080611e+00
-1.222211e+00
-1.364275e+00
-1.502652e+00
-1.631840e+00
0.000000e+00
-1.994373e-02
-5.939810e-02
-1.139202e-01
-1.815251e-01
-2.614528e-01
-3.527733e-01
-4.545278e-01
-5.657270e-01
-6.853479e-01
-8.122881e-01
-9.452722e-01
-1.082698e+00
-1.222443e+00
-1.361753e+00
-1.497474e+00
-1.626577e+00
0.000000e+00
-2.643640e-02
-6.961117e-02
-1.239385e-01
-1.909253e-01
-2.700688e-01
-3.606102e-01
-4.616094e-01
-5.720759e-01
-6.909681e-01
-8.171383e-01
-9.492202e-01
-1.085475e+00
-1.223664e+00
-1.361121e+00
-1.495333e+00
-1.625341e+00
0.000000e+00
-4.296175e-02
-8.435247e-02
-1.380191e-01
-2.039351e-01
-2.820183e-01
-3.714740e-01
-4.713737e-01
-5.807165e-01
-6.984426e-01
-8.233765e-01
-9.541218e-01
-1.088928e+00
-1.225605e+00
-1.361658e+00
-1.494942e+00
-1.625360e+00


0.000000e+00
3.189520e-11
6.596392e-11
9.614743e-11
1.216502e-10
1.423688e-10
1.586894e-10
1.712001e-10
1.805603e-10
1.873793e-10
1.922378e-10
1.956473e-10
1.980782e-10
1.999671e-10
2.017234e-10
2.038879e-10
2.064847e-10
0.000000e+00
2.169156e-11
5.111948e-11
7.509968e-11
9.433876e-11
1.095460e-10
1.212837e-10
1.301363e-10
1.366346e-10
1.412601e-10
1.444343e-10
1.464950e-10
1.477130e-10
1.483127e-10
1.489207e-10
1.506912e-10
1.533647e-10
0.000000e+00
1.615044e-11
3.550783e-11
5.168408e-11
6.468644e-11
7.472518e-11
8.228990e-11
8.784601e-11
9.181321e-11
9.452031e-11
9.625323e-11
9.723376e-11
9.767133e-11
9.783989e-11
9.826679e-11
9.965330e-11
1.018174e-10
0.000000e+00
8.644235e-12
1.771190e-11
2.580354e-11
3.242483e-11
3.748693e-11
4.122644e-11
4.391031e-11
4.576378e-11
4.696261e-11
4.765871e-11
4.799148e-11
4.812660e-11
4.827613e-11
4.865003e-11
4.949338e-11
5.082688e-11
0.000000e+00
-7.982451e-15
-2.194581e-14
-4.099860e-14
-6.795936e-14
-1.079324e-13
-1.609080e-13
-2.389248e-13
-3.422772e-13
-4.730610e-13
-6.226402e-13
-7.517115e-13
-8.056610e-13
-7.187594e-13
-4.895511e-13
-8.346011e-14
6.109545e-13
0.000000e+00
-8.664645e-12
-1.775267e-11
-2.587521e-11
-3.253559e-11
-3.765608e-11
-4.148090e-11
-4.428307e-11
-4.629698e-11
-4.770231e-11
-4.863878e-11
-4.921611e-11
-4.951300e-11
-4.961193e-11
-4.960706e-11
-4.950669e-11
-4.920840e-11
0.000000e+00
-1.615834e-11
-3.553217e-11
-5.173064e-11
-6.476255e-11
-7.483647e-11
-8.243909e-11
-8.803965e-11
-9.205865e-11
-9.483078e-11
-9.665733e-11
-9.778160e-11
-9.842640e-11
-9.877264e-11
-9.895882e-11
-9.902299e-11
-9.893897e-11
0.000000e+00
-2.169969e-11
-5.113866e-11
-7.513365e-11
-9.438127e-11
-1.095957e-10
-1.213331e-10
-1.301679e-10
-1.366252e-10
-1.411834e-10
-1.442682e-10
-1.462545e-10
-1.474696e-10
-1.481748e-10
-1.485648e-10
-1.487423e-10
-1.487666e-10
0.000000e+00
-3.191089e-11
-6.599192e-11
-9.617924e-11
-1.216795e-10
-1.423846e-10
-1.586634e-10
-1.711054e-10
-1.803509e-10
-1.870031e-10
-1.916357e-10
-1.947295e-10
-1.967094e-10
-1.978940e-10
-1.985179e-10
-1.987589e-10
-1.987963e-10
0.000000e+00
2.897268e-11
5.207773e-11
7.632973e-11
1.054444e-10
1.397230e-10
1.784626e-10
2.207564e-10
2.657370e-10
3.126816e-10
3.610439e-10
4.104552e-10
4.607538e-10
5.122875e-10
5.664277e-10
6.238884e-10
6.820966e-10
0.000000e+00
1.557651e-11
3.815500e-11
6.403200e-11
9.536037e-11
1.317590e-10
1.723708e-10
2.162178e-10
2.624453e-10
3.103749e-10
3.594828e-10
4.094354e-10
4.600935e-10
5.116101e-10
5.646542e-10
6.205153e-10
6.777741e-10
0.000000e+00
7.681877e-12
2.722358e-11
5.443023e-11
8.755946e-11
1.257144e-10
1.678151e-10
2.128742e-10
2.600712e-10
3.087578e-10
3.584493e-10
4.088318e-10
4.597386e-10
5.110793e-10
5.629187e-10
6.169295e-10
6.726527e-10
0.000000e+00
4.369307e-12
2.206402e-11
4.939581e-11
8.346803e-11
1.225866e-10
1.654966e-10
2.112015e-10
2.589104e-10
3.080018e-10
3.580063e-10
4.085988e-10
4.595608e-10
5.106582e-10
5.618414e-10
6.143814e-10
6.681626e-10
0.000000e+00
3.528831e-12
2.065592e-11
4.787319e-11
8.220948e-11
1.216363e-10
1.648056e-10
2.107186e-10
2.586005e-10
3.078277e-10
3.579359e-10
4.085749e-10
4.594842e-10
5.104316e-10
5.613348e-10
6.129219e-10
6.649679e-10
0.000000e+00
4.376805e-12
2.207427e-11
4.941068e-11
8.348681e-11
1.226146e-10
1.655412e-10
2.112741e-10
2.590264e-10
3.081643e-10
3.582021e-10
4.087661e-10
4.595812e-10
5.104264e-10
5.612177e-10
6.122176e-10
6.631277e-10
0.000000e+00
7.692234e-12
2.723945e-11
5.445722e-11
8.759221e-11
1.257709e-10
1.679067e-10
2.130191e-10
2.603009e-10
3.090762e-10
3.588429e-10
4.091972e-10
4.598441e-10
5.105708e-10
5.612529e-10
6.119045e-10
6.622676e-10
0.000000e+00
1.559451e-11
3.818171e-11
6.407812e-11
9.541448e-11
1.318444e-10
1.724997e-10
2.164127e-10
2.627355e-10
3.107696e-10
3.599675e-10
4.099014e-10
4.602551e-10
5.107838e-10
5.613322e-10
6.117854e-10
6.619803e-10
0.000000e+00
2.899499e-11
5.211630e-11
7.638780e-11
1.055193e-10
1.398230e-10
1.786028e-10
2.209538e-10
2.660111e-10
3.130407e-10
3.614684e-10
4.108350e-10
4.607887e-10
5.110608e-10
5.614455e-10
6.117775e-10
6.619343e-10


2.074074e-01
2.074074e-01
2.074074e-01
2.074074e-01
2.074074e-01
2.074074e-01
2.074074e-01
2.074074e-01
2.074074e-01
2.074074e-01
2.074074e-01
2.074074e-01
2.074074e-01
2.074074e-01
2.074074e-01
2.074074e-01
2.074074e-01
2.074074e-01
2.074074e-01
2.074074e-01
2.074074e-01
2.074074e-01
2.074074e-01
2.074074e-01
2.074074e-01
2.074074e-01
2.074074e-01
2.074074e-01
2.074074e-01
2.074074e-01
2.074074e-01
2.074074e-01
2.074074e-01
2.074074e-01
2.074074e-01
2.074074e-01
2.074074e-01
2.074074e-01
2.074074e-01
2.074074e-01
2.074074e-01
2.074074e-01
2.074074e-01
2.074074e-01
2.074074e-01
2.074074e-01
2.074074e-01
2.074074e-01
2.074074e-01
2.074074e-01
2.074074e-01
2.074074e-01
2.074074e-01
2.074074e-01
2.074074e-01
2.074074e-01
2.074074e-01
2.074074e-01
2.074074e-01
2.074074e-01
2.074074e-01
2.074074e-01
2.074074e-01
2.074074e-01
2.074074e-01
2.074074e-01
2.074074e-01
2.074074e-01
2.074074e-01
2.074074e-01
2.074074e-01
2.074074e-01
2.074074e-01
2.074074e-01
2.074074e-01
2.074074e-01
2.074074e-01
2.074074e-01
2.074074e-01
2.074074e-01
2.074074e-01
2.074074e-01
2.074074e-01
2.074074e-01
2.074074e-01
2.074074e-01
2.074074e-01
2.074074e-01
2.074074e-01
2.074074e-01
2.074074e-01
2.074074e-01
2.074074e-01
2.074074e-01
2.074074e-01
2.074074e-01
2.074074e-01
2.074074e-01
2.074074e-01
2.074074e-01
2.074074e-01
2.074074e-01
2.074074e-01
2.074074e-01
2.074074e-01
2.074074e-01
2.074074e-01
2.074074e-01
2.074074e-01
2.074074e-01
2.074074e-01
2.074074e-01
2.074074e-01
2.074074e-01
2.074074e-01
2.074074e-01
2.074074e-01
2.074074e-01
2.074074e-01
2.074074e-01
2.074074e-01
2.074074e-01
2.074074e-01
2.074074e-01
2.074074e-01
2.074074e-01
2.074074e-01
2.074074e-01


9.886639e-01
9.902714e-01
9.917585e-01
9.929033e-01
9.939659e-01
9.949457e-01
9.958384e-01
9.966334e-01
9.973225e-01
9.978988e-01
9.983571e-01
9.986928e-01
9.989015e-01
9.989759e-01
9.990297e-01
9.957167e-01
9.957113e-01
9.949747e-01
9.954486e-01
9.960672e-01
9.966439e-01
9.971681e-01
9.976426e-01
9.980724e-01
9.984615e-01
9.988140e-01
9.991338e-01
9.994234e-01
9.996761e-01
9.998415e-01
9.994232e-01
9.937521e-01
9.985099e-01
9.980868e-01
9.979726e-01
9.981332e-01
9.983446e-01
9.985493e-01
9.987394e-01
9.989190e-01
9.990930e-01
9.992626e-01
9.994210e-01
9.995437e-01
9.995693e-01
9.993484e-01
9.985471e-01
9.971059e-01
9.996967e-01
9.993881e-01
9.991975e-01
9.991492e-01
9.991685e-01
9.992009e-01
9.992332e-01
9.992649e-01
9.992959e-01
9.993219e-01
9.993291e-01
9.992905e-01
9.991679e-01
9.989480e-01
9.987616e-01
9.987144e-01
9.996979e-01
9.993898e-01
9.991990e-01
9.991489e-01
9.991637e-01
9.991870e-01
9.992033e-01
9.992087e-01
9.992013e-01
9.991774e-01
9.991329e-01
9.990688e-01
9.990077e-01
9.990199e-01
9.991924e-01
9.994912e-01
9.985120e-01
9.980900e-01
9.979756e-01
9.981333e-01
9.983364e-01
9.985240e-01
9.986827e-01
9.988103e-01
9.989058e-01
9.989702e-01
9.990109e-01
9.990506e-01
9.991342e-01
9.993094e-01
9.995725e-01
9.998445e-01
9.957109e-01
9.949744e-01
9.954480e-01
9.960655e-01
9.966394e-01
9.971578e-01
9.976212e-01
9.980316e-01
9.983892e-01
9.986948e-01
9.989535e-01
9.991795e-01
9.993971e-01
9.996253e-01
9.998386e-01
9.999730e-01
9.886562e-01
9.902593e-01
9.917437e-01
9.928867e-01
9.939509e-01
9.949403e-01
9.958568e-01
9.966984e-01
9.974652e-01
9.981557e-01
9.987618e-01
9.992646e-01
9.996387e-01
9.998694e-01
9.999744e-01
9.999995e-01
1 2 19 18
2 3 20 19
3 4 21 20
4 5 22 21
5 6 23 22
6 7 24 23
7 8 25 24
8 9 26 25
9 10 27 26
10 11 28 27
11 12 29 28
12 13 30 29
13 14 31 30
14 15 32 31
15 16 33 32
16 17 34 33
18 19 36 35
19 20 37 36
20 21 38 37
21 22 39 38
22 23 40 39
23 24 41 40
24 25 42 41
25 26 43 42
26 27 44 43
27 28 45 44
28 29 46 45
29 30 47 46
30 31 48 47
31 32 49 48
32 33 50 49
33 34 51 50
35 36 53 52
36 37 54 53
37 38 55 54
38 39 56 55
39 40 57 56
40 41 58 57
41 42 59 58
42 43 60 59
43 44 61 60
44 45 62 61
45 46 63 62
46 47 64 63
47 48 65 64
48 49 66 65
49 50 67 66
50 51 68 67
52 53 70 69
53 54 71 70
54 55 72 71
55 56 73 72
56 57 74 73
57 58 75 74
58 59 76 75
59 60 77 76
60 61 78 77
61 62 79 78
62 63 80 79
63 64 81 80
64 65 82 81
65 66 83 82
66 67 84 83
67 68 85 84
69 70 87 86
70 71 88 87
71 72 89 88
72 73 90 89
73 74 91 90
74 75 92 91
75 76 93 92
76 77 94 93
77 78 95 94
78 79 96 95
79 80 97 96
80 81 98 97
81 82 99 98
82 83 100 99
83 84 101 100
84 85 102 101
86 87 104 103
87 88 105 104
88 89 106 105
89 90 107 106
90 91 108 107
91 92 109 108
92 93 110 109
93 94 111 110
94 95 112 111
95 96 113 112
96 97 114 113
97 98 115 114
98 99 116 115
99 100 117 116
100 101 118 117
101 102 119 118
103 104 121 120
104 105 122 121
105 106 123 122
106 107 124 123
107 108 125 124
108 109 126 125
109 110 127 126
110 111 128 127
111 112 129 128
112 113 130 129
113 114 131 130
114 115 132 131
115 116 133 132
116 117 134 133
117 118 135 134
118 119 136 135
120 121 138 137
121 122 139 138
122 123 140 139
123 124 141 140
124 125 142 141
125 126 143 142
126 127 144 143
127 128 145 144
128 129 146 145
129 130 147 146
130 131 148 147
131 132 149 148
132 133 150 149
133 134 151 150
134 135 152 151
135 136 153 152
