TITLE = "Solution"
VARIABLES = x, y, u, v, psiu, psiv, t, stress
ZONE T="structure" N=153 E=128 F=FEBLOCK ET=QUADRILATERAL VARLOCATION=([7,8]=cellcentered)
0.000000e+00
1.250000e+01
2.500000e+01
3.750000e+01
5.000000e+01
6.250000e+01
7.500000e+01
8.750000e+01
1.000000e+02
1.125000e+02
1.250000e+02
1.375000e+02
1.500000e+02
1.625000e+02
1.750000e+02
1.875000e+02
2.000000e+02
0.000000e+00
1.250000e+01
2.500000e+01
3.750000e+01
5.000000e+01
6.250000e+01
7.500000e+01
8.750000e+01
1.000000e+02
1.125000e+02
1.250000e+02
1.375000e+02
1.500000e+02
1.625000e+02
1.750000e+02
1.875000e+02
2.000000e+02
0.000000e+00
1.250000e+01
2.500000e+01
3.750000e+01
5.000000e+01
6.250000e+01
7.500000e+01
8.750000e+01
1.000000e+02
1.125000e+02
1.250000e+02
1.375000e+02
1.500000e+02
1.625000e+02
1.750000e+02
1.875000e+02
2.000000e+02
0.000000e+00
1.250000e+01
2.500000e+01
3.750000e+01
5.000000e+01
6.250000e+01
7.500000e+01
8.750000e+01
1.000000e+02
1.125000e+02
1.250000e+02
1.375000e+02
1.500000e+02
1.625000e+02
1.750000e+02
1.875000e+02
2.000000e+02
0.000000e+00
1.250000e+01
2.500000e+01
3.750000e+01
5.000000e+01
6.250000e+01
7.500000e+01
8.750000e+01
1.000000e+02
1.125000e+02
1.250000e+02
1.375000e+02
1.500000e+02
1.625000e+02
1.750000e+02
1.875000e+02
2.000000e+02
0.000000e+00
1.250000e+01
2.500000e+01
3.750000e+01
5.000000e+01
6.250000e+01
7.500000e+01
8.750000e+01
1.000000e+02
1.125000e+02
1.250000e+02
1.375000e+02
1.500000e+02
1.625000e+02
1.750000e+02
1.875000e+02
2.000000e+02
0.000000e+00
1.250000e+01
2.500000e+01
3.750000e+01
5.000000e+01
6.250000e+01
7.500000e+01
8.750000e+01
1.000000e+02
1.125000e+02
1.250000e+02
1.375000e+02
1.500000e+02
1.625000e+02
1.750000e+02
1.875000e+02
2.000000e+02
0.000000e+00
1.250000e+01
2.500000e+01
3.750000e+01
5.000000e+01
6.250000e+01
7.500000e+01
8.750000e+01
1.000000e+02
1.125000e+02
1.250000e+02
1.375000e+02
1.500000e+02
1.625000e+02
1.750000e+02
1.875000e+02
2.000000e+02
0.000000e+00
1.250000e+01
2.500000e+01
3.750000e+01
5.000000e+01
6.250000e+01
7.500000e+01
8.750000e+01
1.000000e+02
1.125000e+02
1.250000e+02
1.375000e+02
1.500000e+02
1.625000e+02
1.750000e+02
1.875000e+02
2.000000e+02
0.000000e+00
0.000000e+00
0.000000e+00
0.000000e+00
0.000000e+00
0.000000e+00
0.000000e+00
0.000000e+00
0.000000e+00
0.000000e+00
0.000000e+00
0.000000e+00
0.000000e+00
0.000000e+00
0.000000e+00
0.000000e+00
0.000000e+00
1.250000e+01
1.250000e+01
1.250000e+01
1.250000e+01
1.250000e+01
1.250000e+01
1.250000e+01
1.250000e+01
1.250000e+01
1.250000e+01
1.250000e+01
1.250000e+01
1.250000e+01
1.250000e+01
1.250000e+01
1.250000e+01
1.250000e+01
2.500000e+01
2.500000e+01
2.500000e+01
2.500000e+01
2.500000e+01
2.500000e+01
2.500000e+01
2.500000e+01
2.500000e+01
2.500000e+01
2.500000e+01
2.500000e+01
2.500000e+01
2.500000e+01
2.500000e+01
2.500000e+01
2.500000e+01
3.750000e+01
3.750000e+01
3.750000e+01
3.750000e+01
3.750000e+01
3.750000e+01
3.750000e+01
3.750000e+01
3.750000e+01
3.750000e+01
3.750000e+01
3.750000e+01
3.750000e+01
3.750000e+01
3.750000e+01
3.750000e+01
3.750000e+01
5.000000e+01
5.000000e+01
5.000000e+01
5.000000e+01
5.000000e+01
5.000000e+01
5.000000e+01
5.000000e+01
5.000000e+01
5.000000e+01
5.000000e+01
5.000000e+01
5.000000e+01
5.000000e+01
5.000000e+01
5.000000e+01
5.000000e+01
6.250000e+01
6.250000e+01
6.250000e+01
6.250000e+01
6.250000e+01
6.250000e+01
6.250000e+01
6.250000e+01
6.250000e+01
6.250000e+01
6.250000e+01
6.250000e+01
6.250000e+01
6.250000e+01
6.250000e+01
6.250000e+01
6.250000e+01
7.500000e+01
7.500000e+01
7.500000e+01
7.500000e+01
7.500000e+01
7.500000e+01
7.500000e+01
7.500000e+01
7.500000e+01
7.500000e+01
7.500000e+01
7.500000e+01
7.500000e+01
7.500000e+01
7.500000e+01
7.500000e+01
7.500000e+01
8.750000e+01
8.750000e+01
8.750000e+01
8.750000e+01
8.750000e+01
8.750000e+01
8.750000e+01
8.750000e+01
8.750000e+01
8.750000e+01
8.750000e+01
8.750000e+01
8.750000e+01
8.750000e+01
8.750000e+01
8.750000e+01
8.750000e+01
1.000000e+02
1.000000e+02
1.000000e+02
1.000000e+02
1.000000e+02
1.000000e+02
1.000000e+02
1.000000e+02
1.000000e+02
1.000000e+02
1.000000e+02
1.000000e+02
1.000000e+02
1.000000e+02
1.000000e+02
1.000000e+02
1.000000e+02
0.000000e+00
-8.066331e-01
-1.472138e+00
-2.113521e+00
-2.763478e+00
-3.403487e+00
-4.030108e+00
-4.642431e+00
-5.233296e+00
-5.792614e+00
-6.312595e+00
-6.792085e+00
-7.240079e+00
-7.679259e+00
-8.149265e+00
-8.697141e+00
-9.095202e+00
0.000000e+00
-4.555696e-01
-9.492693e-01
-1.431486e+00
-1.919260e+00
-2.399105e+00
-2.868135e+00
-3.326132e+00
-3.767979e+00
-4.185480e+00
-4.570616e+00
-4.917577e+00
-5.222234e+00
-5.476246e+00
-5.652321e+00
-5.691151e+00
-5.817888e+00
0.000000e+00
-2.659892e-01
-5.567476e-01
-8.736852e-01
-1.198941e+00
-1.520454e+00
-1.835138e+00
-2.140820e+00
-2.432704e+00
-2.703847e+00
-2.946083e+00
-3.150279e+00
-3.304947e+00
-3.393645e+00
-3.399474e+00
-3.369164e+00
-3.500150e+00
0.000000e+00
-1.219817e-01
-2.587721e-01
-4.124814e-01
-5.743634e-01
-7.359199e-01
-8.939942e-01
-1.045700e+00
-1.187142e+00
-1.313049e+00
-1.416699e+00
-1.490096e+00
-1.524846e+00
-1.516522e+00
-1.482453e+00
-1.490180e+00
-1.590684e+00
0.000000e+00
-4.231208e-04
-9.021674e-04
-1.362102e-03
-1.659339e-03
-1.497376e-03
-2.940761e-04
3.012018e-03
1.020260e-02
2.398104e-02
4.791802e-02
8.565395e-02
1.383314e-01
1.984026e-01
2.408190e-01
2.318888e-01
1.634071e-01
0.000000e+00
1.212750e-01
2.572404e-01
4.101135e-01
5.713634e-01
7.329627e-01
8.926617e-01
1.049226e+00
1.201551e+00
1.348644e+00
1.489598e+00
1.622910e+00
1.744282e+00
1.843061e+00
1.902068e+00
1.907878e+00
1.872543e+00
0.000000e+00
2.656614e-01
5.559720e-01
8.723508e-01
1.197001e+00
1.518032e+00
1.832664e+00
2.139190e+00
2.433524e+00
2.709790e+00
2.961458e+00
3.182031e+00
3.364664e+00
3.501346e+00
3.584015e+00
3.611138e+00
3.602932e+00
0.000000e+00
4.557120e-01
9.494625e-01
1.431637e+00
1.919242e+00
2.398681e+00
2.866811e+00
3.322603e+00
3.759064e+00
4.164581e+00
4.526020e+00
4.831383e+00
5.071627e+00
5.242081e+00
5.344285e+00
5.387962e+00
5.396017e+00
0.000000e+00
8.070213e-01
1.473093e+00
2.115210e+00
2.766096e+00
3.407169e+00
4.034682e+00
4.646392e+00
5.231568e+00
5.772933e+00
6.250544e+00
6.645259e+00
6.941836e+00
7.132965e+00
7.225611e+00
7.248333e+00
7.247799e+00
0.000000e+00
-4.943623e-01
-1.005715e+00
-1.682406e+00
-2.519378e+00
-3.518018e+00
-4.679337e+00
-6.000428e+00
-7.474157e+00
-9.090539e+00
-1.083809e+01
-1.270644e+01
-1.469131e+01
-1.680464e+01
-1.910945e+01
-2.180614e+01
-2.583408e+01
0.000000e+00
-3.089775e-01
-8.411798e-01
-1.513125e+00
-2.350318e+00
-3.352100e+00
-4.517178e+00
-5.843135e+00
-7.324244e+00
-8.950856e+00
-1.071073e+01
-1.259210e+01
-1.458927e+01
-1.671441e+01
-1.902340e+01
-2.170611e+01
-2.506341e+01
0.000000e+00
-2.444978e-01
-7.298734e-01
-1.396154e+00
-2.231245e+00
-3.234569e+00
-4.402954e+00
-5.733802e+00
-7.222037e+00
-8.858647e+00
-1.063167e+01
-1.252945e+01
-1.454667e+01
-1.669371e+01
-1.900830e+01
-2.153080e+01
-2.394653e+01
0.000000e+00
-2.279188e-01
-6.804465e-01
-1.330549e+00
-2.161954e+00
-3.165482e+00
-4.336834e+00
-5.672726e+00
-7.168243e+00
-8.814966e+00
-1.060137e+01
-1.251539e+01
-1.454857e+01
-1.669885e+01
-1.895796e+01
-2.123938e+01
-2.329152e+01
0.000000e+00
-2.259417e-01
-6.675231e-01
-1.310866e+00
-2.139879e+00
-3.144011e+00
-4.317707e+00
-5.657690e+00
-7.159289e+00
-8.814427e+00
-1.061123e+01
-1.253519e+01
-1.457043e+01
-1.669636e+01
-1.886862e+01
-2.098793e+01
-2.288708e+01
0.000000e+00
-2.277173e-01
-6.803729e-01
-1.330967e+00
-2.163424e+00
-3.168939e+00
-4.343824e+00
-5.685650e+00
-7.190415e+00
-8.850067e+00
-1.065151e+01
-1.257650e+01
-1.460073e+01
-1.668929e+01
-1.878738e+01
-2.081232e+01
-2.265608e+01
0.000000e+00
-2.441609e-01
-7.297310e-01
-1.396793e+00
-2.233606e+00
-3.240227e+00
-4.414518e+00
-5.755364e+00
-7.259282e+00
-8.917942e+00
-1.071689e+01
-1.263460e+01
-1.464077e+01
-1.669351e+01
-1.873784e+01
-2.071096e+01
-2.255314e+01
0.000000e+00
-3.086415e-01
-8.410219e-01
-1.513826e+00
-2.352974e+00
-3.358534e+00
-4.530384e+00
-5.867763e+00
-7.366681e+00
-9.018100e+00
-1.080675e+01
-1.270970e+01
-1.469443e+01
-1.671721e+01
-1.872525e+01
-2.066877e+01
-2.252907e+01
0.000000e+00
-4.941444e-01
-1.005667e+00
-1.683249e+00
-2.522230e+00
-3.524719e+00
-4.692804e+00
-6.024951e+00
-7.515213e+00
-9.153372e+00
-1.092381e+01
-1.280382e+01
-1.476160e+01
-1.675518e+01
-1.873571e+01
-2.066100e+01
-2.252955e+01


0.000000e+00
8.488384e-06
1.705414e-05
2.494601e-05
3.265969e-05
3.998805e-05
4.651537e-05
5.197317e-05
5.627150e-05
5.947109e-05
6.172238e-05
6.323963e-05
6.427399e-05
6.508675e-05
6.590052e-05
6.705659e-05
6.857737e-05
0.000000e+00
6.215102e-06
1.370972e-05
1.972752e-05
2.550834e-05
3.104068e-05
3.591799e-05
3.989394e-05
4.293263e-05
4.510995e-05
4.655861e-05
4.743625e-05
4.788827e-05
4.802308e-05
4.817107e-05
4.910074e-05
5.067879e-05
0.000000e+00
4.645287e-06
9.555689e-06
1.365131e-05
1.757628e-05
2.120741e-05
2.435662e-05
2.689940e-05
2.881953e-05
3.015857e-05
3.099581e-05
3.143189e-05
3.157688e-05
3.157827e-05
3.172370e-05
3.248670e-05
3.377476e-05
0.000000e+00
2.318539e-06
4.463286e-06
6.678467e-06
8.700840e-06
1.048595e-05
1.201638e-05
1.326664e-05
1.421478e-05
1.486646e-05
1.525361e-05
1.543701e-05
1.550646e-05
1.558465e-05
1.578140e-05
1.623286e-05
1.697470e-05
0.000000e+00
-4.926135e-09
-1.026003e-08
-1.590473e-08
-2.203422e-08
-3.036124e-08
-4.409111e-08
-6.752843e-08
-1.045751e-07
-1.559340e-07
-2.156202e-07
-2.650869e-07
-2.703600e-07
-1.994309e-07
-7.164454e-08
1.099193e-07
4.406703e-07
0.000000e+00
-2.327819e-06
-4.481944e-06
-6.706703e-06
-8.740007e-06
-1.053887e-05
-1.208936e-05
-1.337042e-05
-1.436512e-05
-1.508464e-05
-1.555972e-05
-1.583472e-05
-1.595555e-05
-1.597706e-05
-1.597032e-05
-1.594718e-05
-1.582710e-05
0.000000e+00
-4.651634e-06
-9.569004e-06
-1.367201e-05
-1.760826e-05
-2.125430e-05
-2.441551e-05
-2.695819e-05
-2.886222e-05
-3.018106e-05
-3.101847e-05
-3.149915e-05
-3.174833e-05
-3.187351e-05
-3.194970e-05
-3.198803e-05
-3.195834e-05
0.000000e+00
-6.218236e-06
-1.371679e-05
-1.973815e-05
-2.552960e-05
-3.107850e-05
-3.596406e-05
-3.991755e-05
-4.288602e-05
-4.495658e-05
-4.630016e-05
-4.711516e-05
-4.758736e-05
-4.785761e-05
-4.801339e-05
-4.808955e-05
-4.810116e-05
0.000000e+00
-8.493249e-06
-1.705892e-05
-2.494853e-05
-3.266566e-05
-4.000040e-05
-4.652249e-05
-5.194119e-05
-5.614642e-05
-5.920485e-05
-6.129285e-05
-6.264036e-05
-6.346914e-05
-6.395443e-05
-6.421106e-05
-6.430989e-05
-6.432664e-05
0.000000e+00
7.514138e-06
1.302779e-05
1.945508e-05
2.783236e-05
3.789453e-05
4.939795e-05
6.217504e-05
7.602734e-05
9.073072e-05
1.060767e-04
1.219113e-04
1.381652e-04
1.549992e-04
1.733059e-04
1.937436e-04
2.147234e-04
0.000000e+00
3.835110e-06
9.455718e-06
1.599605e-05
2.444175e-05
3.475573e-05
4.671443e-05
6.003450e-05
7.442777e-05
8.961203e-05
1.053494e-04
1.214729e-04
1.379131e-04
1.547552e-04
1.723699e-04
1.917560e-04
2.121310e-04
0.000000e+00
1.654203e-06
6.646289e-06
1.345211e-05
2.200872e-05
3.253104e-05
4.481720e-05
5.852516e-05
7.330345e-05
8.883637e-05
1.048664e-04
1.212168e-04
1.378000e-04
1.545562e-04
1.714227e-04
1.896229e-04
2.090632e-04
0.000000e+00
9.447373e-07
5.397189e-06
1.220570e-05
2.091676e-05
3.156567e-05
4.397834e-05
5.783300e-05
7.277123e-05
8.846379e-05
1.046386e-04
1.211005e-04
1.377181e-04
1.543495e-04
1.708721e-04
1.882024e-04
2.065141e-04
0.000000e+00
8.109067e-07
5.058987e-06
1.179514e-05
2.058812e-05
3.128761e-05
4.373602e-05
5.763144e-05
7.261975e-05
8.836456e-05
1.045850e-04
1.210692e-04
1.376596e-04
1.542180e-04
1.706840e-04
1.875489e-04
2.048527e-04
0.000000e+00
9.456932e-07
5.397351e-06
1.220257e-05
2.090980e-05
3.155973e-05
4.398271e-05
5.785711e-05
7.281934e-05
8.853305e-05
1.047166e-04
1.211540e-04
1.376864e-04
1.542032e-04
1.706864e-04
1.873086e-04
2.039705e-04
0.000000e+00
1.655731e-06
6.646505e-06
1.344734e-05
2.199858e-05
3.252389e-05
4.482851e-05
5.857125e-05
7.339383e-05
8.896947e-05
1.050251e-04
1.213504e-04
1.377947e-04
1.542643e-04
1.707281e-04
1.872074e-04
2.035806e-04
0.000000e+00
3.838129e-06
9.458358e-06
1.599506e-05
2.443853e-05
3.475805e-05
4.673437e-05
6.008555e-05
7.452086e-05
8.975314e-05
1.055308e-04
1.216495e-04
1.379569e-04
1.543502e-04
1.707682e-04
1.871639e-04
2.034552e-04
0.000000e+00
7.520099e-06
1.303348e-05
1.946005e-05
2.784042e-05
3.790935e-05
4.942189e-05
6.220978e-05
7.607894e-05
9.081443e-05
1.062002e-04
1.220406e-04
1.381694e-04
1.544583e-04
1.708147e-04
1.871608e-04
2.034368e-04


2.134626e+00
2.107048e+00
2.243885e+00
2.468124e+00
2.658173e+00
2.875566e+00
3.129402e+00
3.386940e+00
3.617112e+00
3.801663e+00
3.935271e+00
4.019042e+00
4.042070e+00
3.949693e+00
3.750847e+00
3.596891e+00
2.605349e+00
2.575102e+00
2.668068e+00
2.832360e+00
2.974272e+00
3.140812e+00
3.338635e+00
3.540851e+00
3.722768e+00
3.869152e+00
3.974784e+00
4.039501e+00
4.050401e+00
3.951459e+00
3.756059e+00
3.606929e+00
3.331583e+00
3.305583e+00
3.344249e+00
3.419516e+00
3.485764e+00
3.572225e+00
3.677976e+00
3.788183e+00
3.889127e+00
3.971128e+00
4.029993e+00
4.064542e+00
4.063512e+00
3.981829e+00
3.827989e+00
3.715018e+00
3.808671e+00
3.790500e+00
3.794245e+00
3.809536e+00
3.830320e+00
3.862688e+00
3.904410e+00
3.950068e+00
3.993707e+00
4.029945e+00
4.056061e+00
4.071454e+00
4.070156e+00
4.027332e+00
3.945822e+00
3.886295e+00
3.808709e+00
3.790445e+00
3.794026e+00
3.809039e+00
3.829321e+00
3.860872e+00
3.901438e+00
3.945656e+00
3.987683e+00
4.022315e+00
4.047566e+00
4.064672e+00
4.073154e+00
4.064312e+00
4.038453e+00
4.018811e+00
3.331420e+00
3.305110e+00
3.343269e+00
3.417827e+00
3.483112e+00
3.568399e+00
3.672769e+00
3.781345e+00
3.880133e+00
3.959210e+00
4.015756e+00
4.053528e+00
4.077757e+00
4.089839e+00
4.091999e+00
4.091187e+00
2.604601e+00
2.573846e+00
2.666039e+00
2.829523e+00
2.970976e+00
3.138061e+00
3.337606e+00
3.542180e+00
3.725664e+00
3.871173e+00
3.974260e+00
4.041137e+00
4.082127e+00
4.105851e+00
4.118199e+00
4.123238e+00
2.133423e+00
2.105230e+00
2.241214e+00
2.464748e+00
2.655014e+00
2.874719e+00
3.133317e+00
3.397060e+00
3.632545e+00
3.818806e+00
3.950544e+00
4.035140e+00
4.085534e+00
4.113850e+00
4.128449e+00
4.134596e+00


-4.045260e-01
-1.826448e-01
-1.063474e-01
-1.347635e-01
-1.009279e-01
-5.536882e-02
-8.271711e-03
6.039037e-02
1.588448e-01
2.782036e-01
4.000924e-01
5.060612e-01
5.852582e-01
6.375964e-01
6.918932e-01
-2.754631e-01
5.180622e-01
4.055689e-01
3.888978e-01
3.665136e-01
3.779850e-01
3.971692e-01
4.192272e-01
4.555235e-01
5.129752e-01
5.905697e-01
6.819062e-01
7.790094e-01
8.729131e-01
9.400959e-01
8.163804e-01
-9.008244e-01
8.337333e-01
7.526578e-01
6.911613e-01
6.649059e-01
6.597705e-01
6.606973e-01
6.657637e-01
6.788818e-01
7.037556e-01
7.410176e-01
7.860706e-01
8.264237e-01
8.361353e-01
7.625603e-01
5.088890e-01
5.798903e-02
9.448847e-01
8.819875e-01
8.291982e-01
8.005040e-01
7.878737e-01
7.802179e-01
7.733431e-01
7.668458e-01
7.618856e-01
7.584228e-01
7.521432e-01
7.323859e-01
6.841345e-01
6.059885e-01
5.510551e-01
5.443168e-01
9.452836e-01
8.825041e-01
8.296923e-01
8.005316e-01
7.866079e-01
7.762144e-01
7.641221e-01
7.485486e-01
7.293701e-01
7.065193e-01
6.791483e-01
6.474547e-01
6.198432e-01
6.243475e-01
6.934871e-01
8.090398e-01
8.346277e-01
7.538747e-01
6.924337e-01
6.653943e-01
6.578589e-01
6.534885e-01
6.482273e-01
6.430867e-01
6.389036e-01
6.355358e-01
6.335922e-01
6.387483e-01
6.658318e-01
7.321024e-01
8.344063e-01
9.401601e-01
5.186043e-01
4.064398e-01
3.899095e-01
3.673519e-01
3.778239e-01
3.945244e-01
4.118579e-01
4.403201e-01
4.857972e-01
5.462599e-01
6.152333e-01
6.882367e-01
7.670067e-01
8.542091e-01
9.372033e-01
9.895572e-01
-4.053677e-01
-1.838264e-01
-1.076594e-01
-1.362912e-01
-1.024305e-01
-5.601769e-02
-4.653286e-03
7.670351e-02
2.022277e-01
3.667545e-01
5.496301e-01
7.230996e-01
8.613725e-01
9.494939e-01
9.901040e-01
9.997947e-01
1 2 19 18
2 3 20 19
3 4 21 20
4 5 22 21
5 6 23 22
6 7 24 23
7 8 25 24
8 9 26 25
9 10 27 26
10 11 28 27
11 12 29 28
12 13 30 29
13 14 31 30
14 15 32 31
15 16 33 32
16 17 34 33
18 19 36 35
19 20 37 36
20 21 38 37
21 22 39 38
22 23 40 39
23 24 41 40
24 25 42 41
25 26 43 42
26 27 44 43
27 28 45 44
28 29 46 45
29 30 47 46
30 31 48 47
31 32 49 48
32 33 50 49
33 34 51 50
35 36 53 52
36 37 54 53
37 38 55 54
38 39 56 55
39 40 57 56
40 41 58 57
41 42 59 58
42 43 60 59
43 44 61 60
44 45 62 61
45 46 63 62
46 47 64 63
47 48 65 64
48 49 66 65
49 50 67 66
50 51 68 67
52 53 70 69
53 54 71 70
54 55 72 71
55 56 73 72
56 57 74 73
57 58 75 74
58 59 76 75
59 60 77 76
60 61 78 77
61 62 79 78
62 63 80 79
63 64 81 80
64 65 82 81
65 66 83 82
66 67 84 83
67 68 85 84
69 70 87 86
70 71 88 87
71 72 89 88
72 73 90 89
73 74 91 90
74 75 92 91
75 76 93 92
76 77 94 93
77 78 95 94
78 79 96 95
79 80 97 96
80 81 98 97
81 82 99 98
82 83 100 99
83 84 101 100
84 85 102 101
86 87 104 103
87 88 105 104
88 89 106 105
89 90 107 106
90 91 108 107
91 92 109 108
92 93 110 109
93 94 111 110
94 95 112 111
95 96 113 112
96 97 114 113
97 98 115 114
98 99 116 115
99 100 117 116
100 101 118 117
101 102 119 118
103 104 121 120
104 105 122 121
105 106 123 122
106 107 124 123
107 108 125 124
108 109 126 125
109 110 127 126
110 111 128 127
111 112 129 128
112 113 130 129
113 114 131 130
114 115 132 131
115 116 133 132
116 117 134 133
117 118 135 134
118 119 136 135
120 121 138 137
121 122 139 138
122 123 140 139
123 124 141 140
124 125 142 141
125 126 143 142
126 127 144 143
127 128 145 144
128 129 146 145
129 130 147 146
130 131 148 147
131 132 149 148
132 133 150 149
133 134 151 150
134 135 152 151
135 136 153 152
