TITLE = "Solution"
VARIABLES = x, y, u, v, psiu, psiv, t, stress
ZONE T="structure" N=153 E=128 F=FEBLOCK ET=QUADRILATERAL VARLOCATION=([7,8]=cellcentered)
0.000000e+00
1.250000e+01
2.500000e+01
3.750000e+01
5.000000e+01
6.250000e+01
7.500000e+01
8.750000e+01
1.000000e+02
1.125000e+02
1.250000e+02
1.375000e+02
1.500000e+02
1.625000e+02
1.750000e+02
1.875000e+02
2.000000e+02
0.000000e+00
1.250000e+01
2.500000e+01
3.750000e+01
5.000000e+01
6.250000e+01
7.500000e+01
8.750000e+01
1.000000e+02
1.125000e+02
1.250000e+02
1.375000e+02
1.500000e+02
1.625000e+02
1.750000e+02
1.875000e+02
2.000000e+02
0.000000e+00
1.250000e+01
2.500000e+01
3.750000e+01
5.000000e+01
6.250000e+01
7.500000e+01
8.750000e+01
1.000000e+02
1.125000e+02
1.250000e+02
1.375000e+02
1.500000e+02
1.625000e+02
1.750000e+02
1.875000e+02
2.000000e+02
0.000000e+00
1.250000e+01
2.500000e+01
3.750000e+01
5.000000e+01
6.250000e+01
7.500000e+01
8.750000e+01
1.000000e+02
1.125000e+02
1.250000e+02
1.375000e+02
1.500000e+02
1.625000e+02
1.750000e+02
1.875000e+02
2.000000e+02
0.000000e+00
1.250000e+01
2.500000e+01
3.750000e+01
5.000000e+01
6.250000e+01
7.500000e+01
8.750000e+01
1.000000e+02
1.125000e+02
1.250000e+02
1.375000e+02
1.500000e+02
1.625000e+02
1.750000e+02
1.875000e+02
2.000000e+02
0.000000e+00
1.250000e+01
2.500000e+01
3.750000e+01
5.000000e+01
6.250000e+01
7.500000e+01
8.750000e+01
1.000000e+02
1.125000e+02
1.250000e+02
1.375000e+02
1.500000e+02
1.625000e+02
1.750000e+02
1.875000e+02
2.000000e+02
0.000000e+00
1.250000e+01
2.500000e+01
3.750000e+01
5.000000e+01
6.250000e+01
7.500000e+01
8.750000e+01
1.000000e+02
1.125000e+02
1.250000e+02
1.375000e+02
1.500000e+02
1.625000e+02
1.750000e+02
1.875000e+02
2.000000e+02
0.000000e+00
1.250000e+01
2.500000e+01
3.750000e+01
5.000000e+01
6.250000e+01
7.500000e+01
8.750000e+01
1.000000e+02
1.125000e+02
1.250000e+02
1.375000e+02
1.500000e+02
1.625000e+02
1.750000e+02
1.875000e+02
2.000000e+02
0.000000e+00
1.250000e+01
2.500000e+01
3.750000e+01
5.000000e+01
6.250000e+01
7.500000e+01
8.750000e+01
1.000000e+02
1.125000e+02
1.250000e+02
1.375000e+02
1.500000e+02
1.625000e+02
1.750000e+02
1.875000e+02
2.000000e+02
0.000000e+00
0.000000e+00
0.000000e+00
0.000000e+00
0.000000e+00
0.000000e+00
0.000000e+00
0.000000e+00
0.000000e+00
0.000000e+00
0.000000e+00
0.000000e+00
0.000000e+00
0.000000e+00
0.000000e+00
0.000000e+00
0.000000e+00
1.250000e+01
1.250000e+01
1.250000e+01
1.250000e+01
1.250000e+01
1.250000e+01
1.250000e+01
1.250000e+01
1.250000e+01
1.250000e+01
1.250000e+01
1.250000e+01
1.250000e+01
1.250000e+01
1.250000e+01
1.250000e+01
1.250000e+01
2.500000e+01
2.500000e+01
2.500000e+01
2.500000e+01
2.500000e+01
2.500000e+01
2.500000e+01
2.500000e+01
2.500000e+01
2.500000e+01
2.500000e+01
2.500000e+01
2.500000e+01
2.500000e+01
2.500000e+01
2.500000e+01
2.500000e+01
3.750000e+01
3.750000e+01
3.750000e+01
3.750000e+01
3.750000e+01
3.750000e+01
3.750000e+01
3.750000e+01
3.750000e+01
3.750000e+01
3.750000e+01
3.750000e+01
3.750000e+01
3.750000e+01
3.750000e+01
3.750000e+01
3.750000e+01
5.000000e+01
5.000000e+01
5.000000e+01
5.000000e+01
5.000000e+01
5.000000e+01
5.000000e+01
5.000000e+01
5.000000e+01
5.000000e+01
5.000000e+01
5.000000e+01
5.000000e+01
5.000000e+01
5.000000e+01
5.000000e+01
5.000000e+01
6.250000e+01
6.250000e+01
6.250000e+01
6.250000e+01
6.250000e+01
6.250000e+01
6.250000e+01
6.250000e+01
6.250000e+01
6.250000e+01
6.250000e+01
6.250000e+01
6.250000e+01
6.250000e+01
6.250000e+01
6.250000e+01
6.250000e+01
7.500000e+01
7.500000e+01
7.500000e+01
7.500000e+01
7.500000e+01
7.500000e+01
7.500000e+01
7.500000e+01
7.500000e+01
7.500000e+01
7.500000e+01
7.500000e+01
7.500000e+01
7.500000e+01
7.500000e+01
7.500000e+01
7.500000e+01
8.750000e+01
8.750000e+01
8.750000e+01
8.750000e+01
8.750000e+01
8.750000e+01
8.750000e+01
8.750000e+01
8.750000e+01
8.750000e+01
8.750000e+01
8.750000e+01
8.750000e+01
8.750000e+01
8.750000e+01
8.750000e+01
8.750000e+01
1.000000e+02
1.000000e+02
1.000000e+02
1.000000e+02
1.000000e+02
1.000000e+02
1.000000e+02
1.000000e+02
1.000000e+02
1.000000e+02
1.000000e+02
1.000000e+02
1.000000e+02
1.000000e+02
1.000000e+02
1.000000e+02
1.000000e+02
0.000000e+00
-9.694548e-02
-1.785074e-01
-2.535549e-01
-3.234451e-01
-3.880306e-01
-4.471729e-01
-5.008259e-01
-5.490678e-01
-5.921208e-01
-6.304116e-01
-6.646887e-01
-6.962395e-01
-7.272882e-01
-7.616706e-01
-8.038965e-01
-8.355824e-01
0.000000e+00
-5.789412e-02
-1.202638e-01
-1.778582e-01
-2.309203e-01
-2.796520e-01
-3.241542e-01
-3.644867e-01
-4.007219e-01
-4.329717e-01
-4.613997e-01
-4.862108e-01
-5.075633e-01
-5.252373e-01
-5.377039e-01
-5.404363e-01
-5.502328e-01
0.000000e+00
-3.620533e-02
-7.444721e-02
-1.125992e-01
-1.482128e-01
-1.809112e-01
-2.106676e-01
-2.375159e-01
-2.614626e-01
-2.824677e-01
-3.004184e-01
-3.150636e-01
-3.258815e-01
-3.319203e-01
-3.320879e-01
-3.296755e-01
-3.396672e-01
0.000000e+00
-1.747493e-02
-3.597448e-02
-5.459087e-02
-7.239151e-02
-8.878701e-02
-1.036479e-01
-1.169310e-01
-1.285601e-01
-1.383840e-01
-1.461516e-01
-1.514962e-01
-1.539805e-01
-1.534001e-01
-1.510156e-01
-1.516677e-01
-1.591075e-01
0.000000e+00
-1.609779e-05
-3.659531e-05
-5.702553e-05
-6.786823e-05
-4.789383e-05
4.503575e-05
2.865321e-04
8.006462e-04
1.772159e-03
3.442143e-03
6.052776e-03
9.669496e-03
1.375657e-02
1.657980e-02
1.580548e-02
1.087966e-02
0.000000e+00
1.745016e-02
3.591698e-02
5.449889e-02
7.227710e-02
8.869396e-02
1.036840e-01
1.173206e-01
1.297219e-01
1.410319e-01
1.513982e-01
1.608977e-01
1.693652e-01
1.761553e-01
1.801495e-01
1.804663e-01
1.779661e-01
0.000000e+00
3.620126e-02
7.443482e-02
1.125745e-01
1.481743e-01
1.808632e-01
2.106279e-01
2.375288e-01
2.616217e-01
2.829495e-01
3.015306e-01
3.173197e-01
3.301353e-01
3.396103e-01
3.452973e-01
3.471440e-01
3.465609e-01
0.000000e+00
5.791787e-02
1.203154e-01
1.779405e-01
2.310308e-01
2.797702e-01
3.242206e-01
3.643654e-01
4.001435e-01
4.314517e-01
4.581413e-01
4.800278e-01
4.969362e-01
5.088106e-01
5.158938e-01
5.189145e-01
5.194693e-01
0.000000e+00
9.698520e-02
1.786121e-01
2.537511e-01
3.237586e-01
3.884716e-01
4.476989e-01
5.012682e-01
5.490005e-01
5.906476e-01
6.258484e-01
6.541337e-01
6.750389e-01
6.883996e-01
6.948609e-01
6.964558e-01
6.964250e-01
0.000000e+00
-5.868377e-02
-1.152031e-01
-1.884389e-01
-2.783208e-01
-3.846805e-01
-5.063533e-01
-6.419775e-01
-7.901108e-01
-9.493304e-01
-1.118322e+00
-1.296038e+00
-1.482052e+00
-1.677356e+00
-1.887016e+00
-2.126906e+00
-2.471585e+00
0.000000e+00
-3.612681e-02
-9.508572e-02
-1.692297e-01
-2.605806e-01
-3.683918e-01
-4.915386e-01
-6.286260e-01
-7.781951e-01
-9.387972e-01
-1.109081e+00
-1.287954e+00
-1.474919e+00
-1.670944e+00
-1.880523e+00
-2.118957e+00
-2.411065e+00
0.000000e+00
-2.726088e-02
-8.113936e-02
-1.555570e-01
-2.477715e-01
-3.566925e-01
-4.809712e-01
-6.191992e-01
-7.699277e-01
-9.317284e-01
-1.103277e+00
-1.283516e+00
-1.471998e+00
-1.669531e+00
-1.879290e+00
-2.105215e+00
-2.323862e+00
0.000000e+00
-2.349149e-02
-7.420530e-02
-1.475315e-01
-2.400794e-01
-3.496708e-01
-4.747243e-01
-6.137780e-01
-7.654102e-01
-9.282316e-01
-1.100946e+00
-1.282476e+00
-1.472161e+00
-1.669912e+00
-1.875475e+00
-2.083068e+00
-2.274309e+00
0.000000e+00
-2.240560e-02
-7.210673e-02
-1.449713e-01
-2.375444e-01
-3.474085e-01
-4.728216e-01
-6.123230e-01
-7.645180e-01
-9.280399e-01
-1.101564e+00
-1.283842e+00
-1.473696e+00
-1.669726e+00
-1.868998e+00
-2.064697e+00
-2.244984e+00
0.000000e+00
-2.347754e-02
-7.419538e-02
-1.475492e-01
-2.401662e-01
-3.498993e-01
-4.752131e-01
-6.147039e-01
-7.670064e-01
-9.307474e-01
-1.104516e+00
-1.286803e+00
-1.475844e+00
-1.669235e+00
-1.863259e+00
-2.052248e+00
-2.228686e+00
0.000000e+00
-2.723814e-02
-8.112291e-02
-1.555865e-01
-2.479177e-01
-3.570791e-01
-4.818000e-01
-6.207713e-01
-7.726416e-01
-9.360140e-01
-1.109383e+00
-1.291006e+00
-1.478695e+00
-1.669552e+00
-1.859815e+00
-2.045176e+00
-2.221498e+00
0.000000e+00
-3.610548e-02
-9.507140e-02
-1.692689e-01
-2.607561e-01
-3.688464e-01
-4.925033e-01
-6.304430e-01
-7.813126e-01
-9.436898e-01
-1.116007e+00
-1.296398e+00
-1.482488e+00
-1.671220e+00
-1.858952e+00
-2.042252e+00
-2.219810e+00
0.000000e+00
-5.867496e-02
-1.152043e-01
-1.884995e-01
-2.785242e-01
-3.851664e-01
-5.073405e-01
-6.437786e-01
-7.931136e-01
-9.538981e-01
-1.124527e+00
-1.303092e+00
-1.487204e+00
-1.673871e+00
-1.859685e+00
-2.041718e+00
-2.219837e+00


0.000000e+00
1.755115e-09
3.629414e-09
5.288805e-09
6.689241e-09
7.826178e-09
8.720705e-09
9.406358e-09
9.918737e-09
1.029205e-08
1.055767e-08
1.074383e-08
1.087635e-08
1.097919e-08
1.107490e-08
1.119314e-08
1.133518e-08
0.000000e+00
1.194253e-09
2.813519e-09
4.131845e-09
5.188272e-09
6.022379e-09
6.665747e-09
7.150439e-09
7.506108e-09
7.759162e-09
7.932501e-09
8.045094e-09
8.111255e-09
8.143790e-09
8.176788e-09
8.273476e-09
8.419726e-09
0.000000e+00
8.890522e-10
1.953887e-09
2.843168e-09
3.557180e-09
4.108043e-09
4.522391e-09
4.826720e-09
5.043604e-09
5.191705e-09
5.286317e-09
5.339960e-09
5.363819e-09
5.373050e-09
5.396321e-09
5.472183e-09
5.590610e-09
0.000000e+00
4.757421e-10
9.743117e-10
1.419129e-09
1.782787e-09
2.060599e-09
2.265624e-09
2.412719e-09
2.514194e-09
2.579860e-09
2.617925e-09
2.636154e-09
2.643556e-09
2.651694e-09
2.672199e-09
2.718299e-09
2.791162e-09
0.000000e+00
-5.192753e-13
-1.219151e-12
-2.191324e-12
-3.590475e-12
-5.625190e-12
-8.566640e-12
-1.272657e-11
-1.837333e-11
-2.552224e-11
-3.354426e-11
-4.059224e-11
-4.333250e-11
-3.849097e-11
-2.587916e-11
-3.661231e-12
3.429806e-11
0.000000e+00
-4.766339e-10
-9.763742e-10
-1.422825e-09
-1.788766e-09
-2.069801e-09
-2.279357e-09
-2.432741e-09
-2.542712e-09
-2.619327e-09
-2.670380e-09
-2.701740e-09
-2.717892e-09
-2.723239e-09
-2.722960e-09
-2.717470e-09
-2.701253e-09
0.000000e+00
-8.895111e-10
-1.955149e-09
-2.845504e-09
-3.560899e-09
-4.113480e-09
-4.529883e-09
-4.836610e-09
-5.056312e-09
-5.207953e-09
-5.307567e-09
-5.368932e-09
-5.403933e-09
-5.422683e-09
-5.432758e-09
-5.436203e-09
-5.431639e-09
0.000000e+00
-1.194415e-09
-2.814317e-09
-4.133261e-09
-5.190246e-09
-6.024703e-09
-6.667908e-09
-7.151515e-09
-7.504766e-09
-7.753914e-09
-7.922350e-09
-8.030744e-09
-8.096899e-09
-8.135317e-09
-8.156477e-09
-8.166112e-09
-8.167457e-09
0.000000e+00
-1.755883e-09
-3.630673e-09
-5.290211e-09
-6.690376e-09
-7.826300e-09
-8.718633e-09
-9.400363e-09
-9.906517e-09
-1.027077e-08
-1.052388e-08
-1.069294e-08
-1.080069e-08
-1.086508e-08
-1.089907e-08
-1.091208e-08
-1.091433e-08
0.000000e+00
1.594896e-09
2.865679e-09
4.198707e-09
5.798639e-09
7.681703e-09
9.809645e-09
1.213267e-08
1.460303e-08
1.718136e-08
1.983745e-08
2.255062e-08
2.531245e-08
2.814097e-08
3.111208e-08
3.426498e-08
3.745828e-08
0.000000e+00
8.575078e-10
2.099534e-09
3.522851e-09
5.244592e-09
7.244890e-09
9.475775e-09
1.188401e-08
1.442303e-08
1.705514e-08
1.975209e-08
2.249504e-08
2.527622e-08
2.810412e-08
3.101508e-08
3.408036e-08
3.722203e-08
0.000000e+00
4.229869e-10
1.498335e-09
2.995029e-09
4.816460e-09
6.913300e-09
9.226062e-09
1.170091e-08
1.429300e-08
1.696672e-08
1.969559e-08
2.246209e-08
2.525695e-08
2.807520e-08
3.092022e-08
3.388427e-08
3.694181e-08
0.000000e+00
2.410000e-10
1.214790e-09
2.718436e-09
4.591770e-09
6.741706e-09
9.098999e-09
1.160937e-08
1.422955e-08
1.692540e-08
1.967129e-08
2.244930e-08
2.524704e-08
2.805209e-08
3.086136e-08
3.374494e-08
3.669664e-08
0.000000e+00
1.948426e-10
1.137523e-09
2.634696e-09
4.522678e-09
6.689449e-09
9.061038e-09
1.158290e-08
1.421239e-08
1.691582e-08
1.966733e-08
2.244785e-08
2.524286e-08
2.803961e-08
3.083371e-08
3.366535e-08
3.652219e-08
0.000000e+00
2.413250e-10
1.215241e-09
2.719046e-09
4.592634e-09
6.743082e-09
9.101336e-09
1.161331e-08
1.423577e-08
1.693423e-08
1.968187e-08
2.245831e-08
2.524807e-08
2.803934e-08
3.082743e-08
3.362695e-08
3.642178e-08
0.000000e+00
4.235008e-10
1.499148e-09
2.996233e-09
4.818240e-09
6.916157e-09
9.230833e-09
1.170878e-08
1.430522e-08
1.698401e-08
1.971679e-08
2.248178e-08
2.526253e-08
2.804720e-08
3.082944e-08
3.360997e-08
3.637490e-08
0.000000e+00
8.582288e-10
2.100883e-09
3.524848e-09
5.247478e-09
7.249247e-09
9.482533e-09
1.189445e-08
1.443852e-08
1.707652e-08
1.977825e-08
2.252031e-08
2.528489e-08
2.805895e-08
3.083377e-08
3.360350e-08
3.635925e-08
0.000000e+00
1.596048e-09
2.867660e-09
4.201485e-09
5.802427e-09
7.686938e-09
9.817061e-09
1.214323e-08
1.461775e-08
1.720075e-08
1.986026e-08
2.257118e-08
2.531400e-08
2.807391e-08
3.083989e-08
3.360306e-08
3.635686e-08


2.832662e-01
2.832662e-01
2.832664e-01
2.832666e-01
2.832668e-01
2.832670e-01
2.832672e-01
2.832673e-01
2.832673e-01
2.832674e-01
2.832674e-01
2.832675e-01
2.832675e-01
2.832674e-01
2.832674e-01
2.832674e-01
2.832665e-01
2.832665e-01
2.832666e-01
2.832668e-01
2.832670e-01
2.832671e-01
2.832672e-01
2.832673e-01
2.832674e-01
2.832674e-01
2.832674e-01
2.832675e-01
2.832675e-01
2.832674e-01
2.832674e-01
2.832674e-01
2.832669e-01
2.832669e-01
2.832670e-01
2.832671e-01
2.832672e-01
2.832673e-01
2.832673e-01
2.832674e-01
2.832674e-01
2.832674e-01
2.832675e-01
2.832675e-01
2.832675e-01
2.832674e-01
2.832674e-01
2.832674e-01
2.832672e-01
2.832672e-01
2.832672e-01
2.832673e-01
2.832673e-01
2.832674e-01
2.832674e-01
2.832674e-01
2.832674e-01
2.832675e-01
2.832675e-01
2.832675e-01
2.832675e-01
2.832675e-01
2.832674e-01
2.832674e-01
2.832672e-01
2.832672e-01
2.832672e-01
2.832673e-01
2.832673e-01
2.832674e-01
2.832674e-01
2.832674e-01
2.832674e-01
2.832675e-01
2.832675e-01
2.832675e-01
2.832675e-01
2.832675e-01
2.832675e-01
2.832674e-01
2.832669e-01
2.832669e-01
2.832670e-01
2.832671e-01
2.832672e-01
2.832673e-01
2.832673e-01
2.832674e-01
2.832674e-01
2.832674e-01
2.832675e-01
2.832675e-01
2.832675e-01
2.832675e-01
2.832675e-01
2.832675e-01
2.832665e-01
2.832665e-01
2.832666e-01
2.832668e-01
2.832670e-01
2.832671e-01
2.832672e-01
2.832673e-01
2.832674e-01
2.832674e-01
2.832674e-01
2.832675e-01
2.832675e-01
2.832675e-01
2.832675e-01
2.832675e-01
2.832662e-01
2.832662e-01
2.832664e-01
2.832666e-01
2.832668e-01
2.832670e-01
2.832672e-01
2.832673e-01
2.832673e-01
2.832674e-01
2.832674e-01
2.832675e-01
2.832675e-01
2.832675e-01
2.832675e-01
2.832675e-01


9.788551e-01
9.818536e-01
9.846274e-01
9.867627e-01
9.887447e-01
9.905723e-01
9.922374e-01
9.937203e-01
9.950057e-01
9.960807e-01
9.969355e-01
9.975617e-01
9.979510e-01
9.980898e-01
9.981900e-01
9.920105e-01
9.920005e-01
9.906264e-01
9.915105e-01
9.926643e-01
9.937400e-01
9.947177e-01
9.956028e-01
9.964045e-01
9.971303e-01
9.977878e-01
9.983844e-01
9.989246e-01
9.993958e-01
9.997044e-01
9.989240e-01
9.883459e-01
9.972205e-01
9.964313e-01
9.962183e-01
9.965180e-01
9.969122e-01
9.972941e-01
9.976486e-01
9.979836e-01
9.983081e-01
9.986246e-01
9.989201e-01
9.991488e-01
9.991966e-01
9.987846e-01
9.972899e-01
9.946017e-01
9.994343e-01
9.988587e-01
9.985032e-01
9.984130e-01
9.984490e-01
9.985094e-01
9.985698e-01
9.986287e-01
9.986866e-01
9.987351e-01
9.987486e-01
9.986765e-01
9.984480e-01
9.980378e-01
9.976900e-01
9.976019e-01
9.994364e-01
9.988617e-01
9.985058e-01
9.984124e-01
9.984400e-01
9.984836e-01
9.985139e-01
9.985240e-01
9.985101e-01
9.984656e-01
9.983826e-01
9.982630e-01
9.981491e-01
9.981718e-01
9.984937e-01
9.990509e-01
9.972245e-01
9.964373e-01
9.962240e-01
9.965180e-01
9.968969e-01
9.972468e-01
9.975429e-01
9.977809e-01
9.979591e-01
9.980791e-01
9.981550e-01
9.982292e-01
9.983850e-01
9.987117e-01
9.992025e-01
9.997100e-01
9.919997e-01
9.906258e-01
9.915092e-01
9.926610e-01
9.937316e-01
9.946985e-01
9.955630e-01
9.963284e-01
9.969953e-01
9.975654e-01
9.980481e-01
9.984696e-01
9.988755e-01
9.993010e-01
9.996990e-01
9.999496e-01
9.788407e-01
9.818310e-01
9.845998e-01
9.867317e-01
9.887168e-01
9.905622e-01
9.922718e-01
9.938415e-01
9.952718e-01
9.965599e-01
9.976905e-01
9.986283e-01
9.993260e-01
9.997564e-01
9.999523e-01
9.999990e-01
1 2 19 18
2 3 20 19
3 4 21 20
4 5 22 21
5 6 23 22
6 7 24 23
7 8 25 24
8 9 26 25
9 10 27 26
10 11 28 27
11 12 29 28
12 13 30 29
13 14 31 30
14 15 32 31
15 16 33 32
16 17 34 33
18 19 36 35
19 20 37 36
20 21 38 37
21 22 39 38
22 23 40 39
23 24 41 40
24 25 42 41
25 26 43 42
26 27 44 43
27 28 45 44
28 29 46 45
29 30 47 46
30 31 48 47
31 32 49 48
32 33 50 49
33 34 51 50
35 36 53 52
36 37 54 53
37 38 55 54
38 39 56 55
39 40 57 56
40 41 58 57
41 42 59 58
42 43 60 59
43 44 61 60
44 45 62 61
45 46 63 62
46 47 64 63
47 48 65 64
48 49 66 65
49 50 67 66
50 51 68 67
52 53 70 69
53 54 71 70
54 55 72 71
55 56 73 72
56 57 74 73
57 58 75 74
58 59 76 75
59 60 77 76
60 61 78 77
61 62 79 78
62 63 80 79
63 64 81 80
64 65 82 81
65 66 83 82
66 67 84 83
67 68 85 84
69 70 87 86
70 71 88 87
71 72 89 88
72 73 90 89
73 74 91 90
74 75 92 91
75 76 93 92
76 77 94 93
77 78 95 94
78 79 96 95
79 80 97 96
80 81 98 97
81 82 99 98
82 83 100 99
83 84 101 100
84 85 102 101
86 87 104 103
87 88 105 104
88 89 106 105
89 90 107 106
90 91 108 107
91 92 109 108
92 93 110 109
93 94 111 110
94 95 112 111
95 96 113 112
96 97 114 113
97 98 115 114
98 99 116 115
99 100 117 116
100 101 118 117
101 102 119 118
103 104 121 120
104 105 122 121
105 106 123 122
106 107 124 123
107 108 125 124
108 109 126 125
109 110 127 126
110 111 128 127
111 112 129 128
112 113 130 129
113 114 131 130
114 115 132 131
115 116 133 132
116 117 134 133
117 118 135 134
118 119 136 135
120 121 138 137
121 122 139 138
122 123 140 139
123 124 141 140
124 125 142 141
125 126 143 142
126 127 144 143
127 128 145 144
128 129 146 145
129 130 147 146
130 131 148 147
131 132 149 148
132 133 150 149
133 134 151 150
134 135 152 151
135 136 153 152
