TITLE = "Solution"
VARIABLES = x, y, u, v, psiu, psiv, t, stress
ZONE T="structure" N=153 E=128 F=FEBLOCK ET=QUADRILATERAL VARLOCATION=([7,8]=cellcentered)
0.000000e+00
1.250000e+01
2.500000e+01
3.750000e+01
5.000000e+01
6.250000e+01
7.500000e+01
8.750000e+01
1.000000e+02
1.125000e+02
1.250000e+02
1.375000e+02
1.500000e+02
1.625000e+02
1.750000e+02
1.875000e+02
2.000000e+02
0.000000e+00
1.250000e+01
2.500000e+01
3.750000e+01
5.000000e+01
6.250000e+01
7.500000e+01
8.750000e+01
1.000000e+02
1.125000e+02
1.250000e+02
1.375000e+02
1.500000e+02
1.625000e+02
1.750000e+02
1.875000e+02
2.000000e+02
0.000000e+00
1.250000e+01
2.500000e+01
3.750000e+01
5.000000e+01
6.250000e+01
7.500000e+01
8.750000e+01
1.000000e+02
1.125000e+02
1.250000e+02
1.375000e+02
1.500000e+02
1.625000e+02
1.750000e+02
1.875000e+02
2.000000e+02
0.000000e+00
1.250000e+01
2.500000e+01
3.750000e+01
5.000000e+01
6.250000e+01
7.500000e+01
8.750000e+01
1.000000e+02
1.125000e+02
1.250000e+02
1.375000e+02
1.500000e+02
1.625000e+02
1.750000e+02
1.875000e+02
2.000000e+02
0.000000e+00
1.250000e+01
2.500000e+01
3.750000e+01
5.000000e+01
6.250000e+01
7.500000e+01
8.750000e+01
1.000000e+02
1.125000e+02
1.250000e+02
1.375000e+02
1.500000e+02
1.625000e+02
1.750000e+02
1.875000e+02
2.000000e+02
0.000000e+00
1.250000e+01
2.500000e+01
3.750000e+01
5.000000e+01
6.250000e+01
7.500000e+01
8.750000e+01
1.000000e+02
1.125000e+02
1.250000e+02
1.375000e+02
1.500000e+02
1.625000e+02
1.750000e+02
1.875000e+02
2.000000e+02
0.000000e+00
1.250000e+01
2.500000e+01
3.750000e+01
5.000000e+01
6.250000e+01
7.500000e+01
8.750000e+01
1.000000e+02
1.125000e+02
1.250000e+02
1.375000e+02
1.500000e+02
1.625000e+02
1.750000e+02
1.875000e+02
2.000000e+02
0.000000e+00
1.250000e+01
2.500000e+01
3.750000e+01
5.000000e+01
6.250000e+01
7.500000e+01
8.750000e+01
1.000000e+02
1.125000e+02
1.250000e+02
1.375000e+02
1.500000e+02
1.625000e+02
1.750000e+02
1.875000e+02
2.000000e+02
0.000000e+00
1.250000e+01
2.500000e+01
3.750000e+01
5.000000e+01
6.250000e+01
7.500000e+01
8.750000e+01
1.000000e+02
1.125000e+02
1.250000e+02
1.375000e+02
1.500000e+02
1.625000e+02
1.750000e+02
1.875000e+02
2.000000e+02
0.000000e+00
0.000000e+00
0.000000e+00
0.000000e+00
0.000000e+00
0.000000e+00
0.000000e+00
0.000000e+00
0.000000e+00
0.000000e+00
0.000000e+00
0.000000e+00
0.000000e+00
0.000000e+00
0.000000e+00
0.000000e+00
0.000000e+00
1.250000e+01
1.250000e+01
1.250000e+01
1.250000e+01
1.250000e+01
1.250000e+01
1.250000e+01
1.250000e+01
1.250000e+01
1.250000e+01
1.250000e+01
1.250000e+01
1.250000e+01
1.250000e+01
1.250000e+01
1.250000e+01
1.250000e+01
2.500000e+01
2.500000e+01
2.500000e+01
2.500000e+01
2.500000e+01
2.500000e+01
2.500000e+01
2.500000e+01
2.500000e+01
2.500000e+01
2.500000e+01
2.500000e+01
2.500000e+01
2.500000e+01
2.500000e+01
2.500000e+01
2.500000e+01
3.750000e+01
3.750000e+01
3.750000e+01
3.750000e+01
3.750000e+01
3.750000e+01
3.750000e+01
3.750000e+01
3.750000e+01
3.750000e+01
3.750000e+01
3.750000e+01
3.750000e+01
3.750000e+01
3.750000e+01
3.750000e+01
3.750000e+01
5.000000e+01
5.000000e+01
5.000000e+01
5.000000e+01
5.000000e+01
5.000000e+01
5.000000e+01
5.000000e+01
5.000000e+01
5.000000e+01
5.000000e+01
5.000000e+01
5.000000e+01
5.000000e+01
5.000000e+01
5.000000e+01
5.000000e+01
6.250000e+01
6.250000e+01
6.250000e+01
6.250000e+01
6.250000e+01
6.250000e+01
6.250000e+01
6.250000e+01
6.250000e+01
6.250000e+01
6.250000e+01
6.250000e+01
6.250000e+01
6.250000e+01
6.250000e+01
6.250000e+01
6.250000e+01
7.500000e+01
7.500000e+01
7.500000e+01
7.500000e+01
7.500000e+01
7.500000e+01
7.500000e+01
7.500000e+01
7.500000e+01
7.500000e+01
7.500000e+01
7.500000e+01
7.500000e+01
7.500000e+01
7.500000e+01
7.500000e+01
7.500000e+01
8.750000e+01
8.750000e+01
8.750000e+01
8.750000e+01
8.750000e+01
8.750000e+01
8.750000e+01
8.750000e+01
8.750000e+01
8.750000e+01
8.750000e+01
8.750000e+01
8.750000e+01
8.750000e+01
8.750000e+01
8.750000e+01
8.750000e+01
1.000000e+02
1.000000e+02
1.000000e+02
1.000000e+02
1.000000e+02
1.000000e+02
1.000000e+02
1.000000e+02
1.000000e+02
1.000000e+02
1.000000e+02
1.000000e+02
1.000000e+02
1.000000e+02
1.000000e+02
1.000000e+02
1.000000e+02
0.000000e+00
-7.301506e-02
-1.344439e-01
-1.909663e-01
-2.436045e-01
-2.922474e-01
-3.367906e-01
-3.771996e-01
-4.135332e-01
-4.459587e-01
-4.747975e-01
-5.006135e-01
-5.243761e-01
-5.477605e-01
-5.736557e-01
-6.054583e-01
-6.293226e-01
0.000000e+00
-4.360331e-02
-9.057738e-02
-1.339549e-01
-1.739190e-01
-2.106215e-01
-2.441385e-01
-2.745150e-01
-3.018058e-01
-3.260948e-01
-3.475054e-01
-3.661920e-01
-3.822737e-01
-3.955850e-01
-4.049742e-01
-4.070321e-01
-4.144104e-01
0.000000e+00
-2.726827e-02
-5.607038e-02
-8.480474e-02
-1.116274e-01
-1.362543e-01
-1.586655e-01
-1.788863e-01
-1.969219e-01
-2.127420e-01
-2.262616e-01
-2.372917e-01
-2.454392e-01
-2.499873e-01
-2.501136e-01
-2.482967e-01
-2.558219e-01
0.000000e+00
-1.316135e-02
-2.709441e-02
-4.111545e-02
-5.452209e-02
-6.687044e-02
-7.806300e-02
-8.806717e-02
-9.682569e-02
-1.042246e-01
-1.100748e-01
-1.141001e-01
-1.159711e-01
-1.155340e-01
-1.137382e-01
-1.142293e-01
-1.198326e-01
0.000000e+00
-1.212404e-05
-2.756176e-05
-4.294878e-05
-5.111494e-05
-3.607108e-05
3.391921e-05
2.158030e-04
6.030098e-04
1.334708e-03
2.592462e-03
4.558668e-03
7.282613e-03
1.036081e-02
1.248713e-02
1.190394e-02
8.194047e-03
0.000000e+00
1.314270e-02
2.705110e-02
4.104617e-02
5.443593e-02
6.680036e-02
7.809018e-02
8.836063e-02
9.770075e-02
1.062189e-01
1.140263e-01
1.211808e-01
1.275582e-01
1.326722e-01
1.356804e-01
1.359190e-01
1.340360e-01
0.000000e+00
2.726521e-02
5.606105e-02
8.478617e-02
1.115984e-01
1.362182e-01
1.586356e-01
1.788961e-01
1.970417e-01
2.131048e-01
2.270993e-01
2.389909e-01
2.486430e-01
2.557791e-01
2.600623e-01
2.614531e-01
2.610140e-01
0.000000e+00
4.362119e-02
9.061628e-02
1.340170e-01
1.740021e-01
2.107105e-01
2.441885e-01
2.744237e-01
3.013701e-01
3.249500e-01
3.450513e-01
3.615353e-01
3.742699e-01
3.832131e-01
3.885479e-01
3.908229e-01
3.912407e-01
0.000000e+00
7.304497e-02
1.345228e-01
1.911142e-01
2.438406e-01
2.925795e-01
3.371868e-01
3.775327e-01
4.134825e-01
4.448491e-01
4.713608e-01
4.926639e-01
5.084087e-01
5.184714e-01
5.233378e-01
5.245390e-01
5.245158e-01
0.000000e+00
-4.419803e-02
-8.676585e-02
-1.419238e-01
-2.096188e-01
-2.897242e-01
-3.813627e-01
-4.835087e-01
-5.950761e-01
-7.149930e-01
-8.422696e-01
-9.761177e-01
-1.116215e+00
-1.263309e+00
-1.421215e+00
-1.601890e+00
-1.861486e+00
0.000000e+00
-2.720911e-02
-7.161434e-02
-1.274563e-01
-1.962577e-01
-2.774563e-01
-3.702049e-01
-4.734530e-01
-5.861017e-01
-7.070599e-01
-8.353103e-01
-9.700287e-01
-1.110842e+00
-1.258480e+00
-1.416325e+00
-1.595903e+00
-1.815905e+00
0.000000e+00
-2.053169e-02
-6.111056e-02
-1.171586e-01
-1.866105e-01
-2.686449e-01
-3.622460e-01
-4.663532e-01
-5.798751e-01
-7.017361e-01
-8.309384e-01
-9.666864e-01
-1.108643e+00
-1.257415e+00
-1.415396e+00
-1.585553e+00
-1.750228e+00
0.000000e+00
-1.769274e-02
-5.588813e-02
-1.111142e-01
-1.808171e-01
-2.633565e-01
-3.575412e-01
-4.622702e-01
-5.764727e-01
-6.991024e-01
-8.291829e-01
-9.659032e-01
-1.108766e+00
-1.257703e+00
-1.412523e+00
-1.568873e+00
-1.712907e+00
0.000000e+00
-1.687489e-02
-5.430758e-02
-1.091860e-01
-1.789079e-01
-2.616526e-01
-3.561082e-01
-4.611743e-01
-5.758007e-01
-6.989581e-01
-8.296484e-01
-9.669320e-01
-1.109922e+00
-1.257563e+00
-1.407645e+00
-1.555037e+00
-1.690820e+00
0.000000e+00
-1.768224e-02
-5.588066e-02
-1.111275e-01
-1.808825e-01
-2.635286e-01
-3.579093e-01
-4.629675e-01
-5.776749e-01
-7.009972e-01
-8.318718e-01
-9.691620e-01
-1.111539e+00
-1.257192e+00
-1.403323e+00
-1.545660e+00
-1.678546e+00
0.000000e+00
-2.051455e-02
-6.109817e-02
-1.171808e-01
-1.867206e-01
-2.689361e-01
-3.628702e-01
-4.675372e-01
-5.819191e-01
-7.049638e-01
-8.355371e-01
-9.723275e-01
-1.113687e+00
-1.257431e+00
-1.400729e+00
-1.540334e+00
-1.673132e+00
0.000000e+00
-2.719305e-02
-7.160356e-02
-1.274858e-01
-1.963899e-01
-2.777987e-01
-3.709315e-01
-4.748214e-01
-5.884497e-01
-7.107448e-01
-8.405262e-01
-9.763885e-01
-1.116543e+00
-1.258688e+00
-1.400079e+00
-1.538132e+00
-1.671861e+00
0.000000e+00
-4.419139e-02
-8.676678e-02
-1.419694e-01
-2.097721e-01
-2.900901e-01
-3.821062e-01
-4.848652e-01
-5.973376e-01
-7.184332e-01
-8.469429e-01
-9.814304e-01
-1.120095e+00
-1.260684e+00
-1.400631e+00
-1.537730e+00
-1.671881e+00


0.000000e+00
2.328553e-10
4.815307e-10
7.018028e-10
8.878361e-10
1.038981e-09
1.157986e-09
1.249264e-09
1.317518e-09
1.367274e-09
1.402694e-09
1.427529e-09
1.445214e-09
1.458938e-09
1.471705e-09
1.487472e-09
1.506405e-09
0.000000e+00
1.583626e-10
3.731756e-10
5.481905e-10
6.885566e-10
7.994771e-10
8.850995e-10
9.496495e-10
9.970461e-10
1.030787e-09
1.053910e-09
1.068935e-09
1.077769e-09
1.082116e-09
1.086523e-09
1.099416e-09
1.118911e-09
0.000000e+00
1.178935e-10
2.591818e-10
3.772507e-10
4.721212e-10
5.453758e-10
6.005209e-10
6.410539e-10
6.699595e-10
6.897094e-10
7.023331e-10
7.094943e-10
7.126823e-10
7.139179e-10
7.170245e-10
7.271404e-10
7.429276e-10
0.000000e+00
6.311012e-11
1.292877e-10
1.883446e-10
2.366545e-10
2.735874e-10
3.008647e-10
3.204495e-10
3.339696e-10
3.427240e-10
3.478014e-10
3.502345e-10
3.512233e-10
3.523092e-10
3.550442e-10
3.611923e-10
3.709084e-10
0.000000e+00
-6.867860e-14
-1.614656e-13
-2.906053e-13
-4.767648e-13
-7.477609e-13
-1.139838e-12
-1.694587e-12
-2.447883e-12
-3.401843e-12
-4.472605e-12
-5.413846e-12
-5.780843e-12
-5.136685e-12
-3.455257e-12
-4.909883e-13
4.573028e-12
0.000000e+00
-6.322792e-11
-1.295605e-10
-1.888342e-10
-2.374477e-10
-2.748093e-10
-3.026905e-10
-3.231138e-10
-3.377673e-10
-3.479829e-10
-3.547941e-10
-3.589806e-10
-3.611388e-10
-3.618548e-10
-3.618187e-10
-3.610857e-10
-3.589215e-10
0.000000e+00
-1.179536e-10
-2.593477e-10
-3.775584e-10
-4.726120e-10
-5.460946e-10
-6.015132e-10
-6.423659e-10
-6.716476e-10
-6.918707e-10
-7.051627e-10
-7.133551e-10
-7.180298e-10
-7.205347e-10
-7.218801e-10
-7.223398e-10
-7.217305e-10
0.000000e+00
-1.583834e-10
-3.732796e-10
-5.483752e-10
-6.888141e-10
-7.997801e-10
-8.853802e-10
-9.497855e-10
-9.968604e-10
-1.030081e-09
-1.052550e-09
-1.067016e-09
-1.075847e-09
-1.080976e-09
-1.083801e-09
-1.085087e-09
-1.085267e-09
0.000000e+00
-2.329568e-10
-4.816961e-10
-7.019864e-10
-8.879824e-10
-1.038991e-09
-1.157703e-09
-1.248458e-09
-1.315882e-09
-1.364430e-09
-1.398181e-09
-1.420734e-09
-1.435113e-09
-1.443705e-09
-1.448241e-09
-1.449978e-09
-1.450278e-09
0.000000e+00
2.116091e-10
3.803428e-10
5.573973e-10
7.699002e-10
1.020006e-09
1.302649e-09
1.611230e-09
1.939413e-09
2.281970e-09
2.634886e-09
2.995409e-09
3.362423e-09
3.738332e-09
4.133253e-09
4.552400e-09
4.976924e-09
0.000000e+00
1.138145e-10
2.786898e-10
4.676605e-10
6.962764e-10
9.619138e-10
1.258214e-09
1.578113e-09
1.915425e-09
2.265141e-09
2.623499e-09
2.987992e-09
3.357585e-09
3.733412e-09
4.120318e-09
4.527790e-09
4.945435e-09
0.000000e+00
5.617440e-11
1.988991e-10
3.975584e-10
6.393708e-10
9.178051e-10
1.224972e-09
1.553722e-09
1.898094e-09
2.253348e-09
2.615960e-09
2.983592e-09
3.355012e-09
3.729552e-09
4.107667e-09
4.501650e-09
4.908083e-09
0.000000e+00
3.200585e-11
1.612422e-10
3.608123e-10
6.095025e-10
8.949791e-10
1.208057e-09
1.541528e-09
1.889635e-09
2.247837e-09
2.612717e-09
2.981885e-09
3.353688e-09
3.726469e-09
4.099817e-09
4.483071e-09
4.875395e-09
0.000000e+00
2.586946e-11
1.509758e-10
3.496880e-10
6.003204e-10
8.880302e-10
1.203006e-09
1.538003e-09
1.887350e-09
2.246560e-09
2.612189e-09
2.981691e-09
3.353131e-09
3.724804e-09
4.096126e-09
4.472452e-09
4.852129e-09
0.000000e+00
3.204922e-11
1.613024e-10
3.608938e-10
6.096181e-10
8.951628e-10
1.208369e-09
1.542053e-09
1.890465e-09
2.249015e-09
2.614129e-09
2.983088e-09
3.353828e-09
3.724770e-09
4.095286e-09
4.467325e-09
4.838734e-09
0.000000e+00
5.624288e-11
1.990077e-10
3.977192e-10
6.396084e-10
9.181864e-10
1.225608e-09
1.554770e-09
1.899723e-09
2.255655e-09
2.618789e-09
2.986221e-09
3.355758e-09
3.725819e-09
4.095553e-09
4.465057e-09
4.832479e-09
0.000000e+00
1.139102e-10
2.788692e-10
4.679262e-10
6.966609e-10
9.624945e-10
1.259115e-09
1.579505e-09
1.917491e-09
2.267992e-09
2.626990e-09
2.991365e-09
3.358744e-09
3.727387e-09
4.096131e-09
4.464194e-09
4.830391e-09
0.000000e+00
2.117615e-10
3.806053e-10
5.577662e-10
7.704039e-10
1.020703e-09
1.303637e-09
1.612637e-09
1.941377e-09
2.284557e-09
2.637929e-09
2.998152e-09
3.362629e-09
3.729384e-09
4.096948e-09
4.464135e-09
4.830071e-09


2.133438e-01
2.133438e-01
2.133438e-01
2.133438e-01
2.133438e-01
2.133438e-01
2.133438e-01
2.133438e-01
2.133438e-01
2.133438e-01
2.133438e-01
2.133438e-01
2.133438e-01
2.133438e-01
2.133438e-01
2.133438e-01
2.133438e-01
2.133438e-01
2.133438e-01
2.133438e-01
2.133438e-01
2.133438e-01
2.133438e-01
2.133438e-01
2.133438e-01
2.133438e-01
2.133438e-01
2.133438e-01
2.133438e-01
2.133438e-01
2.133438e-01
2.133438e-01
2.133438e-01
2.133438e-01
2.133438e-01
2.133438e-01
2.133438e-01
2.133438e-01
2.133438e-01
2.133438e-01
2.133438e-01
2.133438e-01
2.133438e-01
2.133438e-01
2.133438e-01
2.133438e-01
2.133438e-01
2.133438e-01
2.133438e-01
2.133438e-01
2.133438e-01
2.133438e-01
2.133438e-01
2.133438e-01
2.133438e-01
2.133438e-01
2.133438e-01
2.133438e-01
2.133438e-01
2.133438e-01
2.133438e-01
2.133438e-01
2.133438e-01
2.133438e-01
2.133438e-01
2.133438e-01
2.133438e-01
2.133438e-01
2.133438e-01
2.133438e-01
2.133438e-01
2.133438e-01
2.133438e-01
2.133438e-01
2.133438e-01
2.133438e-01
2.133438e-01
2.133438e-01
2.133438e-01
2.133438e-01
2.133438e-01
2.133438e-01
2.133438e-01
2.133438e-01
2.133438e-01
2.133438e-01
2.133438e-01
2.133438e-01
2.133438e-01
2.133438e-01
2.133438e-01
2.133438e-01
2.133438e-01
2.133438e-01
2.133438e-01
2.133438e-01
2.133438e-01
2.133438e-01
2.133438e-01
2.133438e-01
2.133438e-01
2.133438e-01
2.133438e-01
2.133438e-01
2.133438e-01
2.133438e-01
2.133438e-01
2.133438e-01
2.133438e-01
2.133438e-01
2.133438e-01
2.133438e-01
2.133438e-01
2.133438e-01
2.133438e-01
2.133438e-01
2.133438e-01
2.133438e-01
2.133438e-01
2.133438e-01
2.133438e-01
2.133438e-01
2.133438e-01
2.133438e-01
2.133438e-01
2.133438e-01
2.133438e-01
2.133438e-01


9.880057e-01
9.897066e-01
9.912800e-01
9.924912e-01
9.936155e-01
9.946522e-01
9.955967e-01
9.964379e-01
9.971670e-01
9.977768e-01
9.982617e-01
9.986169e-01
9.988377e-01
9.989165e-01
9.989733e-01
9.954680e-01
9.954623e-01
9.946829e-01
9.951844e-01
9.958389e-01
9.964491e-01
9.970037e-01
9.975057e-01
9.979605e-01
9.983722e-01
9.987452e-01
9.990835e-01
9.993900e-01
9.996573e-01
9.998323e-01
9.993897e-01
9.933893e-01
9.984234e-01
9.979757e-01
9.978548e-01
9.980248e-01
9.982485e-01
9.984651e-01
9.986662e-01
9.988562e-01
9.990403e-01
9.992198e-01
9.993874e-01
9.995172e-01
9.995443e-01
9.993106e-01
9.984627e-01
9.969379e-01
9.996791e-01
9.993526e-01
9.991509e-01
9.990998e-01
9.991202e-01
9.991545e-01
9.991887e-01
9.992222e-01
9.992550e-01
9.992825e-01
9.992901e-01
9.992493e-01
9.991196e-01
9.988870e-01
9.986897e-01
9.986397e-01
9.996803e-01
9.993543e-01
9.991525e-01
9.990994e-01
9.991151e-01
9.991398e-01
9.991570e-01
9.991628e-01
9.991549e-01
9.991296e-01
9.990825e-01
9.990147e-01
9.989501e-01
9.989630e-01
9.991456e-01
9.994616e-01
9.984256e-01
9.979791e-01
9.978581e-01
9.980249e-01
9.982398e-01
9.984383e-01
9.986062e-01
9.987412e-01
9.988423e-01
9.989104e-01
9.989534e-01
9.989955e-01
9.990839e-01
9.992693e-01
9.995476e-01
9.998355e-01
9.954619e-01
9.946826e-01
9.951837e-01
9.958370e-01
9.964443e-01
9.969928e-01
9.974831e-01
9.979173e-01
9.982956e-01
9.986190e-01
9.988928e-01
9.991319e-01
9.993621e-01
9.996035e-01
9.998293e-01
9.999714e-01
9.879975e-01
9.896938e-01
9.912643e-01
9.924736e-01
9.935997e-01
9.946465e-01
9.956162e-01
9.965067e-01
9.973180e-01
9.980487e-01
9.986899e-01
9.992219e-01
9.996177e-01
9.998618e-01
9.999729e-01
9.999994e-01
1 2 19 18
2 3 20 19
3 4 21 20
4 5 22 21
5 6 23 22
6 7 24 23
7 8 25 24
8 9 26 25
9 10 27 26
10 11 28 27
11 12 29 28
12 13 30 29
13 14 31 30
14 15 32 31
15 16 33 32
16 17 34 33
18 19 36 35
19 20 37 36
20 21 38 37
21 22 39 38
22 23 40 39
23 24 41 40
24 25 42 41
25 26 43 42
26 27 44 43
27 28 45 44
28 29 46 45
29 30 47 46
30 31 48 47
31 32 49 48
32 33 50 49
33 34 51 50
35 36 53 52
36 37 54 53
37 38 55 54
38 39 56 55
39 40 57 56
40 41 58 57
41 42 59 58
42 43 60 59
43 44 61 60
44 45 62 61
45 46 63 62
46 47 64 63
47 48 65 64
48 49 66 65
49 50 67 66
50 51 68 67
52 53 70 69
53 54 71 70
54 55 72 71
55 56 73 72
56 57 74 73
57 58 75 74
58 59 76 75
59 60 77 76
60 61 78 77
61 62 79 78
62 63 80 79
63 64 81 80
64 65 82 81
65 66 83 82
66 67 84 83
67 68 85 84
69 70 87 86
70 71 88 87
71 72 89 88
72 73 90 89
73 74 91 90
74 75 92 91
75 76 93 92
76 77 94 93
77 78 95 94
78 79 96 95
79 80 97 96
80 81 98 97
81 82 99 98
82 83 100 99
83 84 101 100
84 85 102 101
86 87 104 103
87 88 105 104
88 89 106 105
89 90 107 106
90 91 108 107
91 92 109 108
92 93 110 109
93 94 111 110
94 95 112 111
95 96 113 112
96 97 114 113
97 98 115 114
98 99 116 115
99 100 117 116
100 101 118 117
101 102 119 118
103 104 121 120
104 105 122 121
105 106 123 122
106 107 124 123
107 108 125 124
108 109 126 125
109 110 127 126
110 111 128 127
111 112 129 128
112 113 130 129
113 114 131 130
114 115 132 131
115 116 133 132
116 117 134 133
117 118 135 134
118 119 136 135
120 121 138 137
121 122 139 138
122 123 140 139
123 124 141 140
124 125 142 141
125 126 143 142
126 127 144 143
127 128 145 144
128 129 146 145
129 130 147 146
130 131 148 147
131 132 149 148
132 133 150 149
133 134 151 150
134 135 152 151
135 136 153 152
