TITLE = "Solution"
VARIABLES = x, y, u, v, psiu, psiv, t, stress
ZONE T="structure" N=153 E=128 F=FEBLOCK ET=QUADRILATERAL VARLOCATION=([7,8]=cellcentered)
0.000000e+00
1.250000e+01
2.500000e+01
3.750000e+01
5.000000e+01
6.250000e+01
7.500000e+01
8.750000e+01
1.000000e+02
1.125000e+02
1.250000e+02
1.375000e+02
1.500000e+02
1.625000e+02
1.750000e+02
1.875000e+02
2.000000e+02
0.000000e+00
1.250000e+01
2.500000e+01
3.750000e+01
5.000000e+01
6.250000e+01
7.500000e+01
8.750000e+01
1.000000e+02
1.125000e+02
1.250000e+02
1.375000e+02
1.500000e+02
1.625000e+02
1.750000e+02
1.875000e+02
2.000000e+02
0.000000e+00
1.250000e+01
2.500000e+01
3.750000e+01
5.000000e+01
6.250000e+01
7.500000e+01
8.750000e+01
1.000000e+02
1.125000e+02
1.250000e+02
1.375000e+02
1.500000e+02
1.625000e+02
1.750000e+02
1.875000e+02
2.000000e+02
0.000000e+00
1.250000e+01
2.500000e+01
3.750000e+01
5.000000e+01
6.250000e+01
7.500000e+01
8.750000e+01
1.000000e+02
1.125000e+02
1.250000e+02
1.375000e+02
1.500000e+02
1.625000e+02
1.750000e+02
1.875000e+02
2.000000e+02
0.000000e+00
1.250000e+01
2.500000e+01
3.750000e+01
5.000000e+01
6.250000e+01
7.500000e+01
8.750000e+01
1.000000e+02
1.125000e+02
1.250000e+02
1.375000e+02
1.500000e+02
1.625000e+02
1.750000e+02
1.875000e+02
2.000000e+02
0.000000e+00
1.250000e+01
2.500000e+01
3.750000e+01
5.000000e+01
6.250000e+01
7.500000e+01
8.750000e+01
1.000000e+02
1.125000e+02
1.250000e+02
1.375000e+02
1.500000e+02
1.625000e+02
1.750000e+02
1.875000e+02
2.000000e+02
0.000000e+00
1.250000e+01
2.500000e+01
3.750000e+01
5.000000e+01
6.250000e+01
7.500000e+01
8.750000e+01
1.000000e+02
1.125000e+02
1.250000e+02
1.375000e+02
1.500000e+02
1.625000e+02
1.750000e+02
1.875000e+02
2.000000e+02
0.000000e+00
1.250000e+01
2.500000e+01
3.750000e+01
5.000000e+01
6.250000e+01
7.500000e+01
8.750000e+01
1.000000e+02
1.125000e+02
1.250000e+02
1.375000e+02
1.500000e+02
1.625000e+02
1.750000e+02
1.875000e+02
2.000000e+02
0.000000e+00
1.250000e+01
2.500000e+01
3.750000e+01
5.000000e+01
6.250000e+01
7.500000e+01
8.750000e+01
1.000000e+02
1.125000e+02
1.250000e+02
1.375000e+02
1.500000e+02
1.625000e+02
1.750000e+02
1.875000e+02
2.000000e+02
0.000000e+00
0.000000e+00
0.000000e+00
0.000000e+00
0.000000e+00
0.000000e+00
0.000000e+00
0.000000e+00
0.000000e+00
0.000000e+00
0.000000e+00
0.000000e+00
0.000000e+00
0.000000e+00
0.000000e+00
0.000000e+00
0.000000e+00
1.250000e+01
1.250000e+01
1.250000e+01
1.250000e+01
1.250000e+01
1.250000e+01
1.250000e+01
1.250000e+01
1.250000e+01
1.250000e+01
1.250000e+01
1.250000e+01
1.250000e+01
1.250000e+01
1.250000e+01
1.250000e+01
1.250000e+01
2.500000e+01
2.500000e+01
2.500000e+01
2.500000e+01
2.500000e+01
2.500000e+01
2.500000e+01
2.500000e+01
2.500000e+01
2.500000e+01
2.500000e+01
2.500000e+01
2.500000e+01
2.500000e+01
2.500000e+01
2.500000e+01
2.500000e+01
3.750000e+01
3.750000e+01
3.750000e+01
3.750000e+01
3.750000e+01
3.750000e+01
3.750000e+01
3.750000e+01
3.750000e+01
3.750000e+01
3.750000e+01
3.750000e+01
3.750000e+01
3.750000e+01
3.750000e+01
3.750000e+01
3.750000e+01
5.000000e+01
5.000000e+01
5.000000e+01
5.000000e+01
5.000000e+01
5.000000e+01
5.000000e+01
5.000000e+01
5.000000e+01
5.000000e+01
5.000000e+01
5.000000e+01
5.000000e+01
5.000000e+01
5.000000e+01
5.000000e+01
5.000000e+01
6.250000e+01
6.250000e+01
6.250000e+01
6.250000e+01
6.250000e+01
6.250000e+01
6.250000e+01
6.250000e+01
6.250000e+01
6.250000e+01
6.250000e+01
6.250000e+01
6.250000e+01
6.250000e+01
6.250000e+01
6.250000e+01
6.250000e+01
7.500000e+01
7.500000e+01
7.500000e+01
7.500000e+01
7.500000e+01
7.500000e+01
7.500000e+01
7.500000e+01
7.500000e+01
7.500000e+01
7.500000e+01
7.500000e+01
7.500000e+01
7.500000e+01
7.500000e+01
7.500000e+01
7.500000e+01
8.750000e+01
8.750000e+01
8.750000e+01
8.750000e+01
8.750000e+01
8.750000e+01
8.750000e+01
8.750000e+01
8.750000e+01
8.750000e+01
8.750000e+01
8.750000e+01
8.750000e+01
8.750000e+01
8.750000e+01
8.750000e+01
8.750000e+01
1.000000e+02
1.000000e+02
1.000000e+02
1.000000e+02
1.000000e+02
1.000000e+02
1.000000e+02
1.000000e+02
1.000000e+02
1.000000e+02
1.000000e+02
1.000000e+02
1.000000e+02
1.000000e+02
1.000000e+02
1.000000e+02
1.000000e+02
0.000000e+00
-9.289095e-01
-1.634844e+00
-2.334360e+00
-3.023248e+00
-3.681473e+00
-4.354551e+00
-5.025728e+00
-5.685713e+00
-6.351237e+00
-7.019199e+00
-7.689697e+00
-8.389589e+00
-9.144980e+00
-9.941947e+00
-1.065443e+01
-1.110322e+01
0.000000e+00
-4.464510e-01
-9.326871e-01
-1.435680e+00
-1.954026e+00
-2.449256e+00
-2.955419e+00
-3.461795e+00
-3.957996e+00
-4.456307e+00
-4.953864e+00
-5.445186e+00
-5.938732e+00
-6.425292e+00
-6.795704e+00
-6.892246e+00
-7.062654e+00
0.000000e+00
-1.879250e-01
-4.257557e-01
-7.357553e-01
-1.077097e+00
-1.411797e+00
-1.758018e+00
-2.104189e+00
-2.443985e+00
-2.781988e+00
-3.111850e+00
-3.421870e+00
-3.696064e+00
-3.898194e+00
-3.964163e+00
-3.946842e+00
-4.098608e+00
0.000000e+00
-7.896466e-02
-1.756675e-01
-3.172369e-01
-4.737429e-01
-6.430544e-01
-8.180920e-01
-9.917359e-01
-1.162446e+00
-1.327012e+00
-1.477230e+00
-1.597654e+00
-1.665472e+00
-1.659618e+00
-1.594805e+00
-1.587707e+00
-1.713168e+00
0.000000e+00
-2.189943e-03
-4.476874e-03
-6.663486e-03
-8.401597e-03
-9.131284e-03
-7.946838e-03
-3.298327e-03
7.115483e-03
2.677307e-02
6.203167e-02
1.225342e-01
2.159279e-01
3.368209e-01
4.429014e-01
4.618760e-01
3.620842e-01
0.000000e+00
7.504485e-02
1.678545e-01
3.055970e-01
4.592165e-01
6.273930e-01
8.046528e-01
9.868924e-01
1.176958e+00
1.378115e+00
1.591045e+00
1.811268e+00
2.027223e+00
2.218716e+00
2.348490e+00
2.376883e+00
2.314890e+00
0.000000e+00
1.858924e-01
4.215809e-01
7.296479e-01
1.069761e+00
1.404251e+00
1.752157e+00
2.103879e+00
2.455005e+00
2.812442e+00
3.172717e+00
3.522108e+00
3.838081e+00
4.091810e+00
4.254270e+00
4.309745e+00
4.293046e+00
0.000000e+00
4.462922e-01
9.319595e-01
1.434471e+00
1.952474e+00
2.446464e+00
2.950051e+00
3.452833e+00
3.942504e+00
4.429170e+00
4.910132e+00
5.367966e+00
5.773612e+00
6.088818e+00
6.287973e+00
6.374753e+00
6.390608e+00
0.000000e+00
9.299342e-01
1.637030e+00
2.338185e+00
3.028745e+00
3.686800e+00
4.356669e+00
5.020474e+00
5.664389e+00
6.300482e+00
6.922624e+00
7.506954e+00
8.010084e+00
8.370737e+00
8.556648e+00
8.604349e+00
8.603951e+00
0.000000e+00
-5.852102e-01
-1.268396e+00
-2.170964e+00
-3.241468e+00
-4.474723e+00
-5.883339e+00
-7.460344e+00
-9.207410e+00
-1.113048e+01
-1.322720e+01
-1.549975e+01
-1.796248e+01
-2.062980e+01
-2.353158e+01
-2.687175e+01
-3.181743e+01
0.000000e+00
-3.830455e-01
-1.099175e+00
-1.990915e+00
-3.067083e+00
-4.300666e+00
-5.706897e+00
-7.286349e+00
-9.034534e+00
-1.095740e+01
-1.305589e+01
-1.532825e+01
-1.778634e+01
-2.046115e+01
-2.340669e+01
-2.677498e+01
-3.082852e+01
0.000000e+00
-3.427619e-01
-9.962934e-01
-1.879564e+00
-2.947597e+00
-4.177412e+00
-5.583128e+00
-7.163623e+00
-8.913900e+00
-1.084080e+01
-1.294653e+01
-1.522951e+01
-1.770247e+01
-2.040960e+01
-2.339713e+01
-2.660361e+01
-2.960887e+01
0.000000e+00
-3.764050e-01
-9.804552e-01
-1.837741e+00
-2.886103e+00
-4.109874e+00
-5.514527e+00
-7.095772e+00
-8.850975e+00
-1.078629e+01
-1.290589e+01
-1.520970e+01
-1.770368e+01
-2.041475e+01
-2.333965e+01
-2.627985e+01
-2.884662e+01
0.000000e+00
-3.899066e-01
-9.878211e-01
-1.829371e+00
-2.871645e+00
-4.093609e+00
-5.499517e+00
-7.084383e+00
-8.846397e+00
-1.079112e+01
-1.292424e+01
-1.524370e+01
-1.774146e+01
-2.041381e+01
-2.320566e+01
-2.593026e+01
-2.825795e+01
0.000000e+00
-3.760282e-01
-9.809208e-01
-1.840459e+00
-2.892903e+00
-4.122445e+00
-5.534793e+00
-7.126425e+00
-8.894558e+00
-1.084506e+01
-1.298269e+01
-1.530240e+01
-1.778607e+01
-2.040234e+01
-2.307229e+01
-2.563317e+01
-2.784630e+01
0.000000e+00
-3.422948e-01
-9.973122e-01
-1.884270e+00
-2.958951e+00
-4.198394e+00
-5.617121e+00
-7.214962e+00
-8.986446e+00
-1.093747e+01
-1.307108e+01
-1.538004e+01
-1.784168e+01
-2.040683e+01
-2.298459e+01
-2.544084e+01
-2.764027e+01
0.000000e+00
-3.826030e-01
-1.100334e+00
-1.996211e+00
-3.079798e+00
-4.324186e+00
-5.745300e+00
-7.344357e+00
-9.115915e+00
-1.106487e+01
-1.319175e+01
-1.548680e+01
-1.792494e+01
-2.044865e+01
-2.296202e+01
-2.535758e+01
-2.758938e+01
0.000000e+00
-5.849870e-01
-1.269780e+00
-2.176642e+00
-3.254494e+00
-4.498248e+00
-5.921393e+00
-7.517156e+00
-9.285594e+00
-1.123208e+01
-1.335219e+01
-1.563217e+01
-1.804199e+01
-2.052177e+01
-2.298391e+01
-2.534243e+01
-2.758962e+01


0.000000e+00
1.523758e-05
2.670737e-05
3.984128e-05
5.584279e-05
7.048499e-05
8.460046e-05
9.985350e-05
1.146419e-04
1.289064e-04
1.438688e-04
1.599150e-04
1.755827e-04
1.878684e-04
1.952712e-04
2.004446e-04
2.066949e-04
0.000000e+00
1.072669e-05
2.040849e-05
2.954650e-05
4.211313e-05
5.306024e-05
6.307584e-05
7.441435e-05
8.556333e-05
9.570827e-05
1.063128e-04
1.176106e-04
1.278470e-04
1.340821e-04
1.361488e-04
1.402508e-04
1.460842e-04
0.000000e+00
8.264652e-06
1.443401e-05
1.997037e-05
2.830006e-05
3.523431e-05
4.163594e-05
4.888988e-05
5.593375e-05
6.223225e-05
6.842671e-05
7.421092e-05
7.846431e-05
8.009923e-05
8.093061e-05
8.407651e-05
8.890636e-05
0.000000e+00
4.115341e-06
5.997350e-06
9.389610e-06
1.278543e-05
1.602373e-05
1.927334e-05
2.254292e-05
2.542612e-05
2.808409e-05
2.999988e-05
3.078758e-05
3.057853e-05
3.039839e-05
3.134293e-05
3.450792e-05
3.955461e-05
0.000000e+00
-1.762493e-08
-6.795489e-08
-1.535849e-07
-2.858061e-07
-4.505052e-07
-6.760320e-07
-1.046791e-06
-1.659614e-06
-2.603282e-06
-4.114781e-06
-6.179588e-06
-8.352180e-06
-9.756494e-06
-9.302475e-06
-7.096004e-06
-3.630774e-06
0.000000e+00
-4.101468e-06
-6.032420e-06
-9.600517e-06
-1.319747e-05
-1.667234e-05
-2.026770e-05
-2.402845e-05
-2.749183e-05
-3.115096e-05
-3.492618e-05
-3.870434e-05
-4.211989e-05
-4.442639e-05
-4.563926e-05
-4.577597e-05
-4.448119e-05
0.000000e+00
-8.141916e-06
-1.432054e-05
-2.000429e-05
-2.842409e-05
-3.546622e-05
-4.218932e-05
-4.958272e-05
-5.637734e-05
-6.253872e-05
-6.891614e-05
-7.474015e-05
-7.934071e-05
-8.265693e-05
-8.481219e-05
-8.600154e-05
-8.614878e-05
0.000000e+00
-1.058906e-05
-2.024029e-05
-2.945334e-05
-4.196947e-05
-5.286707e-05
-6.312117e-05
-7.448876e-05
-8.519030e-05
-9.518697e-05
-1.056641e-04
-1.152107e-04
-1.222092e-04
-1.266202e-04
-1.290100e-04
-1.299657e-04
-1.301476e-04
0.000000e+00
-1.516559e-05
-2.658365e-05
-3.969754e-05
-5.552222e-05
-6.994027e-05
-8.398224e-05
-9.904035e-05
-1.133331e-04
-1.276558e-04
-1.429622e-04
-1.570938e-04
-1.675772e-04
-1.734131e-04
-1.756200e-04
-1.760301e-04
-1.760065e-04
0.000000e+00
1.295855e-05
2.202449e-05
3.550699e-05
5.326454e-05
7.325111e-05
9.791878e-05
1.274352e-04
1.602245e-04
1.970914e-04
2.390392e-04
2.857336e-04
3.363943e-04
3.908339e-04
4.527094e-04
5.219035e-04
5.925894e-04
0.000000e+00
7.610066e-06
1.743341e-05
2.928016e-05
4.654849e-05
6.722329e-05
9.173703e-05
1.208862e-04
1.540303e-04
1.910226e-04
2.325840e-04
2.791250e-04
3.308602e-04
3.872392e-04
4.479877e-04
5.144984e-04
5.827015e-04
0.000000e+00
4.204582e-06
1.332560e-05
2.455971e-05
4.116427e-05
6.247013e-05
8.722440e-05
1.161056e-04
1.494311e-04
1.867639e-04
2.282571e-04
2.748956e-04
3.274733e-04
3.854834e-04
4.438659e-04
5.067695e-04
5.721666e-04
0.000000e+00
3.249347e-06
1.140437e-05
2.259764e-05
3.877734e-05
6.023011e-05
8.535085e-05
1.142567e-04
1.474860e-04
1.850210e-04
2.268370e-04
2.735553e-04
3.264503e-04
3.841779e-04
4.408243e-04
4.989164e-04
5.586624e-04
0.000000e+00
3.034967e-06
1.096441e-05
2.202039e-05
3.815632e-05
5.947786e-05
8.482148e-05
1.138402e-04
1.470065e-04
1.845812e-04
2.266834e-04
2.737379e-04
3.266341e-04
3.840403e-04
4.388433e-04
4.920425e-04
5.450602e-04
0.000000e+00
3.289141e-06
1.144166e-05
2.270862e-05
3.893438e-05
6.031934e-05
8.543280e-05
1.144602e-04
1.476521e-04
1.851727e-04
2.276060e-04
2.753910e-04
3.284973e-04
3.845628e-04
4.384719e-04
4.886445e-04
5.361057e-04
0.000000e+00
4.247806e-06
1.339554e-05
2.474939e-05
4.140788e-05
6.259472e-05
8.734336e-05
1.163104e-04
1.494826e-04
1.869799e-04
2.298893e-04
2.785047e-04
3.314910e-04
3.858944e-04
4.381127e-04
4.868938e-04
5.327129e-04
0.000000e+00
7.631828e-06
1.753710e-05
2.951024e-05
4.681352e-05
6.741929e-05
9.191866e-05
1.209778e-04
1.538505e-04
1.911434e-04
2.342912e-04
2.827888e-04
3.346860e-04
3.872518e-04
4.379707e-04
4.861029e-04
5.322203e-04
0.000000e+00
1.295307e-05
2.214883e-05
3.575146e-05
5.350445e-05
7.350422e-05
9.820398e-05
1.274708e-04
1.599457e-04
1.972874e-04
2.404276e-04
2.877812e-04
3.377636e-04
3.884946e-04
4.381464e-04
4.859586e-04
5.322570e-04


3.257225e+00
3.071162e+00
2.996405e+00
2.940198e+00
2.900348e+00
3.156715e+00
3.383479e+00
3.665656e+00
4.132674e+00
4.679246e+00
5.369540e+00
6.373428e+00
7.489364e+00
7.846867e+00
6.826016e+00
5.588630e+00
5.655542e+00
5.389724e+00
5.292923e+00
5.072668e+00
4.916708e+00
5.027099e+00
5.137526e+00
5.297338e+00
5.611371e+00
6.000060e+00
6.476510e+00
7.134137e+00
7.797515e+00
7.658354e+00
6.205387e+00
4.702905e+00
8.140712e+00
8.081232e+00
7.942334e+00
7.669197e+00
7.395772e+00
7.344680e+00
7.330587e+00
7.344224e+00
7.448385e+00
7.600563e+00
7.744324e+00
7.866335e+00
7.936436e+00
7.382951e+00
5.961971e+00
4.753991e+00
9.150024e+00
9.148072e+00
9.054954e+00
8.719622e+00
8.420078e+00
8.271481e+00
8.204991e+00
8.164905e+00
8.142019e+00
8.102015e+00
7.941234e+00
7.638068e+00
7.369706e+00
7.017055e+00
6.480687e+00
6.121210e+00
9.148086e+00
9.149590e+00
9.060157e+00
8.724667e+00
8.416868e+00
8.248720e+00
8.152849e+00
8.066428e+00
7.950640e+00
7.747889e+00
7.391409e+00
6.975294e+00
6.831439e+00
7.036117e+00
7.391084e+00
7.671381e+00
8.132952e+00
8.078414e+00
7.944088e+00
7.665242e+00
7.365386e+00
7.263554e+00
7.174336e+00
7.071045e+00
6.981113e+00
6.861633e+00
6.742126e+00
6.769142e+00
7.115389e+00
7.735664e+00
8.319605e+00
8.645602e+00
5.644936e+00
5.379358e+00
5.281694e+00
5.052167e+00
4.867168e+00
4.930343e+00
4.982159e+00
5.063968e+00
5.298277e+00
5.689677e+00
6.284661e+00
7.062503e+00
7.865098e+00
8.491145e+00
8.820014e+00
8.922891e+00
3.250103e+00
3.061458e+00
2.984695e+00
2.923740e+00
2.869771e+00
3.112364e+00
3.339168e+00
3.646345e+00
4.230926e+00
5.097311e+00
6.237184e+00
7.453415e+00
8.372315e+00
8.833940e+00
8.933945e+00
8.896897e+00


-6.650194e-01
-2.623307e-01
-2.689428e-01
-2.783995e-01
-1.706192e-01
-2.229234e-01
-2.210982e-01
-1.805049e-01
-1.977912e-01
-2.023626e-01
-1.946879e-01
-2.557134e-01
-3.424461e-01
-1.645992e-01
4.205316e-01
-7.737841e-01
5.827615e-01
4.181459e-01
3.079459e-01
2.400595e-01
2.854209e-01
2.411160e-01
2.283271e-01
2.416198e-01
2.258165e-01
2.273281e-01
2.656048e-01
3.276912e-01
4.565182e-01
7.141696e-01
7.231665e-01
-1.153064e+00
7.948791e-01
5.939280e-01
3.865707e-01
3.279842e-01
3.304241e-01
2.977907e-01
2.924174e-01
2.993388e-01
2.955908e-01
3.075647e-01
3.541495e-01
4.250953e-01
4.574111e-01
3.398658e-01
1.001126e-01
-2.738518e-01
8.104410e-01
6.394167e-01
4.102034e-01
3.109610e-01
2.749155e-01
2.528214e-01
2.532325e-01
2.645208e-01
2.709861e-01
2.735825e-01
2.753097e-01
2.482928e-01
1.097640e-01
-1.365583e-01
-1.584111e-01
2.171162e-02
8.119504e-01
6.413337e-01
4.126838e-01
3.121945e-01
2.737771e-01
2.467779e-01
2.381589e-01
2.362239e-01
2.235532e-01
1.941941e-01
1.458262e-01
6.691140e-02
-6.483010e-02
-1.513472e-01
1.222535e-02
3.989833e-01
7.987911e-01
5.995143e-01
3.933845e-01
3.322248e-01
3.292846e-01
2.861049e-01
2.600954e-01
2.343892e-01
1.777155e-01
1.026556e-01
2.822072e-02
-2.518185e-02
-3.152558e-02
8.640955e-02
3.893592e-01
7.693661e-01
5.860607e-01
4.223736e-01
3.111809e-01
2.402143e-01
2.819276e-01
2.298412e-01
2.001750e-01
1.889958e-01
1.333469e-01
6.733047e-02
3.396363e-02
6.956420e-02
2.093447e-01
4.571186e-01
7.528691e-01
9.571569e-01
-6.663244e-01
-2.635471e-01
-2.715515e-01
-2.816990e-01
-1.689151e-01
-2.137266e-01
-2.038391e-01
-1.446927e-01
-1.334543e-01
-1.096182e-01
-1.277777e-02
1.977315e-01
5.142427e-01
8.037120e-01
9.597387e-01
9.990877e-01
1 2 19 18
2 3 20 19
3 4 21 20
4 5 22 21
5 6 23 22
6 7 24 23
7 8 25 24
8 9 26 25
9 10 27 26
10 11 28 27
11 12 29 28
12 13 30 29
13 14 31 30
14 15 32 31
15 16 33 32
16 17 34 33
18 19 36 35
19 20 37 36
20 21 38 37
21 22 39 38
22 23 40 39
23 24 41 40
24 25 42 41
25 26 43 42
26 27 44 43
27 28 45 44
28 29 46 45
29 30 47 46
30 31 48 47
31 32 49 48
32 33 50 49
33 34 51 50
35 36 53 52
36 37 54 53
37 38 55 54
38 39 56 55
39 40 57 56
40 41 58 57
41 42 59 58
42 43 60 59
43 44 61 60
44 45 62 61
45 46 63 62
46 47 64 63
47 48 65 64
48 49 66 65
49 50 67 66
50 51 68 67
52 53 70 69
53 54 71 70
54 55 72 71
55 56 73 72
56 57 74 73
57 58 75 74
58 59 76 75
59 60 77 76
60 61 78 77
61 62 79 78
62 63 80 79
63 64 81 80
64 65 82 81
65 66 83 82
66 67 84 83
67 68 85 84
69 70 87 86
70 71 88 87
71 72 89 88
72 73 90 89
73 74 91 90
74 75 92 91
75 76 93 92
76 77 94 93
77 78 95 94
78 79 96 95
79 80 97 96
80 81 98 97
81 82 99 98
82 83 100 99
83 84 101 100
84 85 102 101
86 87 104 103
87 88 105 104
88 89 106 105
89 90 107 106
90 91 108 107
91 92 109 108
92 93 110 109
93 94 111 110
94 95 112 111
95 96 113 112
96 97 114 113
97 98 115 114
98 99 116 115
99 100 117 116
100 101 118 117
101 102 119 118
103 104 121 120
104 105 122 121
105 106 123 122
106 107 124 123
107 108 125 124
108 109 126 125
109 110 127 126
110 111 128 127
111 112 129 128
112 113 130 129
113 114 131 130
114 115 132 131
115 116 133 132
116 117 134 133
117 118 135 134
118 119 136 135
120 121 138 137
121 122 139 138
122 123 140 139
123 124 141 140
124 125 142 141
125 126 143 142
126 127 144 143
127 128 145 144
128 129 146 145
129 130 147 146
130 131 148 147
131 132 149 148
132 133 150 149
133 134 151 150
134 135 152 151
135 136 153 152
