TITLE = "Solution"
VARIABLES = x, y, u, v, psiu, psiv, t, stress
ZONE T="structure" N=153 E=128 F=FEBLOCK ET=QUADRILATERAL VARLOCATION=([7,8]=cellcentered)
0.000000e+00
1.250000e+01
2.500000e+01
3.750000e+01
5.000000e+01
6.250000e+01
7.500000e+01
8.750000e+01
1.000000e+02
1.125000e+02
1.250000e+02
1.375000e+02
1.500000e+02
1.625000e+02
1.750000e+02
1.875000e+02
2.000000e+02
0.000000e+00
1.250000e+01
2.500000e+01
3.750000e+01
5.000000e+01
6.250000e+01
7.500000e+01
8.750000e+01
1.000000e+02
1.125000e+02
1.250000e+02
1.375000e+02
1.500000e+02
1.625000e+02
1.750000e+02
1.875000e+02
2.000000e+02
0.000000e+00
1.250000e+01
2.500000e+01
3.750000e+01
5.000000e+01
6.250000e+01
7.500000e+01
8.750000e+01
1.000000e+02
1.125000e+02
1.250000e+02
1.375000e+02
1.500000e+02
1.625000e+02
1.750000e+02
1.875000e+02
2.000000e+02
0.000000e+00
1.250000e+01
2.500000e+01
3.750000e+01
5.000000e+01
6.250000e+01
7.500000e+01
8.750000e+01
1.000000e+02
1.125000e+02
1.250000e+02
1.375000e+02
1.500000e+02
1.625000e+02
1.750000e+02
1.875000e+02
2.000000e+02
0.000000e+00
1.250000e+01
2.500000e+01
3.750000e+01
5.000000e+01
6.250000e+01
7.500000e+01
8.750000e+01
1.000000e+02
1.125000e+02
1.250000e+02
1.375000e+02
1.500000e+02
1.625000e+02
1.750000e+02
1.875000e+02
2.000000e+02
0.000000e+00
1.250000e+01
2.500000e+01
3.750000e+01
5.000000e+01
6.250000e+01
7.500000e+01
8.750000e+01
1.000000e+02
1.125000e+02
1.250000e+02
1.375000e+02
1.500000e+02
1.625000e+02
1.750000e+02
1.875000e+02
2.000000e+02
0.000000e+00
1.250000e+01
2.500000e+01
3.750000e+01
5.000000e+01
6.250000e+01
7.500000e+01
8.750000e+01
1.000000e+02
1.125000e+02
1.250000e+02
1.375000e+02
1.500000e+02
1.625000e+02
1.750000e+02
1.875000e+02
2.000000e+02
0.000000e+00
1.250000e+01
2.500000e+01
3.750000e+01
5.000000e+01
6.250000e+01
7.500000e+01
8.750000e+01
1.000000e+02
1.125000e+02
1.250000e+02
1.375000e+02
1.500000e+02
1.625000e+02
1.750000e+02
1.875000e+02
2.000000e+02
0.000000e+00
1.250000e+01
2.500000e+01
3.750000e+01
5.000000e+01
6.250000e+01
7.500000e+01
8.750000e+01
1.000000e+02
1.125000e+02
1.250000e+02
1.375000e+02
1.500000e+02
1.625000e+02
1.750000e+02
1.875000e+02
2.000000e+02
0.000000e+00
0.000000e+00
0.000000e+00
0.000000e+00
0.000000e+00
0.000000e+00
0.000000e+00
0.000000e+00
0.000000e+00
0.000000e+00
0.000000e+00
0.000000e+00
0.000000e+00
0.000000e+00
0.000000e+00
0.000000e+00
0.000000e+00
1.250000e+01
1.250000e+01
1.250000e+01
1.250000e+01
1.250000e+01
1.250000e+01
1.250000e+01
1.250000e+01
1.250000e+01
1.250000e+01
1.250000e+01
1.250000e+01
1.250000e+01
1.250000e+01
1.250000e+01
1.250000e+01
1.250000e+01
2.500000e+01
2.500000e+01
2.500000e+01
2.500000e+01
2.500000e+01
2.500000e+01
2.500000e+01
2.500000e+01
2.500000e+01
2.500000e+01
2.500000e+01
2.500000e+01
2.500000e+01
2.500000e+01
2.500000e+01
2.500000e+01
2.500000e+01
3.750000e+01
3.750000e+01
3.750000e+01
3.750000e+01
3.750000e+01
3.750000e+01
3.750000e+01
3.750000e+01
3.750000e+01
3.750000e+01
3.750000e+01
3.750000e+01
3.750000e+01
3.750000e+01
3.750000e+01
3.750000e+01
3.750000e+01
5.000000e+01
5.000000e+01
5.000000e+01
5.000000e+01
5.000000e+01
5.000000e+01
5.000000e+01
5.000000e+01
5.000000e+01
5.000000e+01
5.000000e+01
5.000000e+01
5.000000e+01
5.000000e+01
5.000000e+01
5.000000e+01
5.000000e+01
6.250000e+01
6.250000e+01
6.250000e+01
6.250000e+01
6.250000e+01
6.250000e+01
6.250000e+01
6.250000e+01
6.250000e+01
6.250000e+01
6.250000e+01
6.250000e+01
6.250000e+01
6.250000e+01
6.250000e+01
6.250000e+01
6.250000e+01
7.500000e+01
7.500000e+01
7.500000e+01
7.500000e+01
7.500000e+01
7.500000e+01
7.500000e+01
7.500000e+01
7.500000e+01
7.500000e+01
7.500000e+01
7.500000e+01
7.500000e+01
7.500000e+01
7.500000e+01
7.500000e+01
7.500000e+01
8.750000e+01
8.750000e+01
8.750000e+01
8.750000e+01
8.750000e+01
8.750000e+01
8.750000e+01
8.750000e+01
8.750000e+01
8.750000e+01
8.750000e+01
8.750000e+01
8.750000e+01
8.750000e+01
8.750000e+01
8.750000e+01
8.750000e+01
1.000000e+02
1.000000e+02
1.000000e+02
1.000000e+02
1.000000e+02
1.000000e+02
1.000000e+02
1.000000e+02
1.000000e+02
1.000000e+02
1.000000e+02
1.000000e+02
1.000000e+02
1.000000e+02
1.000000e+02
1.000000e+02
1.000000e+02
0.000000e+00
-9.892625e-01
-1.683752e+00
-2.433654e+00
-3.112081e+00
-3.761643e+00
-4.453788e+00
-5.089994e+00
-5.759264e+00
-6.399258e+00
-7.046557e+00
-7.708150e+00
-8.358752e+00
-9.128487e+00
-1.006211e+01
-1.081560e+01
-1.126376e+01
0.000000e+00
-4.420751e-01
-9.099293e-01
-1.418869e+00
-1.928666e+00
-2.414180e+00
-2.926171e+00
-3.422480e+00
-3.920181e+00
-4.418438e+00
-4.912035e+00
-5.411979e+00
-5.896615e+00
-6.416595e+00
-6.890297e+00
-7.015291e+00
-7.193959e+00
0.000000e+00
-1.458631e-01
-3.504868e-01
-6.393720e-01
-9.775684e-01
-1.304240e+00
-1.659914e+00
-2.013120e+00
-2.361286e+00
-2.719647e+00
-3.061939e+00
-3.395598e+00
-3.693314e+00
-3.933852e+00
-4.041316e+00
-4.037795e+00
-4.186863e+00
0.000000e+00
-7.872201e-02
-1.627915e-01
-3.099036e-01
-4.551540e-01
-6.334207e-01
-8.153492e-01
-9.869209e-01
-1.171450e+00
-1.336137e+00
-1.497168e+00
-1.640243e+00
-1.734679e+00
-1.742963e+00
-1.671079e+00
-1.651385e+00
-1.769368e+00
0.000000e+00
-3.273711e-03
-7.531889e-03
-1.140199e-02
-1.696205e-02
-2.254007e-02
-2.477868e-02
-2.572749e-02
-1.982770e-02
-3.106016e-03
2.399865e-02
7.218320e-02
1.525676e-01
2.624524e-01
3.792219e-01
4.161921e-01
3.173196e-01
0.000000e+00
7.309170e-02
1.518357e-01
2.902362e-01
4.266750e-01
5.989391e-01
7.675025e-01
9.377699e-01
1.133060e+00
1.321366e+00
1.530172e+00
1.749035e+00
1.978862e+00
2.184851e+00
2.319409e+00
2.352699e+00
2.285737e+00
0.000000e+00
1.439276e-01
3.475244e-01
6.310767e-01
9.647701e-01
1.292139e+00
1.646509e+00
1.996791e+00
2.352077e+00
2.741330e+00
3.104336e+00
3.452553e+00
3.779675e+00
4.057375e+00
4.234244e+00
4.291691e+00
4.270014e+00
0.000000e+00
4.394003e-01
9.141317e-01
1.420360e+00
1.927434e+00
2.419219e+00
2.924753e+00
3.421953e+00
3.913874e+00
4.387053e+00
4.850837e+00
5.297208e+00
5.700782e+00
6.048341e+00
6.267081e+00
6.363540e+00
6.381040e+00
0.000000e+00
9.846540e-01
1.692136e+00
2.444127e+00
3.119186e+00
3.786072e+00
4.469105e+00
5.109012e+00
5.764829e+00
6.322826e+00
6.881047e+00
7.451331e+00
7.947267e+00
8.357318e+00
8.559200e+00
8.612465e+00
8.612982e+00
0.000000e+00
-6.171656e-01
-1.362086e+00
-2.362685e+00
-3.538273e+00
-4.886212e+00
-6.416422e+00
-8.103869e+00
-9.963069e+00
-1.198272e+01
-1.416276e+01
-1.650390e+01
-1.900561e+01
-2.172069e+01
-2.466738e+01
-2.801775e+01
-3.301643e+01
0.000000e+00
-4.127038e-01
-1.192702e+00
-2.177796e+00
-3.368297e+00
-4.710661e+00
-6.240972e+00
-7.933849e+00
-9.788914e+00
-1.181496e+01
-1.399182e+01
-1.633715e+01
-1.883327e+01
-2.152843e+01
-2.452727e+01
-2.793228e+01
-3.197670e+01
0.000000e+00
-3.866823e-01
-1.091735e+00
-2.074468e+00
-3.247399e+00
-4.586412e+00
-6.119165e+00
-7.806077e+00
-9.669299e+00
-1.169405e+01
-1.388129e+01
-1.623865e+01
-1.874543e+01
-2.146718e+01
-2.451729e+01
-2.777550e+01
-3.080157e+01
0.000000e+00
-4.458325e-01
-1.087791e+00
-2.048235e+00
-3.181895e+00
-4.519047e+00
-6.053458e+00
-7.733638e+00
-9.610669e+00
-1.163793e+01
-1.384313e+01
-1.622411e+01
-1.875497e+01
-2.147617e+01
-2.444857e+01
-2.746166e+01
-3.007456e+01
0.000000e+00
-4.530111e-01
-1.109206e+00
-2.030570e+00
-3.168483e+00
-4.504054e+00
-6.034902e+00
-7.729845e+00
-9.604600e+00
-1.165196e+01
-1.387142e+01
-1.625832e+01
-1.879644e+01
-2.147427e+01
-2.429917e+01
-2.710148e+01
-2.947273e+01
0.000000e+00
-4.417530e-01
-1.086856e+00
-2.049629e+00
-3.181857e+00
-4.535996e+00
-6.077357e+00
-7.770856e+00
-9.666238e+00
-1.172222e+01
-1.394681e+01
-1.631016e+01
-1.882533e+01
-2.146282e+01
-2.416008e+01
-2.678660e+01
-2.903626e+01
0.000000e+00
-3.811048e-01
-1.089784e+00
-2.076404e+00
-3.253013e+00
-4.612509e+00
-6.160784e+00
-7.874026e+00
-9.773656e+00
-1.183764e+01
-1.403507e+01
-1.637548e+01
-1.885883e+01
-2.146290e+01
-2.407433e+01
-2.657507e+01
-2.880032e+01
0.000000e+00
-4.075788e-01
-1.189794e+00
-2.179816e+00
-3.377359e+00
-4.737358e+00
-6.288939e+00
-8.011625e+00
-9.912406e+00
-1.197072e+01
-1.414608e+01
-1.647062e+01
-1.893116e+01
-2.150358e+01
-2.405640e+01
-2.648550e+01
-2.874056e+01
0.000000e+00
-6.139271e-01
-1.360822e+00
-2.364087e+00
-3.549232e+00
-4.914178e+00
-6.464332e+00
-8.183735e+00
-1.008126e+01
-1.212086e+01
-1.429492e+01
-1.661090e+01
-1.904941e+01
-2.158509e+01
-2.408204e+01
-2.647012e+01
-2.873958e+01


0.000000e+00
1.582284e-05
2.577075e-05
3.815380e-05
5.482275e-05
7.017137e-05
8.828516e-05
1.041606e-04
1.238196e-04
1.303093e-04
1.529313e-04
1.688397e-04
1.729012e-04
1.965983e-04
2.201496e-04
2.282403e-04
2.341280e-04
0.000000e+00
1.195115e-05
2.052334e-05
2.911224e-05
4.232935e-05
5.540898e-05
6.582317e-05
8.151024e-05
9.170496e-05
9.752021e-05
1.128124e-04
1.264165e-04
1.254848e-04
1.402951e-04
1.565899e-04
1.602329e-04
1.648231e-04
0.000000e+00
1.008834e-05
1.586931e-05
2.127164e-05
3.069203e-05
3.948519e-05
4.485187e-05
5.550378e-05
6.059059e-05
6.415604e-05
7.216188e-05
8.045813e-05
7.876763e-05
8.514324e-05
9.144422e-05
9.397177e-05
9.823396e-05
0.000000e+00
5.412500e-06
7.263416e-06
1.049111e-05
1.492312e-05
1.659463e-05
2.071218e-05
1.976320e-05
2.632304e-05
2.335078e-05
2.922353e-05
3.002630e-05
2.875135e-05
2.993584e-05
2.986360e-05
3.422187e-05
4.024827e-05
0.000000e+00
-2.629195e-07
-7.355620e-07
-1.417666e-06
-2.092504e-06
-3.053168e-06
-4.156410e-06
-7.032955e-06
-9.338765e-06
-1.106973e-05
-1.242509e-05
-1.345853e-05
-1.580970e-05
-1.920671e-05
-1.874311e-05
-1.623993e-05
-1.185792e-05
0.000000e+00
-5.873267e-06
-8.359436e-06
-1.249103e-05
-1.821537e-05
-2.066854e-05
-2.875235e-05
-2.858710e-05
-3.838189e-05
-4.107263e-05
-4.609995e-05
-4.666109e-05
-5.229742e-05
-5.676199e-05
-5.872320e-05
-5.918614e-05
-5.756121e-05
0.000000e+00
-1.051223e-05
-1.620833e-05
-2.090689e-05
-3.009220e-05
-4.359310e-05
-5.202039e-05
-5.929727e-05
-6.556647e-05
-7.571050e-05
-8.073866e-05
-8.615472e-05
-8.869513e-05
-9.422258e-05
-9.693354e-05
-9.946482e-05
-1.002040e-04
0.000000e+00
-1.231934e-05
-2.063280e-05
-2.750503e-05
-3.977585e-05
-5.830612e-05
-7.293767e-05
-8.452730e-05
-9.512292e-05
-1.074764e-04
-1.183369e-04
-1.319313e-04
-1.362948e-04
-1.408952e-04
-1.444594e-04
-1.459451e-04
-1.462158e-04
0.000000e+00
-1.621119e-05
-2.579318e-05
-3.656725e-05
-5.273717e-05
-7.135627e-05
-9.363299e-05
-1.057962e-04
-1.263538e-04
-1.362221e-04
-1.553451e-04
-1.754532e-04
-1.889393e-04
-1.946704e-04
-1.956890e-04
-1.955004e-04
-1.952436e-04
0.000000e+00
1.295444e-05
2.027687e-05
3.266730e-05
4.963626e-05
6.805315e-05
9.282960e-05
1.229173e-04
1.559065e-04
1.918975e-04
2.428006e-04
2.879035e-04
3.338737e-04
4.011211e-04
4.695054e-04
5.409453e-04
6.184854e-04
0.000000e+00
7.842503e-06
1.635164e-05
2.646808e-05
4.248085e-05
6.139071e-05
8.517522e-05
1.156267e-04
1.504330e-04
1.871674e-04
2.330343e-04
2.843426e-04
3.304362e-04
3.908433e-04
4.612489e-04
5.344898e-04
6.102177e-04
0.000000e+00
4.321054e-06
1.243523e-05
2.169163e-05
3.596271e-05
5.616982e-05
7.837967e-05
1.098505e-04
1.466458e-04
1.832515e-04
2.281301e-04
2.791815e-04
3.290059e-04
3.875629e-04
4.547432e-04
5.271319e-04
6.013687e-04
0.000000e+00
3.083178e-06
1.049413e-05
1.962599e-05
3.400534e-05
5.310781e-05
7.649277e-05
1.057160e-04
1.457031e-04
1.834294e-04
2.275549e-04
2.748595e-04
3.284004e-04
3.886570e-04
4.520312e-04
5.182900e-04
5.868485e-04
0.000000e+00
2.751475e-06
1.018545e-05
1.935372e-05
3.351183e-05
5.221613e-05
7.568703e-05
1.056108e-04
1.436777e-04
1.863388e-04
2.269544e-04
2.724961e-04
3.278558e-04
3.916919e-04
4.520514e-04
5.110763e-04
5.699909e-04
0.000000e+00
3.471399e-06
1.130540e-05
2.028721e-05
3.353049e-05
5.202523e-05
7.766577e-05
1.064379e-04
1.448138e-04
1.865226e-04
2.279010e-04
2.719820e-04
3.300586e-04
3.941533e-04
4.533207e-04
5.088006e-04
5.582401e-04
0.000000e+00
4.856556e-06
1.358501e-05
2.274234e-05
3.476369e-05
5.549252e-05
8.001412e-05
1.104932e-04
1.458328e-04
1.871357e-04
2.282918e-04
2.752488e-04
3.336759e-04
3.969392e-04
4.533124e-04
5.067426e-04
5.540665e-04
0.000000e+00
8.371984e-06
1.716794e-05
2.686104e-05
4.255305e-05
6.275043e-05
8.723275e-05
1.156514e-04
1.509555e-04
1.905980e-04
2.317690e-04
2.814729e-04
3.367702e-04
3.984430e-04
4.533839e-04
5.054859e-04
5.541711e-04
0.000000e+00
1.354529e-05
2.062559e-05
3.237126e-05
5.078001e-05
7.200549e-05
9.529348e-05
1.217505e-04
1.587546e-04
1.949837e-04
2.409583e-04
2.877422e-04
3.406196e-04
3.982700e-04
4.537627e-04
5.051082e-04
5.544512e-04


5.440002e+00
6.045982e+00
6.842926e+00
5.813803e+00
5.016954e+00
5.132230e+00
5.288345e+00
5.571706e+00
5.566455e+00
5.813975e+00
6.266609e+00
7.157348e+00
8.856002e+00
9.832502e+00
9.148160e+00
8.006694e+00
7.989369e+00
8.417739e+00
8.654999e+00
8.364918e+00
7.879082e+00
7.965807e+00
8.110525e+00
8.138606e+00
8.200908e+00
8.264543e+00
8.408520e+00
8.849027e+00
9.511689e+00
9.843158e+00
8.395342e+00
6.516436e+00
9.827894e+00
9.824823e+00
1.000000e+01
9.835899e+00
9.842045e+00
9.875364e+00
9.840006e+00
9.896844e+00
9.852419e+00
9.878991e+00
9.898738e+00
9.877985e+00
9.877750e+00
9.350806e+00
7.909127e+00
6.168131e+00
1.000000e+01
1.000000e+01
1.000000e+01
1.000000e+01
1.000000e+01
1.000000e+01
1.000000e+01
1.000000e+01
1.000000e+01
1.000000e+01
1.000000e+01
9.480539e+00
8.779146e+00
8.359748e+00
7.904611e+00
7.801264e+00
1.000000e+01
1.000000e+01
1.000000e+01
1.000000e+01
1.000000e+01
1.000000e+01
9.956103e+00
9.935881e+00
1.000000e+01
9.974733e+00
9.582150e+00
8.738809e+00
7.687178e+00
7.715856e+00
8.693941e+00
9.108805e+00
9.817774e+00
9.825248e+00
1.000000e+01
9.834153e+00
9.848296e+00
9.685907e+00
9.326381e+00
9.442592e+00
9.491212e+00
9.252176e+00
8.761479e+00
8.210181e+00
8.119170e+00
8.666281e+00
9.503574e+00
1.000000e+01
7.929389e+00
8.390271e+00
8.649679e+00
8.379265e+00
7.797601e+00
7.560125e+00
7.581016e+00
7.721884e+00
8.300497e+00
8.154309e+00
8.100205e+00
8.653794e+00
9.246582e+00
9.701752e+00
1.000000e+01
1.000000e+01
5.291348e+00
5.987695e+00
6.830439e+00
5.816180e+00
4.959357e+00
4.843182e+00
5.309058e+00
6.435320e+00
6.918982e+00
7.728801e+00
8.479533e+00
9.181526e+00
9.926374e+00
1.000000e+01
1.000000e+01
1.000000e+01


-7.935033e-01
-2.046973e-01
-3.846356e-01
-2.400716e-01
-1.343595e-01
-2.717229e-01
-1.330416e-01
-2.003550e-01
-1.485261e-01
-1.548873e-01
-1.958761e-01
-1.441991e-01
-4.599371e-01
-6.850724e-01
3.211495e-01
-8.289538e-01
6.160658e-01
4.675226e-01
3.023081e-01
2.278083e-01
2.761435e-01
1.663678e-01
1.813405e-01
1.612852e-01
1.227853e-01
1.403126e-01
1.360488e-01
2.422161e-01
3.074858e-01
5.210219e-01
6.963084e-01
-9.688646e-01
7.271773e-01
4.652225e-01
5.665917e-02
-1.417832e-02
-6.892940e-02
-1.775327e-01
-1.019003e-01
-1.401514e-01
-7.661547e-02
-1.868307e-02
3.416598e-02
1.950977e-01
3.009847e-01
1.706107e-01
-9.985552e-03
-1.969879e-01
7.322030e-01
5.520515e-01
1.926030e-01
7.009520e-02
-4.729192e-02
-9.858232e-02
-4.347501e-02
-6.485538e-02
4.318672e-03
2.948113e-02
7.855117e-02
1.603740e-01
1.133514e-01
-2.244699e-01
-3.357845e-01
-5.027042e-02
7.368254e-01
5.552182e-01
2.019425e-01
8.648166e-02
-4.424480e-02
-8.944820e-02
-5.846301e-02
-9.728183e-02
-6.832766e-02
-6.622710e-02
-1.831521e-02
-1.143221e-02
-3.134929e-02
-1.404338e-01
-1.104122e-01
3.242217e-01
7.376512e-01
4.721019e-01
8.105643e-02
2.325484e-02
-6.650020e-02
-1.289865e-01
-7.679826e-02
-1.649732e-01
-1.514896e-01
-8.092432e-02
-6.297924e-02
-1.226191e-01
-1.442261e-01
1.548234e-02
2.896983e-01
7.140314e-01
6.243878e-01
4.613912e-01
3.168778e-01
2.419388e-01
2.610656e-01
1.710040e-01
1.630628e-01
1.113381e-01
2.410856e-02
3.405117e-02
1.319608e-02
1.057005e-02
5.461933e-02
3.677411e-01
7.055806e-01
9.473220e-01
-7.743426e-01
-2.445812e-01
-3.829799e-01
-2.288089e-01
-1.806629e-01
-2.426796e-01
-1.463234e-01
-1.722426e-01
3.240843e-02
3.622258e-02
2.514653e-02
2.029145e-01
3.892960e-01
7.708219e-01
9.519845e-01
9.987367e-01
1 2 19 18
2 3 20 19
3 4 21 20
4 5 22 21
5 6 23 22
6 7 24 23
7 8 25 24
8 9 26 25
9 10 27 26
10 11 28 27
11 12 29 28
12 13 30 29
13 14 31 30
14 15 32 31
15 16 33 32
16 17 34 33
18 19 36 35
19 20 37 36
20 21 38 37
21 22 39 38
22 23 40 39
23 24 41 40
24 25 42 41
25 26 43 42
26 27 44 43
27 28 45 44
28 29 46 45
29 30 47 46
30 31 48 47
31 32 49 48
32 33 50 49
33 34 51 50
35 36 53 52
36 37 54 53
37 38 55 54
38 39 56 55
39 40 57 56
40 41 58 57
41 42 59 58
42 43 60 59
43 44 61 60
44 45 62 61
45 46 63 62
46 47 64 63
47 48 65 64
48 49 66 65
49 50 67 66
50 51 68 67
52 53 70 69
53 54 71 70
54 55 72 71
55 56 73 72
56 57 74 73
57 58 75 74
58 59 76 75
59 60 77 76
60 61 78 77
61 62 79 78
62 63 80 79
63 64 81 80
64 65 82 81
65 66 83 82
66 67 84 83
67 68 85 84
69 70 87 86
70 71 88 87
71 72 89 88
72 73 90 89
73 74 91 90
74 75 92 91
75 76 93 92
76 77 94 93
77 78 95 94
78 79 96 95
79 80 97 96
80 81 98 97
81 82 99 98
82 83 100 99
83 84 101 100
84 85 102 101
86 87 104 103
87 88 105 104
88 89 106 105
89 90 107 106
90 91 108 107
91 92 109 108
92 93 110 109
93 94 111 110
94 95 112 111
95 96 113 112
96 97 114 113
97 98 115 114
98 99 116 115
99 100 117 116
100 101 118 117
101 102 119 118
103 104 121 120
104 105 122 121
105 106 123 122
106 107 124 123
107 108 125 124
108 109 126 125
109 110 127 126
110 111 128 127
111 112 129 128
112 113 130 129
113 114 131 130
114 115 132 131
115 116 133 132
116 117 134 133
117 118 135 134
118 119 136 135
120 121 138 137
121 122 139 138
122 123 140 139
123 124 141 140
124 125 142 141
125 126 143 142
126 127 144 143
127 128 145 144
128 129 146 145
129 130 147 146
130 131 148 147
131 132 149 148
132 133 150 149
133 134 151 150
134 135 152 151
135 136 153 152
